 Entering Gaussian System, Link 0=g09
 Initial command:
 /home/minenky/programs//g09/l1.exe "/local/scratch/minenky/m1_00_120836-00-2-C32H16_B3LYP-D3/Gau-63179.inp" -scrdir="/local/scratch/minenky/m1_00_120836-00-2-C32H16_B3LYP-D3/"
 Entering Link 1 = /home/minenky/programs//g09/l1.exe PID=     63180.
  
 Copyright (c) 1988,1990,1992,1993,1995,1998,2003,2009,2013,
            Gaussian, Inc.  All Rights Reserved.
  
 This is part of the Gaussian(R) 09 program.  It is based on
 the Gaussian(R) 03 system (copyright 2003, Gaussian, Inc.),
 the Gaussian(R) 98 system (copyright 1998, Gaussian, Inc.),
 the Gaussian(R) 94 system (copyright 1995, Gaussian, Inc.),
 the Gaussian 92(TM) system (copyright 1992, Gaussian, Inc.),
 the Gaussian 90(TM) system (copyright 1990, Gaussian, Inc.),
 the Gaussian 88(TM) system (copyright 1988, Gaussian, Inc.),
 the Gaussian 86(TM) system (copyright 1986, Carnegie Mellon
 University), and the Gaussian 82(TM) system (copyright 1983,
 Carnegie Mellon University). Gaussian is a federally registered
 trademark of Gaussian, Inc.
  
 This software contains proprietary and confidential information,
 including trade secrets, belonging to Gaussian, Inc.
  
 This software is provided under written license and may be
 used, copied, transmitted, or stored only in accord with that
 written license.
  
 The following legend is applicable only to US Government
 contracts under FAR:
  
                    RESTRICTED RIGHTS LEGEND
  
 Use, reproduction and disclosure by the US Government is
 subject to restrictions as set forth in subparagraphs (a)
 and (c) of the Commercial Computer Software - Restricted
 Rights clause in FAR 52.227-19.
  
 Gaussian, Inc.
 340 Quinnipiac St., Bldg. 40, Wallingford CT 06492
  
  
 ---------------------------------------------------------------
 Warning -- This program may not be used in any manner that
 competes with the business of Gaussian, Inc. or will provide
 assistance to any competitor of Gaussian, Inc.  The licensee
 of this program is prohibited from giving any competitor of
 Gaussian, Inc. access to this program.  By using this program,
 the user acknowledges that Gaussian, Inc. is engaged in the
 business of creating and licensing software in the field of
 computational chemistry and represents and warrants to the
 licensee that it is not a competitor of Gaussian, Inc. and that
 it will not use this program in any manner prohibited above.
 ---------------------------------------------------------------
  

 Cite this work as:
 Gaussian 09, Revision D.01,
 M. J. Frisch, G. W. Trucks, H. B. Schlegel, G. E. Scuseria, 
 M. A. Robb, J. R. Cheeseman, G. Scalmani, V. Barone, B. Mennucci, 
 G. A. Petersson, H. Nakatsuji, M. Caricato, X. Li, H. P. Hratchian, 
 A. F. Izmaylov, J. Bloino, G. Zheng, J. L. Sonnenberg, M. Hada, 
 M. Ehara, K. Toyota, R. Fukuda, J. Hasegawa, M. Ishida, T. Nakajima, 
 Y. Honda, O. Kitao, H. Nakai, T. Vreven, J. A. Montgomery, Jr., 
 J. E. Peralta, F. Ogliaro, M. Bearpark, J. J. Heyd, E. Brothers, 
 K. N. Kudin, V. N. Staroverov, T. Keith, R. Kobayashi, J. Normand, 
 K. Raghavachari, A. Rendell, J. C. Burant, S. S. Iyengar, J. Tomasi, 
 M. Cossi, N. Rega, J. M. Millam, M. Klene, J. E. Knox, J. B. Cross, 
 V. Bakken, C. Adamo, J. Jaramillo, R. Gomperts, R. E. Stratmann, 
 O. Yazyev, A. J. Austin, R. Cammi, C. Pomelli, J. W. Ochterski, 
 R. L. Martin, K. Morokuma, V. G. Zakrzewski, G. A. Voth, 
 P. Salvador, J. J. Dannenberg, S. Dapprich, A. D. Daniels, 
 O. Farkas, J. B. Foresman, J. V. Ortiz, J. Cioslowski, 
 and D. J. Fox, Gaussian, Inc., Wallingford CT, 2013.
 
 ******************************************
 Gaussian 09:  AM64L-G09RevD.01 24-Apr-2013
                23-Jul-2019 
 ******************************************
 %Mem=32000MB
 %NProcShared=16
 Will use up to   16 processors via shared memory.
 %Chk=m1_00_120836-00-2-C32H16_B3LYP-D3
 ----------------------------------------------------------------------
 #P wB97XD/def2tzvp opt=(tight) freq integral(Grid=ultrafine) # SCF(Max
 Cycle=380) 5d 7f GFPrint
 ----------------------------------------------------------------------
 1/7=10,14=-1,18=20,19=15,26=4,38=1/1,3;
 2/9=110,12=2,17=6,18=5,40=1/2;
 3/5=44,7=101,8=11,11=2,16=1,24=100,25=1,30=1,71=1,74=-58,75=-5/1,2,3;
 4//1;
 5/5=2,7=380,38=5/2;
 6/7=2,8=2,9=2,10=2,28=1/1;
 7//1,2,3,16;
 1/7=10,14=-1,18=20,19=15,26=4/3(2);
 2/9=110/2;
 99//99;
 2/9=110/2;
 3/5=44,7=101,8=11,11=2,16=1,25=1,30=1,71=1,74=-58,75=-5/1,2,3;
 4/5=5,16=3,69=1/1;
 5/5=2,7=380,38=5/2;
 7//1,2,3,16;
 1/7=10,14=-1,18=20,19=15,26=4/3(-5);
 2/9=110/2;
 6/7=2,8=2,9=2,10=2,19=2,28=1/1;
 99/9=1/99;
 Leave Link    1 at Tue Jul 23 18:47:21 2019, MaxMem=  4194304000 cpu:         1.3
 (Enter /home/minenky/programs//g09/l101.exe)
 ---------------------------------------
 The PBEPBE optimization and frequencies
 ---------------------------------------
 Symbolic Z-matrix:
 Charge =  0 Multiplicity = 1
 C                     0.99761  -4.97311   0. 
 C                    -0.07306  -5.86063  -0.03229 
 C                    -1.37237  -5.39151  -0.0565 
 C                    -1.6265   -4.0153   -0.0565 
 C                    -2.96182  -3.50426  -0.08072 
 C                    -3.20205  -2.1716   -0.07264 
 C                    -2.12653  -1.23027  -0.04036 
 C                    -2.36666   0.1491   -0.02421 
 C                     2.37379   1.08312   0.03229 
 C                     2.67685  -0.3009    0.0565 
 C                     4.0053   -0.75427   0.09686 
 C                     4.27665  -2.10613   0.113 
 C                     3.23911  -3.03417   0.08072 
 C                     0.27141  -0.76163   0. 
 C                     1.61431  -1.24326   0.03229 
 C                     1.90271  -2.63537   0.04036 
 C                     0.79935  -3.59269   0.00807 
 C                    -0.53356  -3.10191  -0.02421 
 C                    -0.79548  -1.70033  -0.01614 
 C                     0.        0.63048   0. 
 C                    -1.34927   1.08565   0.01614 
 C                     1.0932    1.56713  -0.00807 
 C                    -1.63224   2.52918   0.06457 
 C                    -2.92523   3.02465   0.17758 
 C                    -3.19255   4.40024   0.19372 
 C                    -2.16444   5.30407   0.09686 
 C                    -0.54763   3.45492   0. 
 C                    -0.82433   4.85757  -0.00807 
 C                     0.24509   5.77872  -0.10493 
 C                     1.54039   5.33292  -0.20986 
 C                     1.81518   3.96001  -0.18565 
 C                     0.8066    3.01043  -0.07264 
 H                     1.99913  -5.37677   0.01614 
 H                     0.11825  -6.9259   -0.04036 
 H                    -2.20649  -6.08208  -0.08072 
 H                    -3.78163  -4.21198  -0.10493 
 H                    -4.21732  -1.79423  -0.09686 
 H                    -3.39904   0.46655  -0.04036 
 H                     3.21522   1.76058   0.0565 
 H                     4.80997  -0.02968   0.12107 
 H                     5.30163  -2.4538    0.14529 
 H                     3.49004  -4.0843    0.08879 
 H                    -3.76631   2.34819   0.25829 
 H                    -4.22001   4.74047   0.28251 
 H                    -2.36029   6.36893   0.09686 
 H                     0.02228   6.83828  -0.113 
 H                     2.36142   6.03814  -0.29865 
 H                     2.85002   3.65247  -0.27444 
 
 NAtoms=     48 NQM=       48 NQMF=       0 NMMI=      0 NMMIF=      0
                NMic=       0 NMicF=      0.
                    Isotopes and Nuclear Properties:
 (Nuclear quadrupole moments (NQMom) in fm**2, nuclear magnetic moments (NMagM)
  in nuclear magnetons)

  Atom         1           2           3           4           5           6           7           8           9          10
 IAtWgt=          12          12          12          12          12          12          12          12          12          12
 AtmWgt=  12.0000000  12.0000000  12.0000000  12.0000000  12.0000000  12.0000000  12.0000000  12.0000000  12.0000000  12.0000000
 NucSpn=           0           0           0           0           0           0           0           0           0           0
 AtZEff=   0.0000000   0.0000000   0.0000000   0.0000000   0.0000000   0.0000000   0.0000000   0.0000000   0.0000000   0.0000000
 NQMom=    0.0000000   0.0000000   0.0000000   0.0000000   0.0000000   0.0000000   0.0000000   0.0000000   0.0000000   0.0000000
 NMagM=    0.0000000   0.0000000   0.0000000   0.0000000   0.0000000   0.0000000   0.0000000   0.0000000   0.0000000   0.0000000
 AtZNuc=   6.0000000   6.0000000   6.0000000   6.0000000   6.0000000   6.0000000   6.0000000   6.0000000   6.0000000   6.0000000

  Atom        11          12          13          14          15          16          17          18          19          20
 IAtWgt=          12          12          12          12          12          12          12          12          12          12
 AtmWgt=  12.0000000  12.0000000  12.0000000  12.0000000  12.0000000  12.0000000  12.0000000  12.0000000  12.0000000  12.0000000
 NucSpn=           0           0           0           0           0           0           0           0           0           0
 AtZEff=   0.0000000   0.0000000   0.0000000   0.0000000   0.0000000   0.0000000   0.0000000   0.0000000   0.0000000   0.0000000
 NQMom=    0.0000000   0.0000000   0.0000000   0.0000000   0.0000000   0.0000000   0.0000000   0.0000000   0.0000000   0.0000000
 NMagM=    0.0000000   0.0000000   0.0000000   0.0000000   0.0000000   0.0000000   0.0000000   0.0000000   0.0000000   0.0000000
 AtZNuc=   6.0000000   6.0000000   6.0000000   6.0000000   6.0000000   6.0000000   6.0000000   6.0000000   6.0000000   6.0000000

  Atom        21          22          23          24          25          26          27          28          29          30
 IAtWgt=          12          12          12          12          12          12          12          12          12          12
 AtmWgt=  12.0000000  12.0000000  12.0000000  12.0000000  12.0000000  12.0000000  12.0000000  12.0000000  12.0000000  12.0000000
 NucSpn=           0           0           0           0           0           0           0           0           0           0
 AtZEff=   0.0000000   0.0000000   0.0000000   0.0000000   0.0000000   0.0000000   0.0000000   0.0000000   0.0000000   0.0000000
 NQMom=    0.0000000   0.0000000   0.0000000   0.0000000   0.0000000   0.0000000   0.0000000   0.0000000   0.0000000   0.0000000
 NMagM=    0.0000000   0.0000000   0.0000000   0.0000000   0.0000000   0.0000000   0.0000000   0.0000000   0.0000000   0.0000000
 AtZNuc=   6.0000000   6.0000000   6.0000000   6.0000000   6.0000000   6.0000000   6.0000000   6.0000000   6.0000000   6.0000000

  Atom        31          32          33          34          35          36          37          38          39          40
 IAtWgt=          12          12           1           1           1           1           1           1           1           1
 AtmWgt=  12.0000000  12.0000000   1.0078250   1.0078250   1.0078250   1.0078250   1.0078250   1.0078250   1.0078250   1.0078250
 NucSpn=           0           0           1           1           1           1           1           1           1           1
 AtZEff=   0.0000000   0.0000000   0.0000000   0.0000000   0.0000000   0.0000000   0.0000000   0.0000000   0.0000000   0.0000000
 NQMom=    0.0000000   0.0000000   0.0000000   0.0000000   0.0000000   0.0000000   0.0000000   0.0000000   0.0000000   0.0000000
 NMagM=    0.0000000   0.0000000   2.7928460   2.7928460   2.7928460   2.7928460   2.7928460   2.7928460   2.7928460   2.7928460
 AtZNuc=   6.0000000   6.0000000   1.0000000   1.0000000   1.0000000   1.0000000   1.0000000   1.0000000   1.0000000   1.0000000

  Atom        41          42          43          44          45          46          47          48
 IAtWgt=           1           1           1           1           1           1           1           1
 AtmWgt=   1.0078250   1.0078250   1.0078250   1.0078250   1.0078250   1.0078250   1.0078250   1.0078250
 NucSpn=           1           1           1           1           1           1           1           1
 AtZEff=   0.0000000   0.0000000   0.0000000   0.0000000   0.0000000   0.0000000   0.0000000   0.0000000
 NQMom=    0.0000000   0.0000000   0.0000000   0.0000000   0.0000000   0.0000000   0.0000000   0.0000000
 NMagM=    2.7928460   2.7928460   2.7928460   2.7928460   2.7928460   2.7928460   2.7928460   2.7928460
 AtZNuc=   1.0000000   1.0000000   1.0000000   1.0000000   1.0000000   1.0000000   1.0000000   1.0000000
 Leave Link  101 at Tue Jul 23 18:47:22 2019, MaxMem=  4194304000 cpu:         9.0
 (Enter /home/minenky/programs//g09/l103.exe)

 GradGradGradGradGradGradGradGradGradGradGradGradGradGradGradGradGradGrad
 Berny optimization.
 Initialization pass.
                           ----------------------------
                           !    Initial Parameters    !
                           ! (Angstroms and Degrees)  !
 --------------------------                            --------------------------
 ! Name  Definition              Value          Derivative Info.                !
 --------------------------------------------------------------------------------
 ! R1    R(1,2)                  1.3911         estimate D2E/DX2                !
 ! R2    R(1,17)                 1.3946         estimate D2E/DX2                !
 ! R3    R(1,33)                 1.0799         estimate D2E/DX2                !
 ! R4    R(2,3)                  1.3816         estimate D2E/DX2                !
 ! R5    R(2,34)                 1.0823         estimate D2E/DX2                !
 ! R6    R(3,4)                  1.3995         estimate D2E/DX2                !
 ! R7    R(3,35)                 1.0832         estimate D2E/DX2                !
 ! R8    R(4,5)                  1.43           estimate D2E/DX2                !
 ! R9    R(4,18)                 1.4247         estimate D2E/DX2                !
 ! R10   R(5,6)                  1.3542         estimate D2E/DX2                !
 ! R11   R(5,36)                 1.0833         estimate D2E/DX2                !
 ! R12   R(6,7)                  1.4297         estimate D2E/DX2                !
 ! R13   R(6,37)                 1.0834         estimate D2E/DX2                !
 ! R14   R(7,8)                  1.4002         estimate D2E/DX2                !
 ! R15   R(7,19)                 1.4118         estimate D2E/DX2                !
 ! R16   R(8,21)                 1.3834         estimate D2E/DX2                !
 ! R17   R(8,38)                 1.0802         estimate D2E/DX2                !
 ! R18   R(9,10)                 1.417          estimate D2E/DX2                !
 ! R19   R(9,22)                 1.3696         estimate D2E/DX2                !
 ! R20   R(9,39)                 1.0805         estimate D2E/DX2                !
 ! R21   R(10,11)                1.4043         estimate D2E/DX2                !
 ! R22   R(10,15)                1.4204         estimate D2E/DX2                !
 ! R23   R(11,12)                1.3789         estimate D2E/DX2                !
 ! R24   R(11,40)                1.0831         estimate D2E/DX2                !
 ! R25   R(12,13)                1.3924         estimate D2E/DX2                !
 ! R26   R(12,41)                1.0828         estimate D2E/DX2                !
 ! R27   R(13,16)                1.3952         estimate D2E/DX2                !
 ! R28   R(13,42)                1.0797         estimate D2E/DX2                !
 ! R29   R(14,15)                1.427          estimate D2E/DX2                !
 ! R30   R(14,19)                1.4212         estimate D2E/DX2                !
 ! R31   R(14,20)                1.4183         estimate D2E/DX2                !
 ! R32   R(15,16)                1.4217         estimate D2E/DX2                !
 ! R33   R(16,17)                1.4611         estimate D2E/DX2                !
 ! R34   R(17,18)                1.4208         estimate D2E/DX2                !
 ! R35   R(18,19)                1.4259         estimate D2E/DX2                !
 ! R36   R(20,21)                1.4241         estimate D2E/DX2                !
 ! R37   R(20,22)                1.4396         estimate D2E/DX2                !
 ! R38   R(21,23)                1.4718         estimate D2E/DX2                !
 ! R39   R(22,32)                1.4729         estimate D2E/DX2                !
 ! R40   R(23,24)                1.3893         estimate D2E/DX2                !
 ! R41   R(23,27)                1.4274         estimate D2E/DX2                !
 ! R42   R(24,25)                1.4014         estimate D2E/DX2                !
 ! R43   R(24,43)                1.0824         estimate D2E/DX2                !
 ! R44   R(25,26)                1.3723         estimate D2E/DX2                !
 ! R45   R(25,44)                1.086          estimate D2E/DX2                !
 ! R46   R(26,28)                1.4164         estimate D2E/DX2                !
 ! R47   R(26,45)                1.0827         estimate D2E/DX2                !
 ! R48   R(27,28)                1.4297         estimate D2E/DX2                !
 ! R49   R(27,32)                1.4272         estimate D2E/DX2                !
 ! R50   R(28,29)                1.4148         estimate D2E/DX2                !
 ! R51   R(29,30)                1.3739         estimate D2E/DX2                !
 ! R52   R(29,46)                1.0828         estimate D2E/DX2                !
 ! R53   R(30,31)                1.4004         estimate D2E/DX2                !
 ! R54   R(30,47)                1.086          estimate D2E/DX2                !
 ! R55   R(31,32)                1.3899         estimate D2E/DX2                !
 ! R56   R(31,48)                1.0832         estimate D2E/DX2                !
 ! A1    A(2,1,17)             121.4823         estimate D2E/DX2                !
 ! A2    A(2,1,33)             118.4025         estimate D2E/DX2                !
 ! A3    A(17,1,33)            120.1149         estimate D2E/DX2                !
 ! A4    A(1,2,3)              120.5043         estimate D2E/DX2                !
 ! A5    A(1,2,34)             119.4771         estimate D2E/DX2                !
 ! A6    A(3,2,34)             120.0184         estimate D2E/DX2                !
 ! A7    A(2,3,4)              120.3089         estimate D2E/DX2                !
 ! A8    A(2,3,35)             120.5389         estimate D2E/DX2                !
 ! A9    A(4,3,35)             119.1514         estimate D2E/DX2                !
 ! A10   A(3,4,5)              121.3995         estimate D2E/DX2                !
 ! A11   A(3,4,18)             119.416          estimate D2E/DX2                !
 ! A12   A(5,4,18)             119.1836         estimate D2E/DX2                !
 ! A13   A(4,5,6)              121.1487         estimate D2E/DX2                !
 ! A14   A(4,5,36)             118.2668         estimate D2E/DX2                !
 ! A15   A(6,5,36)             120.5845         estimate D2E/DX2                !
 ! A16   A(5,6,7)              120.9746         estimate D2E/DX2                !
 ! A17   A(5,6,37)             120.5906         estimate D2E/DX2                !
 ! A18   A(7,6,37)             118.4337         estimate D2E/DX2                !
 ! A19   A(6,7,8)              121.3245         estimate D2E/DX2                !
 ! A20   A(6,7,19)             119.368          estimate D2E/DX2                !
 ! A21   A(8,7,19)             119.3064         estimate D2E/DX2                !
 ! A22   A(7,8,21)             122.7604         estimate D2E/DX2                !
 ! A23   A(7,8,38)             116.9516         estimate D2E/DX2                !
 ! A24   A(21,8,38)            120.2875         estimate D2E/DX2                !
 ! A25   A(10,9,22)            123.0687         estimate D2E/DX2                !
 ! A26   A(10,9,39)            116.4513         estimate D2E/DX2                !
 ! A27   A(22,9,39)            120.4777         estimate D2E/DX2                !
 ! A28   A(9,10,11)            121.2083         estimate D2E/DX2                !
 ! A29   A(9,10,15)            119.1897         estimate D2E/DX2                !
 ! A30   A(11,10,15)           119.6012         estimate D2E/DX2                !
 ! A31   A(10,11,12)           120.1992         estimate D2E/DX2                !
 ! A32   A(10,11,40)           119.1756         estimate D2E/DX2                !
 ! A33   A(12,11,40)           120.6242         estimate D2E/DX2                !
 ! A34   A(11,12,13)           120.4323         estimate D2E/DX2                !
 ! A35   A(11,12,41)           120.0927         estimate D2E/DX2                !
 ! A36   A(13,12,41)           119.4741         estimate D2E/DX2                !
 ! A37   A(12,13,16)           121.594          estimate D2E/DX2                !
 ! A38   A(12,13,42)           118.3519         estimate D2E/DX2                !
 ! A39   A(16,13,42)           120.054          estimate D2E/DX2                !
 ! A40   A(15,14,19)           118.9334         estimate D2E/DX2                !
 ! A41   A(15,14,20)           120.754          estimate D2E/DX2                !
 ! A42   A(19,14,20)           120.3085         estimate D2E/DX2                !
 ! A43   A(10,15,14)           118.7127         estimate D2E/DX2                !
 ! A44   A(10,15,16)           119.8539         estimate D2E/DX2                !
 ! A45   A(14,15,16)           121.4334         estimate D2E/DX2                !
 ! A46   A(13,16,15)           118.3168         estimate D2E/DX2                !
 ! A47   A(13,16,17)           122.4573         estimate D2E/DX2                !
 ! A48   A(15,16,17)           119.2258         estimate D2E/DX2                !
 ! A49   A(1,17,16)            122.7723         estimate D2E/DX2                !
 ! A50   A(1,17,18)            118.3699         estimate D2E/DX2                !
 ! A51   A(16,17,18)           118.8567         estimate D2E/DX2                !
 ! A52   A(4,18,17)            119.9168         estimate D2E/DX2                !
 ! A53   A(4,18,19)            119.301          estimate D2E/DX2                !
 ! A54   A(17,18,19)           120.781          estimate D2E/DX2                !
 ! A55   A(7,19,14)            119.2122         estimate D2E/DX2                !
 ! A56   A(7,19,18)            120.0241         estimate D2E/DX2                !
 ! A57   A(14,19,18)           120.7594         estimate D2E/DX2                !
 ! A58   A(14,20,21)           119.6719         estimate D2E/DX2                !
 ! A59   A(14,20,22)           119.5571         estimate D2E/DX2                !
 ! A60   A(21,20,22)           120.7699         estimate D2E/DX2                !
 ! A61   A(8,21,20)            118.6903         estimate D2E/DX2                !
 ! A62   A(8,21,23)            121.5706         estimate D2E/DX2                !
 ! A63   A(20,21,23)           119.7375         estimate D2E/DX2                !
 ! A64   A(9,22,20)            118.6806         estimate D2E/DX2                !
 ! A65   A(9,22,32)            121.9731         estimate D2E/DX2                !
 ! A66   A(20,22,32)           119.3435         estimate D2E/DX2                !
 ! A67   A(21,23,24)           122.1002         estimate D2E/DX2                !
 ! A68   A(21,23,27)           119.2423         estimate D2E/DX2                !
 ! A69   A(24,23,27)           118.6569         estimate D2E/DX2                !
 ! A70   A(23,24,25)           121.9061         estimate D2E/DX2                !
 ! A71   A(23,24,43)           120.424          estimate D2E/DX2                !
 ! A72   A(25,24,43)           117.6699         estimate D2E/DX2                !
 ! A73   A(24,25,26)           120.1826         estimate D2E/DX2                !
 ! A74   A(24,25,44)           119.2706         estimate D2E/DX2                !
 ! A75   A(26,25,44)           120.5468         estimate D2E/DX2                !
 ! A76   A(25,26,28)           120.4255         estimate D2E/DX2                !
 ! A77   A(25,26,45)           120.8123         estimate D2E/DX2                !
 ! A78   A(28,26,45)           118.762          estimate D2E/DX2                !
 ! A79   A(23,27,28)           119.3058         estimate D2E/DX2                !
 ! A80   A(23,27,32)           121.4211         estimate D2E/DX2                !
 ! A81   A(28,27,32)           119.269          estimate D2E/DX2                !
 ! A82   A(26,28,27)           119.4688         estimate D2E/DX2                !
 ! A83   A(26,28,29)           120.9973         estimate D2E/DX2                !
 ! A84   A(27,28,29)           119.5297         estimate D2E/DX2                !
 ! A85   A(28,29,30)           120.4394         estimate D2E/DX2                !
 ! A86   A(28,29,46)           118.823          estimate D2E/DX2                !
 ! A87   A(30,29,46)           120.7282         estimate D2E/DX2                !
 ! A88   A(29,30,31)           120.1193         estimate D2E/DX2                !
 ! A89   A(29,30,47)           120.5527         estimate D2E/DX2                !
 ! A90   A(31,30,47)           119.3228         estimate D2E/DX2                !
 ! A91   A(30,31,32)           121.9276         estimate D2E/DX2                !
 ! A92   A(30,31,48)           117.6714         estimate D2E/DX2                !
 ! A93   A(32,31,48)           120.394          estimate D2E/DX2                !
 ! A94   A(22,32,27)           119.1827         estimate D2E/DX2                !
 ! A95   A(22,32,31)           122.1312         estimate D2E/DX2                !
 ! A96   A(27,32,31)           118.6811         estimate D2E/DX2                !
 ! D1    D(17,1,2,3)            -0.0435         estimate D2E/DX2                !
 ! D2    D(17,1,2,34)          179.8353         estimate D2E/DX2                !
 ! D3    D(33,1,2,3)          -179.8725         estimate D2E/DX2                !
 ! D4    D(33,1,2,34)            0.0063         estimate D2E/DX2                !
 ! D5    D(2,1,17,16)         -179.9359         estimate D2E/DX2                !
 ! D6    D(2,1,17,18)           -0.3027         estimate D2E/DX2                !
 ! D7    D(33,1,17,16)          -0.1098         estimate D2E/DX2                !
 ! D8    D(33,1,17,18)         179.5235         estimate D2E/DX2                !
 ! D9    D(1,2,3,4)              0.3649         estimate D2E/DX2                !
 ! D10   D(1,2,3,35)          -179.9429         estimate D2E/DX2                !
 ! D11   D(34,2,3,4)          -179.5132         estimate D2E/DX2                !
 ! D12   D(34,2,3,35)            0.179          estimate D2E/DX2                !
 ! D13   D(2,3,4,5)           -179.9735         estimate D2E/DX2                !
 ! D14   D(2,3,4,18)            -0.3275         estimate D2E/DX2                !
 ! D15   D(35,3,4,5)             0.3301         estimate D2E/DX2                !
 ! D16   D(35,3,4,18)          179.9761         estimate D2E/DX2                !
 ! D17   D(3,4,5,6)            179.6067         estimate D2E/DX2                !
 ! D18   D(3,4,5,36)            -0.3403         estimate D2E/DX2                !
 ! D19   D(18,4,5,6)            -0.0402         estimate D2E/DX2                !
 ! D20   D(18,4,5,36)         -179.9871         estimate D2E/DX2                !
 ! D21   D(3,4,18,17)           -0.023          estimate D2E/DX2                !
 ! D22   D(3,4,18,19)         -179.6245         estimate D2E/DX2                !
 ! D23   D(5,4,18,17)          179.6309         estimate D2E/DX2                !
 ! D24   D(5,4,18,19)            0.0294         estimate D2E/DX2                !
 ! D25   D(4,5,6,7)              0.0359         estimate D2E/DX2                !
 ! D26   D(4,5,6,37)           179.6504         estimate D2E/DX2                !
 ! D27   D(36,5,6,7)           179.9817         estimate D2E/DX2                !
 ! D28   D(36,5,6,37)           -0.4038         estimate D2E/DX2                !
 ! D29   D(5,6,7,8)           -179.6357         estimate D2E/DX2                !
 ! D30   D(5,6,7,19)            -0.0211         estimate D2E/DX2                !
 ! D31   D(37,6,7,8)             0.7417         estimate D2E/DX2                !
 ! D32   D(37,6,7,19)         -179.6437         estimate D2E/DX2                !
 ! D33   D(6,7,8,21)           179.55           estimate D2E/DX2                !
 ! D34   D(6,7,8,38)            -0.1838         estimate D2E/DX2                !
 ! D35   D(19,7,8,21)           -0.0649         estimate D2E/DX2                !
 ! D36   D(19,7,8,38)         -179.7987         estimate D2E/DX2                !
 ! D37   D(6,7,19,14)          179.2643         estimate D2E/DX2                !
 ! D38   D(6,7,19,18)            0.0108         estimate D2E/DX2                !
 ! D39   D(8,7,19,14)           -1.1132         estimate D2E/DX2                !
 ! D40   D(8,7,19,18)          179.6333         estimate D2E/DX2                !
 ! D41   D(7,8,21,20)            1.9463         estimate D2E/DX2                !
 ! D42   D(7,8,21,23)         -178.5235         estimate D2E/DX2                !
 ! D43   D(38,8,21,20)        -178.3285         estimate D2E/DX2                !
 ! D44   D(38,8,21,23)           1.2017         estimate D2E/DX2                !
 ! D45   D(22,9,10,11)         179.9549         estimate D2E/DX2                !
 ! D46   D(22,9,10,15)           0.2888         estimate D2E/DX2                !
 ! D47   D(39,9,10,11)          -0.5895         estimate D2E/DX2                !
 ! D48   D(39,9,10,15)         179.7444         estimate D2E/DX2                !
 ! D49   D(10,9,22,20)           1.2214         estimate D2E/DX2                !
 ! D50   D(10,9,22,32)        -178.1607         estimate D2E/DX2                !
 ! D51   D(39,9,22,20)        -178.2131         estimate D2E/DX2                !
 ! D52   D(39,9,22,32)           2.4049         estimate D2E/DX2                !
 ! D53   D(9,10,11,12)        -179.6704         estimate D2E/DX2                !
 ! D54   D(9,10,11,40)           0.6952         estimate D2E/DX2                !
 ! D55   D(15,10,11,12)         -0.0056         estimate D2E/DX2                !
 ! D56   D(15,10,11,40)       -179.64           estimate D2E/DX2                !
 ! D57   D(9,10,15,14)          -0.7245         estimate D2E/DX2                !
 ! D58   D(9,10,15,16)         179.2682         estimate D2E/DX2                !
 ! D59   D(11,10,15,14)        179.6039         estimate D2E/DX2                !
 ! D60   D(11,10,15,16)         -0.4034         estimate D2E/DX2                !
 ! D61   D(10,11,12,13)          0.4202         estimate D2E/DX2                !
 ! D62   D(10,11,12,41)       -179.929          estimate D2E/DX2                !
 ! D63   D(40,11,12,13)       -179.9507         estimate D2E/DX2                !
 ! D64   D(40,11,12,41)         -0.3            estimate D2E/DX2                !
 ! D65   D(11,12,13,16)         -0.4301         estimate D2E/DX2                !
 ! D66   D(11,12,13,42)        179.645          estimate D2E/DX2                !
 ! D67   D(41,12,13,16)        179.9171         estimate D2E/DX2                !
 ! D68   D(41,12,13,42)         -0.0079         estimate D2E/DX2                !
 ! D69   D(12,13,16,15)          0.0169         estimate D2E/DX2                !
 ! D70   D(12,13,16,17)       -179.9059         estimate D2E/DX2                !
 ! D71   D(42,13,16,15)        179.9406         estimate D2E/DX2                !
 ! D72   D(42,13,16,17)          0.0178         estimate D2E/DX2                !
 ! D73   D(19,14,15,10)       -179.6234         estimate D2E/DX2                !
 ! D74   D(19,14,15,16)          0.3841         estimate D2E/DX2                !
 ! D75   D(20,14,15,10)         -0.3679         estimate D2E/DX2                !
 ! D76   D(20,14,15,16)        179.6396         estimate D2E/DX2                !
 ! D77   D(15,14,19,7)         179.6405         estimate D2E/DX2                !
 ! D78   D(15,14,19,18)         -1.1117         estimate D2E/DX2                !
 ! D79   D(20,14,19,7)           0.3816         estimate D2E/DX2                !
 ! D80   D(20,14,19,18)        179.6294         estimate D2E/DX2                !
 ! D81   D(15,14,20,21)       -177.7438         estimate D2E/DX2                !
 ! D82   D(15,14,20,22)          1.8779         estimate D2E/DX2                !
 ! D83   D(19,14,20,21)          1.5015         estimate D2E/DX2                !
 ! D84   D(19,14,20,22)       -178.8768         estimate D2E/DX2                !
 ! D85   D(10,15,16,13)          0.3946         estimate D2E/DX2                !
 ! D86   D(10,15,16,17)       -179.6801         estimate D2E/DX2                !
 ! D87   D(14,15,16,13)       -179.613          estimate D2E/DX2                !
 ! D88   D(14,15,16,17)          0.3124         estimate D2E/DX2                !
 ! D89   D(13,16,17,1)          -0.7385         estimate D2E/DX2                !
 ! D90   D(13,16,17,18)        179.6299         estimate D2E/DX2                !
 ! D91   D(15,16,17,1)         179.3394         estimate D2E/DX2                !
 ! D92   D(15,16,17,18)         -0.2922         estimate D2E/DX2                !
 ! D93   D(1,17,18,4)            0.3313         estimate D2E/DX2                !
 ! D94   D(1,17,18,19)         179.9269         estimate D2E/DX2                !
 ! D95   D(16,17,18,4)         179.9793         estimate D2E/DX2                !
 ! D96   D(16,17,18,19)         -0.4252         estimate D2E/DX2                !
 ! D97   D(4,18,19,7)           -0.0156         estimate D2E/DX2                !
 ! D98   D(4,18,19,14)        -179.2574         estimate D2E/DX2                !
 ! D99   D(17,18,19,7)        -179.6136         estimate D2E/DX2                !
 ! D100  D(17,18,19,14)          1.1447         estimate D2E/DX2                !
 ! D101  D(14,20,21,8)          -2.6317         estimate D2E/DX2                !
 ! D102  D(14,20,21,23)        177.8293         estimate D2E/DX2                !
 ! D103  D(22,20,21,8)         177.7512         estimate D2E/DX2                !
 ! D104  D(22,20,21,23)         -1.7878         estimate D2E/DX2                !
 ! D105  D(14,20,22,9)          -2.2829         estimate D2E/DX2                !
 ! D106  D(14,20,22,32)        177.1158         estimate D2E/DX2                !
 ! D107  D(21,20,22,9)         177.3346         estimate D2E/DX2                !
 ! D108  D(21,20,22,32)         -3.2667         estimate D2E/DX2                !
 ! D109  D(8,21,23,24)           5.1291         estimate D2E/DX2                !
 ! D110  D(8,21,23,27)        -175.1647         estimate D2E/DX2                !
 ! D111  D(20,21,23,24)       -175.3456         estimate D2E/DX2                !
 ! D112  D(20,21,23,27)          4.3607         estimate D2E/DX2                !
 ! D113  D(9,22,32,27)        -174.824          estimate D2E/DX2                !
 ! D114  D(9,22,32,31)           4.353          estimate D2E/DX2                !
 ! D115  D(20,22,32,27)          5.798          estimate D2E/DX2                !
 ! D116  D(20,22,32,31)       -175.0251         estimate D2E/DX2                !
 ! D117  D(21,23,24,25)       -178.5686         estimate D2E/DX2                !
 ! D118  D(21,23,24,43)          1.5259         estimate D2E/DX2                !
 ! D119  D(27,23,24,25)          1.7235         estimate D2E/DX2                !
 ! D120  D(27,23,24,43)       -178.182          estimate D2E/DX2                !
 ! D121  D(21,23,27,28)        177.4672         estimate D2E/DX2                !
 ! D122  D(21,23,27,32)         -1.7815         estimate D2E/DX2                !
 ! D123  D(24,23,27,28)         -2.8164         estimate D2E/DX2                !
 ! D124  D(24,23,27,32)        177.9349         estimate D2E/DX2                !
 ! D125  D(23,24,25,26)         -0.017          estimate D2E/DX2                !
 ! D126  D(23,24,25,44)        179.921          estimate D2E/DX2                !
 ! D127  D(43,24,25,26)        179.891          estimate D2E/DX2                !
 ! D128  D(43,24,25,44)         -0.171          estimate D2E/DX2                !
 ! D129  D(24,25,26,28)         -0.5702         estimate D2E/DX2                !
 ! D130  D(24,25,26,45)        179.2938         estimate D2E/DX2                !
 ! D131  D(44,25,26,28)        179.4926         estimate D2E/DX2                !
 ! D132  D(44,25,26,45)         -0.6434         estimate D2E/DX2                !
 ! D133  D(25,26,28,27)         -0.5751         estimate D2E/DX2                !
 ! D134  D(25,26,28,29)       -179.8285         estimate D2E/DX2                !
 ! D135  D(45,26,28,27)        179.5582         estimate D2E/DX2                !
 ! D136  D(45,26,28,29)          0.3048         estimate D2E/DX2                !
 ! D137  D(23,27,28,26)          2.2729         estimate D2E/DX2                !
 ! D138  D(23,27,28,29)       -178.4626         estimate D2E/DX2                !
 ! D139  D(32,27,28,26)       -178.4621         estimate D2E/DX2                !
 ! D140  D(32,27,28,29)          0.8024         estimate D2E/DX2                !
 ! D141  D(23,27,32,22)         -3.259          estimate D2E/DX2                !
 ! D142  D(23,27,32,31)        177.5354         estimate D2E/DX2                !
 ! D143  D(28,27,32,22)        177.492          estimate D2E/DX2                !
 ! D144  D(28,27,32,31)         -1.7136         estimate D2E/DX2                !
 ! D145  D(26,28,29,30)       -179.8238         estimate D2E/DX2                !
 ! D146  D(26,28,29,46)         -0.9267         estimate D2E/DX2                !
 ! D147  D(27,28,29,30)          0.9232         estimate D2E/DX2                !
 ! D148  D(27,28,29,46)        179.8203         estimate D2E/DX2                !
 ! D149  D(28,29,30,31)         -1.7129         estimate D2E/DX2                !
 ! D150  D(28,29,30,47)        179.1183         estimate D2E/DX2                !
 ! D151  D(46,29,30,31)        179.4113         estimate D2E/DX2                !
 ! D152  D(46,29,30,47)          0.2424         estimate D2E/DX2                !
 ! D153  D(29,30,31,32)          0.7657         estimate D2E/DX2                !
 ! D154  D(29,30,31,48)        179.8104         estimate D2E/DX2                !
 ! D155  D(47,30,31,32)        179.9447         estimate D2E/DX2                !
 ! D156  D(47,30,31,48)         -1.0105         estimate D2E/DX2                !
 ! D157  D(30,31,32,22)       -178.218          estimate D2E/DX2                !
 ! D158  D(30,31,32,27)          0.963          estimate D2E/DX2                !
 ! D159  D(48,31,32,22)          2.7628         estimate D2E/DX2                !
 ! D160  D(48,31,32,27)       -178.0562         estimate D2E/DX2                !
 --------------------------------------------------------------------------------
 Trust Radius=3.00D-01 FncErr=1.00D-07 GrdErr=1.00D-06
 Number of steps in this run=    288 maximum allowed number of steps=    288.
 GradGradGradGradGradGradGradGradGradGradGradGradGradGradGradGradGradGrad

 Leave Link  103 at Tue Jul 23 18:47:22 2019, MaxMem=  4194304000 cpu:         0.3
 (Enter /home/minenky/programs//g09/l202.exe)
                          Input orientation:                          
 ---------------------------------------------------------------------
 Center     Atomic      Atomic             Coordinates (Angstroms)
 Number     Number       Type             X           Y           Z
 ---------------------------------------------------------------------
      1          6           0        0.997613   -4.973112    0.000000
      2          6           0       -0.073058   -5.860627   -0.032287
      3          6           0       -1.372371   -5.391514   -0.056502
      4          6           0       -1.626495   -4.015303   -0.056502
      5          6           0       -2.961822   -3.504258   -0.080717
      6          6           0       -3.202051   -2.171604   -0.072645
      7          6           0       -2.126528   -1.230266   -0.040358
      8          6           0       -2.366655    0.149096   -0.024215
      9          6           0        2.373789    1.083117    0.032287
     10          6           0        2.676854   -0.300902    0.056502
     11          6           0        4.005301   -0.754265    0.096860
     12          6           0        4.276647   -2.106126    0.113003
     13          6           0        3.239105   -3.034165    0.080717
     14          6           0        0.271413   -0.761630    0.000000
     15          6           0        1.614313   -1.243261    0.032287
     16          6           0        1.902705   -2.635371    0.040358
     17          6           0        0.799352   -3.592689    0.008072
     18          6           0       -0.533557   -3.101907   -0.024215
     19          6           0       -0.795476   -1.700333   -0.016143
     20          6           0        0.000000    0.630476    0.000000
     21          6           0       -1.349268    1.085648    0.016143
     22          6           0        1.093200    1.567128   -0.008072
     23          6           0       -1.632242    2.529182    0.064573
     24          6           0       -2.925234    3.024648    0.177577
     25          6           0       -3.192551    4.400241    0.193720
     26          6           0       -2.164441    5.304074    0.096860
     27          6           0       -0.547633    3.454921    0.000000
     28          6           0       -0.824325    4.857572   -0.008072
     29          6           0        0.245090    5.778719   -0.104932
     30          6           0        1.540394    5.332924   -0.209863
     31          6           0        1.815179    3.960012   -0.185648
     32          6           0        0.806604    3.010430   -0.072645
     33          1           0        1.999134   -5.376773    0.016143
     34          1           0        0.118252   -6.925896   -0.040358
     35          1           0       -2.206485   -6.082081   -0.080717
     36          1           0       -3.781629   -4.211978   -0.104932
     37          1           0       -4.217319   -1.794232   -0.096860
     38          1           0       -3.399042    0.466551   -0.040358
     39          1           0        3.215223    1.760579    0.056502
     40          1           0        4.809973   -0.029684    0.121075
     41          1           0        5.301630   -2.453802    0.145290
     42          1           0        3.490036   -4.084298    0.088788
     43          1           0       -3.766311    2.348194    0.258293
     44          1           0       -4.220006    4.740465    0.282508
     45          1           0       -2.360294    6.368934    0.096860
     46          1           0        0.022278    6.838278   -0.113003
     47          1           0        2.361423    6.038138   -0.298652
     48          1           0        2.850016    3.652467   -0.274437
 ---------------------------------------------------------------------
                    Distance matrix (angstroms):
                    1          2          3          4          5
     1  C    0.000000
     2  C    1.391065   0.000000
     3  C    2.407297   1.381618   0.000000
     4  C    2.794017   2.412255   1.399477   0.000000
     5  C    4.223881   3.728241   2.467524   1.429983   0.000000
     6  C    5.048852   4.837470   3.703486   2.425255   1.354157
     7  C    4.875529   5.065279   4.229066   2.829616   2.422888
     8  C    6.128287   6.432528   5.629210   4.229787   3.701947
     9  C    6.210701   7.362527   7.480805   6.481053   7.037437
    10  C    4.965137   6.203261   6.505638   5.685803   6.486523
    11  C    5.182108   6.536408   7.102602   6.509609   7.492316
    12  C    4.357114   5.747810   6.537118   6.206511   7.374804
    13  C    2.964847   4.355695   5.180891   4.965433   6.220815
    14  C    4.273634   5.110721   4.913354   3.767179   4.240558
    15  C    3.780628   4.916448   5.112354   4.265552   5.105476
    16  C    2.507160   3.783014   4.281569   3.790626   4.943000
    17  C    1.394611   2.430282   2.820695   2.463231   3.763261
    18  C    2.417949   2.796902   2.438637   1.424727   2.462021
    19  C    3.731824   4.222582   3.736208   2.459941   2.819817
    20  C    5.691698   6.491594   6.176646   4.922595   5.086741
    21  C    6.497437   7.062704   6.477611   5.108995   4.865897
    22  C    6.540943   7.518796   7.382688   6.209881   6.493646
    23  C    7.950140   8.534010   7.925883   6.545607   6.179910
    24  C    8.909794   9.334188   8.561423   7.162571   6.534116
    25  C   10.269116  10.726963   9.962637   8.563675   7.912626
    26  C   10.753070  11.359626  10.725973   9.336150   8.846133
    27  C    8.568519   9.327685   8.884976   7.547939   7.366478
    28  C    9.998093  10.744523  10.263843   8.909194   8.631012
    29  C   10.778644  11.643920  11.286834   9.971361   9.821331
    30  C   10.322453  11.310630  11.114013   9.871274   9.918791
    31  C    8.972379  10.001695   9.880698   8.687200   8.862622
    32  C    7.986157   8.914656   8.679911   7.435130   7.526105
    33  H    1.079929   2.128483   3.372320   3.873508   5.303469
    34  H    2.142025   1.082341   2.139286   3.393517   4.603921
    35  H    3.391544   2.145437   1.083151   2.146752   2.686207
    36  H    4.840608   4.059165   2.682941   2.164631   1.083299
    37  H    6.108206   5.806431   4.586480   3.412793   2.121491
    38  H    6.994436   7.148106   6.198756   4.819668   3.995011
    39  H    7.089681   8.300811   8.497719   7.537627   8.117464
    40  H    6.243895   7.607063   8.185483   7.572636   8.515526
    41  H    4.989248   6.365945   7.294735   7.104782   8.333017
    42  H    2.647649   3.983170   5.037154   5.119058   6.480096
    43  H    8.738605   9.006070   8.107597   6.721012   5.917206
    44  H   11.029820  11.387687  10.530002   9.138091   8.348079
    45  H   11.829071  12.442278  11.802866  10.411261   9.893093
    46  H   11.852130  12.699519  12.309186  10.978245  10.764476
    47  H   11.099405  12.148179  12.026504  10.818216  10.928941
    48  H    8.826513   9.954997   9.983468   8.881517   9.221372
                    6          7          8          9         10
     6  C    0.000000
     7  C    1.429654   0.000000
     8  C    2.466958   1.400200   0.000000
     9  C    6.457105   5.060620   4.831914   0.000000
    10  C    6.170715   4.893422   5.064188   1.417019   0.000000
    11  C    7.347347   6.151807   6.436812   2.458043   1.404257
    12  C    7.481288   6.464619   7.017002   3.714654   2.412750
    13  C    6.500463   5.662043   6.447380   4.207509   2.790598
    14  C    3.749434   2.443639   2.790952   2.797163   2.449818
    15  C    4.906138   3.741569   4.217814   2.447210   1.420430
    16  C    5.127025   4.267968   5.097535   3.748218   2.459535
    17  C    4.247025   3.760872   4.901591   4.933822   3.789884
    18  C    2.826423   2.457816   3.732194   5.096104   4.261324
    19  C    2.452935   1.411825   2.426738   4.218315   3.744431
    20  C    4.255592   2.825971   2.415237   2.416775   2.834820
    21  C    3.748383   2.443519   1.383414   3.723093   4.258381
    22  C    5.694863   4.265338   3.739207   1.369600   2.449830
    23  C    4.957874   3.793254   2.492399   4.259158   5.155361
    24  C    5.209633   4.334711   2.936244   5.645378   6.515929
    25  C    6.577248   5.735312   4.336108   6.481783   7.521269
    26  C    7.549247   6.535891   5.160363   6.198079   7.406451
    27  C    6.221655   4.944241   3.773315   3.763137   4.950426
    28  C    7.420719   6.225636   4.954673   4.947330   6.234764
    29  C    8.665533   7.399636   6.206479   5.157409   6.549911
    30  C    8.878488   7.520007   6.493964   4.337516   5.753476
    31  C    7.923514   6.518984   5.660113   2.938718   4.353907
    32  C    6.551549   5.156337   4.273073   2.486285   3.805185
    33  H    6.110100   5.849598   7.042512   6.470765   5.121074
    34  H    5.799030   6.122029   7.498702   8.320878   7.102561
    35  H    4.035226   4.852642   6.233491   8.504807   7.568874
    36  H    2.121339   3.410885   4.585590   8.120716   7.552124
    37  H    1.083404   2.166254   2.684541   7.192949   7.055719
    38  H    2.645696   2.120962   1.080213   5.806118   6.124939
    39  H    7.527294   6.122813   5.810401   1.080533   2.130621
    40  H    8.295654   7.041485   7.180325   2.679776   2.151261
    41  H    8.511153   7.530540   8.099778   4.592910   3.395926
    42  H    6.961931   6.301426   7.227394   5.286906   3.869934
    43  H    4.566890   3.947589   2.621999   6.273143   6.969419
    44  H    6.995646   6.335339   4.960812   7.544331   8.545943
    45  H    8.583593   7.604033   6.221020   7.096166   8.358301
    46  H    9.569530   8.350093   7.103523   6.218729   7.618622
    47  H    9.919838   8.546234   7.557172   4.966076   6.356812
    48  H    8.401669   6.975806   6.288869   2.631051   3.970974
                   11         12         13         14         15
    11  C    0.000000
    12  C    1.378919   0.000000
    13  C    2.405257   1.392405   0.000000
    14  C    3.735151   4.226386   3.738733   0.000000
    15  C    2.441334   2.799835   2.418601   1.427022   0.000000
    16  C    2.821819   2.433306   1.395217   2.484683   1.421691
    17  C    4.282831   3.783181   2.503921   2.879875   2.486878
    18  C    5.111488   4.914109   3.774729   2.474967   2.840969
    19  C    4.894413   5.089968   4.250451   1.421153   2.453231
    20  C    4.239024   5.078530   4.891616   1.418317   2.473447
    21  C    5.662438   6.468982   6.166863   2.457499   3.769203
    22  C    3.725615   4.862282   5.077863   2.469517   2.858579
    23  C    6.524106   7.510219   7.394668   3.802304   4.977197
    24  C    7.894239   8.842856   8.643938   4.958426   6.232467
    25  C    8.853665   9.905970   9.831041   6.219444   7.414925
    26  C    8.646918   9.818296   9.936035   6.537242   7.559811
    27  C    6.201277   7.362859   7.513597   4.295362   5.171844
    28  C    7.404662   8.632941   8.876872   5.725045   6.570293
    29  C    7.540543   8.858427   9.309432   6.541244   7.155544
    30  C    6.574475   7.932893   8.542730   6.228800   6.581057
    31  C    5.205848   6.553323   7.142620   4.971075   5.211707
    32  C    4.943007   6.185047   6.517493   3.810531   4.330969
    33  H    5.039722   3.986675   2.651322   4.927964   4.151418
    34  H    7.294999   6.367570   4.989985   6.166301   5.876718
    35  H    8.185563   7.607677   6.242620   5.869727   6.166478
    36  H    8.522487   8.331742   7.121265   5.323820   6.160219
    37  H    8.290388   8.502281   7.560901   4.606991   5.859025
    38  H    7.505566   8.096813   7.505642   3.870697   5.297402
    39  H    2.636341   4.010140   4.794865   3.876951   3.403903
    40  H    1.083098   2.143855   3.390599   4.598797   3.419488
    41  H    2.138046   1.082826   2.143595   5.309203   3.882588
    42  H    3.369671   2.128969   1.079727   4.626828   3.404852
    43  H    8.369544   9.195175   8.836129   5.103032   6.473078
    44  H    9.893543  10.913187  10.776081   7.108144   8.361033
    45  H    9.553050  10.764566  10.944030   7.601329   8.587618
    46  H    8.576434   9.907225  10.385116   7.604830   8.238140
    47  H    6.999679   8.376549   9.122551   7.119985   7.327105
    48  H    4.570758   5.945316   6.707352   5.119449   5.058576
                   16         17         18         19         20
    16  C    0.000000
    17  C    1.461126   0.000000
    18  C    2.481370   1.420759   0.000000
    19  C    2.856163   2.474889   1.425860   0.000000
    20  C    3.779904   4.298157   3.770405   2.462867   0.000000
    21  C    4.941852   5.148152   4.266454   2.840672   1.424067
    22  C    4.280028   5.168203   4.944339   3.774051   1.439607
    23  C    6.258518   6.587347   5.737957   4.312249   2.504689
    24  C    7.440675   7.595421   6.579933   5.186409   3.784255
    25  C    8.688210   8.936257   7.962410   6.557973   4.943788
    26  C    8.920743   9.377865   8.563583   7.137825   5.151379
    27  C    6.564864   7.175182   6.556888   5.161233   2.877046
    28  C    7.973910   8.604853   7.964805   6.557973   4.306729
    29  C    8.577045   9.388464   8.915062   7.551614   5.155142
    30  C    7.980451   8.958974   8.688044   7.413536   4.952764
    31  C    6.599835   7.623170   7.444012   6.235684   3.796729
    32  C    5.752328   6.603616   6.257718   4.976057   2.513975
    33  H    2.743204   2.149999   3.404580   4.618127   6.331180
    34  H    4.647515   3.402427   3.879176   5.304903   7.557405
    35  H    5.364691   3.903846   3.418087   4.603784   7.066365
    36  H    5.900716   4.624032   3.433474   3.902993   6.145005
    37  H    6.179081   5.330333   3.909654   3.424083   4.865632
    38  H    6.143041   5.840059   4.576588   3.387407   3.403232
    39  H    4.587738   5.873351   6.140329   5.298009   3.408516
    40  H    3.904911   5.365897   6.165466   5.850723   4.856574
    41  H    3.405388   4.646117   5.873515   6.145606   6.135239
    42  H    2.149734   2.736416   4.143327   4.905091   5.866628
    43  H    7.551236   7.496798   6.343036   5.029090   4.147574
    44  H    9.589014   9.731944   8.671031   7.300718   5.897480
    45  H    9.962623  10.451085   9.646163   8.220371   6.205664
    46  H    9.659687  10.460572   9.956109   8.578227   6.208870
    47  H    8.692244   9.761505   9.591488   8.362401   5.908326
    48  H    6.366585   7.535073   7.558621   6.481419   4.162972
                   21         22         23         24         25
    21  C    0.000000
    22  C    2.489590   0.000000
    23  C    1.471805   2.891169   0.000000
    24  C    2.503887   4.278626   1.389275   0.000000
    25  C    3.796808   5.141489   2.439694   1.401419   0.000000
    26  C    4.297225   4.958629   2.825651   2.404393   1.372336
    27  C    2.501266   2.501232   1.427424   2.422737   2.815448
    28  C    3.808354   3.808402   2.465645   2.794261   2.420406
    29  C    4.957979   4.297228   3.756674   4.208999   3.715746
    30  C    5.142040   3.797621   4.242865   5.041833   4.840821
    31  C    4.279768   2.505730   3.740935   4.845447   5.041337
    32  C    2.891445   1.472898   2.489658   3.740244   4.242142
    33  H    7.278371   7.002790   8.700193   9.739576  11.071365
    34  H    8.145038   8.548861   9.616327  10.407864  11.802440
    35  H    7.219456   8.330882   8.631611   9.138700  10.532175
    36  H    5.830599   7.561178   7.077559   7.292598   8.637507
    37  H    4.065980   6.285558   5.039900   4.996639   6.285386
    38  H    2.141973   4.625208   2.717911   2.610718   3.946055
    39  H    4.614297   2.131801   4.908027   6.270386   6.931537
    40  H    6.260290   4.047331   6.932036   8.316584   9.147125
    41  H    7.535173   5.822567   8.539041   9.884116  10.914731
    42  H    7.081842   6.139448   8.365192   9.576048  10.800712
    43  H    2.737655   4.929083   2.150473   1.082366   2.131729
    44  H    4.655080   6.195536   3.410834   2.152086   1.085956
    45  H    5.379758   5.915655   3.908299   3.392627   2.139576
    46  H    5.915283   5.379861   4.619229   4.828668   4.046385
    47  H    6.196409   4.656475   5.328608   6.103823   5.811348
    48  H    4.930211   2.739706   4.633285   5.826833   6.106632
                   26         27         28         29         30
    26  C    0.000000
    27  C    2.458214   0.000000
    28  C    1.416434   1.429704   0.000000
    29  C    2.464112   2.457531   1.414759   0.000000
    30  C    3.717622   2.816167   2.420449   1.373884   0.000000
    31  C    4.209951   2.423316   2.793587   2.404036   1.400350
    32  C    3.757212   1.427168   2.464961   2.824848   2.439519
    33  H   11.463959   9.191578  10.616700  11.293198  10.721900
    34  H   12.441932  10.402230  11.821151  12.705412  12.342199
    35  H   11.387617   9.680533  11.026860  12.111539  12.014912
    36  H    9.654598   8.321723   9.540009  10.771652  10.928865
    37  H    7.391738   6.405434   7.467716   8.789923   9.162990
    38  H    4.994467   4.130680   5.090312   6.442282   6.936018
    39  H    6.441954   4.127114   5.090529   4.999320   3.954447
    40  H    8.780206   6.392267   7.459709   7.390993   6.289454
    41  H   10.767042   8.315527   9.539761   9.664658   8.654833
    42  H   10.959685   8.552805   9.928753  10.384908   9.621557
    43  H    3.365899   3.413422   3.875979   5.290725   6.106464
    44  H    2.139502   3.901123   3.410103   4.600561   5.811682
    45  H    1.082721   3.433161   2.157412   2.679011   4.047563
    46  H    2.679471   3.432881   2.156605   1.082763   2.140128
    47  H    4.602035   3.901898   3.409863   2.140956   1.085955
    48  H    5.292490   3.414434   3.876082   3.366797   2.131482
                   31         32         33         34         35
    31  C    0.000000
    32  C    1.389856   0.000000
    33  H    9.340777   8.472024   0.000000
    34  H   11.018333   9.960193   2.437353   0.000000
    35  H   10.817968   9.578754   4.265451   2.473470   0.000000
    36  H    9.905160   8.556641   5.898188   4.751694   2.445189
    37  H    8.337280   6.951630   7.175769   6.718210   4.735965
    38  H    6.278016   4.915264   7.955371   8.186552   6.656456
    39  H    2.618447   2.716662   7.240324   9.222552   9.535254
    40  H    4.998054   5.030585   6.041787   8.342425   9.268382
    41  H    7.307658   7.078883   4.412133   6.848467   8.341899
    42  H    8.221398   7.586965   1.974477   4.411381   6.039058
    43  H    5.826497   4.632454   9.642308  10.059213   8.580065
    44  H    6.103420   5.327848  11.878853  12.451052  11.014250
    45  H    4.828798   4.619256  12.528877  13.524590  12.453231
    46  H    3.391782   3.907584  12.374656  13.764700  13.111221
    47  H    2.151688   3.411093  11.424996  13.159206  12.954265
    48  H    1.083215   2.151387   9.073897  10.927904  10.971197
                   36         37         38         39         40
    36  H    0.000000
    37  H    2.456702   0.000000
    38  H    4.694590   2.404976   0.000000
    39  H    9.200730   8.240320   6.740355   0.000000
    40  H    9.558153   9.200713   8.225584   2.398424   0.000000
    41  H    9.255236   9.544845   9.179576   4.703401   2.473593
    42  H    7.275365   8.042524   8.257500   5.851423   4.264173
    43  H    6.570238   4.182013   1.940273   7.009125   8.900886
    44  H    8.971539   6.545700   4.364008   8.013328  10.213760
    45  H   10.677856   8.373968   5.994660   7.233599   9.610184
    46  H   11.686656   9.617415   7.232538   6.000555   8.375304
    47  H   11.951548  10.230669   8.018245   4.376371   6.556678
    48  H   10.288680   8.924421   7.018232   1.955029   4.190000
                   41         42         43         44         45
    41  H    0.000000
    42  H    2.437946   0.000000
    43  H   10.261554   9.698467   0.000000
    44  H   11.934733  11.720014   2.435033   0.000000
    45  H   11.685380  11.979002   4.262546   2.478892   0.000000
    46  H   10.690230  11.461620   5.886605   4.749129   2.437412
    47  H    8.997497  10.192526   7.174608   6.733269   4.749786
    48  H    6.593414   7.771685   6.764666   7.174896   5.887647
                   46         47         48
    46  H    0.000000
    47  H    2.479171   0.000000
    48  H    4.262811   2.435310   0.000000
 Stoichiometry    C32H16
 Framework group  C1[X(C32H16)]
 Deg. of freedom   138
 Full point group                 C1      NOp   1
 Largest Abelian subgroup         C1      NOp   1
 Largest concise Abelian subgroup C1      NOp   1
                         Standard orientation:                         
 ---------------------------------------------------------------------
 Center     Atomic      Atomic             Coordinates (Angstroms)
 Number     Number       Type             X           Y           Z
 ---------------------------------------------------------------------
      1          6           0       -5.048975    0.484693    0.001577
      2          6           0       -5.822539   -0.670977    0.034569
      3          6           0       -5.223223   -1.915598    0.059190
      4          6           0       -3.828259   -2.027896    0.058895
      5          6           0       -3.183554   -3.304062    0.083519
      6          6           0       -1.833340   -3.406988    0.075159
      7          6           0       -1.006729   -2.240997    0.042148
      8          6           0        0.389937   -2.339057    0.025703
      9          6           0        0.835108    2.471948   -0.033050
     10          6           0       -0.572626    2.632123   -0.056988
     11          6           0       -1.159252    3.907327   -0.097769
     12          6           0       -2.531756    4.039236   -0.113632
     13          6           0       -3.349014    2.912385   -0.080641
     14          6           0       -0.785359    0.192240    0.000652
     15          6           0       -1.401579    1.478939   -0.032055
     16          6           0       -2.815860    1.623699   -0.039841
     17          6           0       -3.655526    0.428392   -0.006815
     18          6           0       -3.031222   -0.847434    0.025886
     19          6           0       -1.610234   -0.964900    0.017515
     20          6           0        0.627182    0.064366    0.000359
     21          6           0        1.217720   -1.231390   -0.015353
     22          6           0        1.447336    1.247481    0.007701
     23          6           0        2.682588   -1.365536   -0.064086
     24          6           0        3.307440   -2.601240   -0.176694
     25          6           0        4.703132   -2.726732   -0.193127
     26          6           0        5.497306   -1.611678   -0.096959
     27          6           0        3.492778   -0.192056   -0.000235
     28          6           0        4.916350   -0.324101    0.007543
     29          6           0        5.723530    0.833810    0.103687
     30          6           0        5.147852    2.076881    0.208208
     31          6           0        3.754054    2.210058    0.184279
     32          6           0        2.912372    1.109759    0.071974
     33          1           0       -5.552777    1.439763   -0.014867
     34          1           0       -6.901771   -0.589417    0.042872
     35          1           0       -5.825021   -2.815843    0.083955
     36          1           0       -3.803875   -4.191827    0.108282
     37          1           0       -1.354284   -4.378414    0.099688
     38          1           0        0.811134   -3.333633    0.042185
     39          1           0        1.423122    3.378137   -0.057814
     40          1           0       -0.520613    4.781757   -0.122532
     41          1           0       -2.982264    5.023354   -0.146245
     42          1           0       -4.419280    3.054793   -0.088511
     43          1           0        2.720367   -3.507018   -0.256862
     44          1           0        5.146450   -3.714125   -0.281585
     45          1           0        6.576597   -1.697796   -0.097188
     46          1           0        6.800302    0.720336    0.111543
     47          1           0        5.765584    2.965655    0.296448
     48          1           0        3.342491    3.208130    0.272725
 ---------------------------------------------------------------------
 Rotational constants (GHZ):      0.2820664      0.1074087      0.0778654
 Leave Link  202 at Tue Jul 23 18:47:23 2019, MaxMem=  4194304000 cpu:         1.4
 (Enter /home/minenky/programs//g09/l301.exe)
 Standard basis: def2TZVP (5D, 7F)
 ======================================================================================================
                                       Pseudopotential Parameters
 ======================================================================================================
  Center     Atomic      Valence      Angular      Power
  Number     Number     Electrons     Momentum     of R      Exponent        Coefficient   SO-Coeffient
 ======================================================================================================
    1          6
                                   No pseudopotential on this center.
    2          6
                                   No pseudopotential on this center.
    3          6
                                   No pseudopotential on this center.
    4          6
                                   No pseudopotential on this center.
    5          6
                                   No pseudopotential on this center.
    6          6
                                   No pseudopotential on this center.
    7          6
                                   No pseudopotential on this center.
    8          6
                                   No pseudopotential on this center.
    9          6
                                   No pseudopotential on this center.
   10          6
                                   No pseudopotential on this center.
   11          6
                                   No pseudopotential on this center.
   12          6
                                   No pseudopotential on this center.
   13          6
                                   No pseudopotential on this center.
   14          6
                                   No pseudopotential on this center.
   15          6
                                   No pseudopotential on this center.
   16          6
                                   No pseudopotential on this center.
   17          6
                                   No pseudopotential on this center.
   18          6
                                   No pseudopotential on this center.
   19          6
                                   No pseudopotential on this center.
   20          6
                                   No pseudopotential on this center.
   21          6
                                   No pseudopotential on this center.
   22          6
                                   No pseudopotential on this center.
   23          6
                                   No pseudopotential on this center.
   24          6
                                   No pseudopotential on this center.
   25          6
                                   No pseudopotential on this center.
   26          6
                                   No pseudopotential on this center.
   27          6
                                   No pseudopotential on this center.
   28          6
                                   No pseudopotential on this center.
   29          6
                                   No pseudopotential on this center.
   30          6
                                   No pseudopotential on this center.
   31          6
                                   No pseudopotential on this center.
   32          6
                                   No pseudopotential on this center.
   33          1
                                   No pseudopotential on this center.
   34          1
                                   No pseudopotential on this center.
   35          1
                                   No pseudopotential on this center.
   36          1
                                   No pseudopotential on this center.
   37          1
                                   No pseudopotential on this center.
   38          1
                                   No pseudopotential on this center.
   39          1
                                   No pseudopotential on this center.
   40          1
                                   No pseudopotential on this center.
   41          1
                                   No pseudopotential on this center.
   42          1
                                   No pseudopotential on this center.
   43          1
                                   No pseudopotential on this center.
   44          1
                                   No pseudopotential on this center.
   45          1
                                   No pseudopotential on this center.
   46          1
                                   No pseudopotential on this center.
   47          1
                                   No pseudopotential on this center.
   48          1
                                   No pseudopotential on this center.
 ======================================================================================================
 Ernie: Thresh=  0.10000D-02 Tol=  0.10000D-05 Strict=F.
 AO basis set (Overlap normalization):
 Atom C1       Shell     1 S   6     bf    1 -     1         -9.541179397142          0.915936153071          0.002979812234
      0.1357534968D+05  0.6064550360D-03
      0.2035233368D+04  0.4697908888D-02
      0.4632256236D+03  0.2433247765D-01
      0.1312001960D+03  0.9739996831D-01
      0.4285301589D+02  0.3019558425D+00
      0.1558418577D+02  0.6623360914D+00
 Atom C1       Shell     2 S   2     bf    2 -     2         -9.541179397142          0.915936153071          0.002979812234
      0.6206713851D+01  0.6559530854D+00
      0.2576489653D+01  0.3758563329D+00
 Atom C1       Shell     3 S   1     bf    3 -     3         -9.541179397142          0.915936153071          0.002979812234
      0.5769633942D+00  0.1000000000D+01
 Atom C1       Shell     4 S   1     bf    4 -     4         -9.541179397142          0.915936153071          0.002979812234
      0.2297283136D+00  0.1000000000D+01
 Atom C1       Shell     5 S   1     bf    5 -     5         -9.541179397142          0.915936153071          0.002979812234
      0.9516444003D-01  0.1000000000D+01
 Atom C1       Shell     6 P   4     bf    6 -     8         -9.541179397142          0.915936153071          0.002979812234
      0.3469723224D+02  0.1132722000D-01
      0.7958262283D+01  0.7616965920D-01
      0.2378082688D+01  0.3019225220D+00
      0.8143320818D+00  0.7278502735D+00
 Atom C1       Shell     7 P   1     bf    9 -    11         -9.541179397142          0.915936153071          0.002979812234
      0.2888754725D+00  0.1000000000D+01
 Atom C1       Shell     8 P   1     bf   12 -    14         -9.541179397142          0.915936153071          0.002979812234
      0.1005682367D+00  0.1000000000D+01
 Atom C1       Shell     9 D   1     bf   15 -    19         -9.541179397142          0.915936153071          0.002979812234
      0.1097000000D+01  0.1000000000D+01
 Atom C1       Shell    10 D   1     bf   20 -    24         -9.541179397142          0.915936153071          0.002979812234
      0.3180000000D+00  0.1000000000D+01
 Atom C1       Shell    11 F   1     bf   25 -    31         -9.541179397142          0.915936153071          0.002979812234
      0.7610000000D+00  0.1000000000D+01
 Atom C2       Shell    12 S   6     bf   32 -    32        -11.003003834633         -1.267962422587          0.065326714689
      0.1357534968D+05  0.6064550360D-03
      0.2035233368D+04  0.4697908888D-02
      0.4632256236D+03  0.2433247765D-01
      0.1312001960D+03  0.9739996831D-01
      0.4285301589D+02  0.3019558425D+00
      0.1558418577D+02  0.6623360914D+00
 Atom C2       Shell    13 S   2     bf   33 -    33        -11.003003834633         -1.267962422587          0.065326714689
      0.6206713851D+01  0.6559530854D+00
      0.2576489653D+01  0.3758563329D+00
 Atom C2       Shell    14 S   1     bf   34 -    34        -11.003003834633         -1.267962422587          0.065326714689
      0.5769633942D+00  0.1000000000D+01
 Atom C2       Shell    15 S   1     bf   35 -    35        -11.003003834633         -1.267962422587          0.065326714689
      0.2297283136D+00  0.1000000000D+01
 Atom C2       Shell    16 S   1     bf   36 -    36        -11.003003834633         -1.267962422587          0.065326714689
      0.9516444003D-01  0.1000000000D+01
 Atom C2       Shell    17 P   4     bf   37 -    39        -11.003003834633         -1.267962422587          0.065326714689
      0.3469723224D+02  0.1132722000D-01
      0.7958262283D+01  0.7616965920D-01
      0.2378082688D+01  0.3019225220D+00
      0.8143320818D+00  0.7278502735D+00
 Atom C2       Shell    18 P   1     bf   40 -    42        -11.003003834633         -1.267962422587          0.065326714689
      0.2888754725D+00  0.1000000000D+01
 Atom C2       Shell    19 P   1     bf   43 -    45        -11.003003834633         -1.267962422587          0.065326714689
      0.1005682367D+00  0.1000000000D+01
 Atom C2       Shell    20 D   1     bf   46 -    50        -11.003003834633         -1.267962422587          0.065326714689
      0.1097000000D+01  0.1000000000D+01
 Atom C2       Shell    21 D   1     bf   51 -    55        -11.003003834633         -1.267962422587          0.065326714689
      0.3180000000D+00  0.1000000000D+01
 Atom C2       Shell    22 F   1     bf   56 -    62        -11.003003834633         -1.267962422587          0.065326714689
      0.7610000000D+00  0.1000000000D+01
 Atom C3       Shell    23 S   6     bf   63 -    63         -9.870461180395         -3.619955743288          0.111853252118
      0.1357534968D+05  0.6064550360D-03
      0.2035233368D+04  0.4697908888D-02
      0.4632256236D+03  0.2433247765D-01
      0.1312001960D+03  0.9739996831D-01
      0.4285301589D+02  0.3019558425D+00
      0.1558418577D+02  0.6623360914D+00
 Atom C3       Shell    24 S   2     bf   64 -    64         -9.870461180395         -3.619955743288          0.111853252118
      0.6206713851D+01  0.6559530854D+00
      0.2576489653D+01  0.3758563329D+00
 Atom C3       Shell    25 S   1     bf   65 -    65         -9.870461180395         -3.619955743288          0.111853252118
      0.5769633942D+00  0.1000000000D+01
 Atom C3       Shell    26 S   1     bf   66 -    66         -9.870461180395         -3.619955743288          0.111853252118
      0.2297283136D+00  0.1000000000D+01
 Atom C3       Shell    27 S   1     bf   67 -    67         -9.870461180395         -3.619955743288          0.111853252118
      0.9516444003D-01  0.1000000000D+01
 Atom C3       Shell    28 P   4     bf   68 -    70         -9.870461180395         -3.619955743288          0.111853252118
      0.3469723224D+02  0.1132722000D-01
      0.7958262283D+01  0.7616965920D-01
      0.2378082688D+01  0.3019225220D+00
      0.8143320818D+00  0.7278502735D+00
 Atom C3       Shell    29 P   1     bf   71 -    73         -9.870461180395         -3.619955743288          0.111853252118
      0.2888754725D+00  0.1000000000D+01
 Atom C3       Shell    30 P   1     bf   74 -    76         -9.870461180395         -3.619955743288          0.111853252118
      0.1005682367D+00  0.1000000000D+01
 Atom C3       Shell    31 D   1     bf   77 -    81         -9.870461180395         -3.619955743288          0.111853252118
      0.1097000000D+01  0.1000000000D+01
 Atom C3       Shell    32 D   1     bf   82 -    86         -9.870461180395         -3.619955743288          0.111853252118
      0.3180000000D+00  0.1000000000D+01
 Atom C3       Shell    33 F   1     bf   87 -    93         -9.870461180395         -3.619955743288          0.111853252118
      0.7610000000D+00  0.1000000000D+01
 Atom C4       Shell    34 S   6     bf   94 -    94         -7.234361085565         -3.832168076281          0.111295437276
      0.1357534968D+05  0.6064550360D-03
      0.2035233368D+04  0.4697908888D-02
      0.4632256236D+03  0.2433247765D-01
      0.1312001960D+03  0.9739996831D-01
      0.4285301589D+02  0.3019558425D+00
      0.1558418577D+02  0.6623360914D+00
 Atom C4       Shell    35 S   2     bf   95 -    95         -7.234361085565         -3.832168076281          0.111295437276
      0.6206713851D+01  0.6559530854D+00
      0.2576489653D+01  0.3758563329D+00
 Atom C4       Shell    36 S   1     bf   96 -    96         -7.234361085565         -3.832168076281          0.111295437276
      0.5769633942D+00  0.1000000000D+01
 Atom C4       Shell    37 S   1     bf   97 -    97         -7.234361085565         -3.832168076281          0.111295437276
      0.2297283136D+00  0.1000000000D+01
 Atom C4       Shell    38 S   1     bf   98 -    98         -7.234361085565         -3.832168076281          0.111295437276
      0.9516444003D-01  0.1000000000D+01
 Atom C4       Shell    39 P   4     bf   99 -   101         -7.234361085565         -3.832168076281          0.111295437276
      0.3469723224D+02  0.1132722000D-01
      0.7958262283D+01  0.7616965920D-01
      0.2378082688D+01  0.3019225220D+00
      0.8143320818D+00  0.7278502735D+00
 Atom C4       Shell    40 P   1     bf  102 -   104         -7.234361085565         -3.832168076281          0.111295437276
      0.2888754725D+00  0.1000000000D+01
 Atom C4       Shell    41 P   1     bf  105 -   107         -7.234361085565         -3.832168076281          0.111295437276
      0.1005682367D+00  0.1000000000D+01
 Atom C4       Shell    42 D   1     bf  108 -   112         -7.234361085565         -3.832168076281          0.111295437276
      0.1097000000D+01  0.1000000000D+01
 Atom C4       Shell    43 D   1     bf  113 -   117         -7.234361085565         -3.832168076281          0.111295437276
      0.3180000000D+00  0.1000000000D+01
 Atom C4       Shell    44 F   1     bf  118 -   124         -7.234361085565         -3.832168076281          0.111295437276
      0.7610000000D+00  0.1000000000D+01
 Atom C5       Shell    45 S   6     bf  125 -   125         -6.016044509574         -6.243772735716          0.157827286502
      0.1357534968D+05  0.6064550360D-03
      0.2035233368D+04  0.4697908888D-02
      0.4632256236D+03  0.2433247765D-01
      0.1312001960D+03  0.9739996831D-01
      0.4285301589D+02  0.3019558425D+00
      0.1558418577D+02  0.6623360914D+00
 Atom C5       Shell    46 S   2     bf  126 -   126         -6.016044509574         -6.243772735716          0.157827286502
      0.6206713851D+01  0.6559530854D+00
      0.2576489653D+01  0.3758563329D+00
 Atom C5       Shell    47 S   1     bf  127 -   127         -6.016044509574         -6.243772735716          0.157827286502
      0.5769633942D+00  0.1000000000D+01
 Atom C5       Shell    48 S   1     bf  128 -   128         -6.016044509574         -6.243772735716          0.157827286502
      0.2297283136D+00  0.1000000000D+01
 Atom C5       Shell    49 S   1     bf  129 -   129         -6.016044509574         -6.243772735716          0.157827286502
      0.9516444003D-01  0.1000000000D+01
 Atom C5       Shell    50 P   4     bf  130 -   132         -6.016044509574         -6.243772735716          0.157827286502
      0.3469723224D+02  0.1132722000D-01
      0.7958262283D+01  0.7616965920D-01
      0.2378082688D+01  0.3019225220D+00
      0.8143320818D+00  0.7278502735D+00
 Atom C5       Shell    51 P   1     bf  133 -   135         -6.016044509574         -6.243772735716          0.157827286502
      0.2888754725D+00  0.1000000000D+01
 Atom C5       Shell    52 P   1     bf  136 -   138         -6.016044509574         -6.243772735716          0.157827286502
      0.1005682367D+00  0.1000000000D+01
 Atom C5       Shell    53 D   1     bf  139 -   143         -6.016044509574         -6.243772735716          0.157827286502
      0.1097000000D+01  0.1000000000D+01
 Atom C5       Shell    54 D   1     bf  144 -   148         -6.016044509574         -6.243772735716          0.157827286502
      0.3180000000D+00  0.1000000000D+01
 Atom C5       Shell    55 F   1     bf  149 -   155         -6.016044509574         -6.243772735716          0.157827286502
      0.7610000000D+00  0.1000000000D+01
 Atom C6       Shell    56 S   6     bf  156 -   156         -3.464509594235         -6.438274474274          0.142029276007
      0.1357534968D+05  0.6064550360D-03
      0.2035233368D+04  0.4697908888D-02
      0.4632256236D+03  0.2433247765D-01
[...]
 .00000022,-0.00000418,-0.00000820,-0.00000051,-0.00001152,-0.00000295,
 -0.00000026,0.00001250,-0.00001078,-0.00000044,0.00002402,0.00003547,-
 0.00000436,-0.00004739,-0.00007386,-0.00001004,-0.00002198,-0.00006296
 ,0.00000266,0.00001862,0.00001269,0.00000093,-0.00000740,-0.00001566,-
 0.00000051,0.00000556,-0.00000508,0.00000049,0.00000472,-0.00000767,-0
 .00000053,0.00001103,-0.00000059,0.00000256,-0.00000740,-0.00001527,0.
 00000080,0.00000579,0.00000716,0.00000112,0.00000457,-0.00000389,-0.00
 000071,0.00000005,0.00000771,0.00000125,0.00001259,-0.00001124,-0.0000
 0028,0.00000006,-0.00003446,-0.00000081,0.00001753,0.00000855,-0.00001
 709,0.00017391,0.00006334,-0.00001288,-0.00020315,0.00052620,-0.000010
 19,-0.00390978,-0.00044029,0.00051523,0.00707060,-0.01557516,-0.000342
 39,0.05093291,-0.33028908,0.00023422,0.00170055,0.00120684,-0.00006146
 ,-0.00052940,-0.00743544,0.00018063,-0.00183197,0.00094706,0.00009618,
 0.00040649,-0.00003068,-0.00003364,0.00007317,0.00034170,-0.00001497,-
 0.00059538,-0.00050765,0.00005568,0.00000266,0.00000056,-0.00000017,0.
 00000088,-0.00000378,0.,-0.00000301,-0.00000151,-0.00000005,-0.0000012
 7,-0.00000536,0.,0.00000082,0.00000615,0.00000065,0.00005054,0.0000516
 7,0.00001299,-0.00000006,0.00001336,-0.00000177,0.00000027,0.00000398,
 -0.00000015,0.00000392,-0.00000310,0.00000013,0.00000070,-0.00000352,0
 .00000016,0.00031113,-0.00087797,-0.00003859,-0.00032686,0.00079360,-0
 .00006171,-0.05404105,0.35095937,-0.00000272,-0.00000553,0.00000918,0.
 00000579,0.00000066,-0.00000389,-0.00000390,0.00000484,0.00000267,0.00
 000599,-0.00000541,-0.00000900,-0.00000526,0.00000617,-0.00000199,-0.0
 0000262,-0.00000961,-0.00000136,-0.00002675,0.00002941,-0.00006803,0.0
 0005997,-0.00003052,0.00004867,-0.00001904,-0.00000563,-0.00000940,0.0
 0001545,-0.00001640,-0.00010765,-0.00000870,0.00000637,-0.00000264,-0.
 00000167,-0.00000954,0.00001592,0.00000853,0.00000292,-0.00001314,-0.0
 0002095,-0.00001782,0.00007292,0.00000620,-0.00000373,-0.00000894,-0.0
 0000935,0.00000308,0.00002823,0.00000172,0.00000558,-0.00002220,-0.000
 00148,-0.00000307,0.00003608,0.00002769,0.00001007,-0.00002880,-0.0000
 3025,0.00002927,0.00003858,-0.00006618,-0.00004722,-0.00100621,0.00007
 604,0.00002060,0.00025684,0.00021429,0.00009739,-0.00113282,0.00109679
 ,0.00038562,0.00867559,-0.00066636,0.00223323,0.00359965,0.00239624,0.
 00023298,-0.03613845,0.00063561,-0.00031374,0.00521319,0.00000716,-0.0
 0195030,0.00285441,-0.00029828,-0.00024853,-0.00291792,-0.00003774,0.0
 0003866,-0.00014278,-0.00002142,-0.00003182,-0.00007344,0.00001604,-0.
 00012363,0.00000711,-0.00000001,0.00000005,-0.00000264,0.00000004,0.00
 000010,0.00000072,-0.00000005,-0.00000008,0.00000065,-0.00000007,0.000
 00004,0.00000081,-0.00000126,-0.00000105,0.00000276,-0.00001854,-0.000
 01662,0.00011723,-0.00000322,0.00000105,0.00005073,-0.00000016,0.00000
 011,-0.00000293,-0.00000022,-0.00000029,0.00000107,0.00000010,-0.00000
 005,0.00000138,-0.00002678,0.00017371,-0.00002301,-0.00050163,-0.00009
 996,-0.00481005,-0.00288111,-0.00043382,0.02504868,0.00000367,0.000003
 16,0.00000118,0.00000133,-0.00000066,-0.00000046,0.00000033,0.00000322
 ,0.00000035,0.00000262,0.00000168,-0.00000109,-0.00000333,0.00000326,0
 .00000099,-0.00000044,-0.00001179,-0.00000053,-0.00003593,-0.00000204,
 -0.00000833,0.00006333,-0.00012350,-0.00000534,-0.00007174,0.00004254,
 -0.00002098,0.00007769,-0.00003974,0.00000007,-0.00001081,0.00001575,-
 0.00000079,0.00000334,-0.00001041,-0.00000103,0.00000770,0.00001632,-0
 .00000042,0.00000738,0.00003229,0.00000495,0.00000424,0.00001506,-0.00
 000040,-0.00000498,0.00000321,0.00000108,-0.00000646,-0.00000101,-0.00
 000218,0.00000764,0.00000016,0.00000303,0.00000721,0.00000268,-0.00000
 125,-0.00006843,0.00003626,-0.00000083,-0.00031983,-0.00008084,0.00003
 175,0.00009217,0.00007431,-0.00009327,0.00040048,-0.00114250,-0.000021
 66,0.00021187,-0.00025640,-0.00002169,0.00017150,0.00055304,-0.0000376
 9,0.00110847,-0.00172509,-0.00028991,-0.00338202,-0.00228064,0.0007496
 8,0.00799584,-0.02303367,0.00012030,-0.07114716,0.05543083,0.00177861,
 -0.00056919,0.03094058,-0.00045962,-0.00516526,0.00099563,0.00121508,-
 0.00110397,-0.00039004,-0.00000367,-0.00000114,-0.00000206,-0.00000023
 ,0.00000007,0.00000198,0.00000006,0.00000149,0.00000076,0.00000007,0.0
 0000108,0.00000015,0.,0.00000160,-0.00000023,0.00000008,0.00000047,0.0
 0000307,0.00000299,0.00008408,-0.00001324,0.00002293,0.00000631,-0.000
 00452,0.00000123,-0.00000305,0.00000269,0.00000001,0.00000006,0.000002
 50,0.00000065,-0.00002439,0.00004979,0.00000804,0.00000579,0.00001447,
 0.00001390,-0.00057348,0.00060574,0.00006174,0.07167272,-0.00000044,-0
 .00000304,0.00000009,-0.00000018,-0.00000280,-0.00000004,0.00000460,-0
 .00000098,0.00000004,-0.00000607,-0.00000484,-0.00000018,-0.00001070,-
 0.00000773,-0.00000022,0.00002235,-0.00001337,0.00000090,-0.00003556,-
 0.00000229,-0.00000498,0.00007727,-0.00010621,-0.00000578,0.00004507,-
 0.00002986,0.00000320,-0.00001079,0.00000981,0.00000420,-0.00000018,-0
 .00001016,0.00000030,0.00000929,-0.00000150,-0.00000028,0.00000025,-0.
 00000146,0.00000002,-0.00000952,0.00001283,-0.00000017,-0.00000861,-0.
 00001571,0.00000040,-0.00000015,0.00000628,-0.00000014,0.00000597,-0.0
 0000737,-0.00000014,-0.00000566,0.00000717,0.00000035,0.00000470,-0.00
 000739,-0.00000119,-0.00000363,-0.00002224,0.00000218,-0.00034153,-0.0
 0004695,0.00002737,0.00000129,0.00002912,-0.00002739,0.00097717,-0.000
 73731,-0.00006281,-0.00012628,0.00020705,0.00000608,-0.00031939,0.0000
 2822,0.00001896,0.00191314,0.00100764,-0.00024377,-0.00359939,-0.00044
 272,0.00039467,0.00690210,-0.01671702,-0.00008868,0.05551109,-0.328346
 68,0.00210299,-0.00087795,-0.00572527,0.00030786,0.00194533,0.00158659
 ,-0.00002721,-0.00046179,0.00045540,0.00000138,0.00000226,-0.00000004,
 -0.00000001,0.00000067,-0.00000319,-0.00000001,-0.00000252,-0.00000147
 ,-0.00000002,-0.00000101,-0.00000522,-0.00000010,-0.00000203,0.0000031
 5,0.00000011,-0.00000544,0.00001579,0.00000307,-0.00003260,0.00001193,
 -0.00000393,-0.00000151,0.00000413,-0.00000025,0.00000316,-0.00000246,
 0.00000008,0.00000049,-0.00000361,0.00000011,-0.00005160,0.00004471,0.
 00000760,-0.00004962,-0.00003084,0.00000910,-0.00101695,0.00042576,0.0
 0008032,-0.06074026,0.34809818,-0.00000149,-0.00000292,0.00000994,0.00
 000290,0.00000054,-0.00000338,-0.00000222,0.00000248,0.00000103,0.0000
 0366,-0.00000300,-0.00000874,-0.00000218,0.00000411,0.00000654,-0.0000
 0327,-0.00000371,-0.00000344,0.,0.00002112,-0.00007062,-0.00001941,-0.
 00000522,-0.00001291,0.00006391,0.00005630,0.00005514,-0.00000657,-0.0
 0003023,-0.00005781,-0.00000969,0.00001099,0.00000311,-0.00000376,-0.0
 0001105,-0.00000589,0.00001048,0.00000316,-0.00001535,-0.00002506,-0.0
 0000158,0.00004547,0.00002116,-0.00000697,-0.00002115,-0.00001008,0.00
 000564,0.00002891,0.00000087,0.00000285,-0.00002503,-0.00000039,-0.000
 00258,0.00003047,0.00001232,0.00000446,-0.00001214,-0.00000674,-0.0000
 2306,0.00002840,0.00007257,0.00001955,0.00023386,-0.00010878,0.0000254
 2,-0.00099336,-0.00003496,0.00011037,0.00002781,-0.00003299,0.00002330
 ,-0.00007760,-0.00002137,-0.00005399,-0.00013758,-0.00037539,0.0000931
 1,-0.00296454,0.00048743,0.00056292,0.00526582,-0.00076148,0.00192379,
 0.00289272,0.00198726,0.00222220,-0.03621539,0.00027467,-0.00231619,0.
 00360479,0.00117030,0.00012410,0.00860942,0.00021874,-0.00003774,-0.00
 112505,0.00000007,0.00000024,-0.00000241,0.00000002,-0.00000003,0.0000
 0051,-0.00000010,-0.00000007,0.00000071,-0.00000016,0.00000016,0.00000
 059,-0.00000023,-0.00000018,0.00000106,-0.00000201,-0.00000173,0.00003
 510,-0.00002427,0.00000805,0.00013012,-0.00000172,0.00000050,0.0000021
 3,-0.00000014,-0.00000007,0.00000089,-0.00000020,-0.00000015,0.0000082
 5,0.00000754,-0.00000399,0.00003837,0.00001520,0.00000056,0.00016914,0
 .00009343,-0.00005240,0.00024120,-0.00252408,-0.00237025,0.02509526,-0
 .00000250,-0.00000164,-0.00000022,-0.00000085,-0.00000540,-0.00000008,
 0.00000485,-0.00000086,-0.00000006,-0.00000606,-0.00000475,-0.00000012
 ,0.00000176,-0.00000803,-0.00000013,0.00001443,-0.00000022,0.00000009,
 0.00001261,-0.00000420,-0.00000158,0.00001893,-0.00001068,-0.00000136,
 0.00000741,-0.00006001,0.00003036,-0.00002352,0.00002785,-0.00000967,0
 .00000819,-0.00001331,0.00000123,-0.00000624,0.00000558,-0.00000023,-0
 .00000082,-0.00001621,-0.00000049,0.00003631,0.00000405,-0.00000318,-0
 .00000838,-0.00001060,0.00000116,0.00001240,-0.00000371,0.00000100,0.0
 0000148,-0.00000408,-0.00000027,-0.00000238,0.00001311,0.00000025,-0.0
 0001950,-0.00000830,0.00000264,-0.00001642,0.00007146,-0.00001351,-0.0
 0008185,0.00000527,0.00000804,0.00032718,0.00017598,-0.00003446,0.0003
 3587,0.00001487,-0.00010375,-0.00008106,0.00028390,0.00000945,-0.00059
 859,0.00002444,-0.00001083,-0.00018343,-0.00136802,0.00002945,-0.00038
 249,0.00066846,-0.00006118,-0.00413260,0.00356760,0.00112394,-0.017234
 89,-0.02238246,0.00236528,-0.22089927,-0.13809813,0.02008926,0.0081101
 1,0.00643403,-0.00076385,0.00098614,0.00206547,0.00036106,0.00000239,0
 .00000114,0.00000014,0.00000043,-0.00000295,0.00000006,-0.00000261,-0.
 00000150,-0.00000002,-0.00000157,-0.00000366,0.00000006,-0.00000134,0.
 00000274,0.00000024,0.00000322,0.00000788,0.00000196,-0.00002234,0.000
 00278,-0.00000287,-0.00000161,0.00000355,-0.00000033,0.00000392,-0.000
 00206,0.00000031,-0.00000022,-0.00000262,0.00000019,-0.00001345,-0.000
 01449,0.00001133,-0.00011330,-0.00010283,0.00001418,-0.00001185,0.0000
 5766,0.00001447,0.00081762,0.00035769,-0.00050942,0.23230289,-0.000003
 94,-0.00000961,-0.00000058,0.00000453,-0.00000055,-0.00000002,-0.00000
 350,0.00000145,-0.00000015,0.00000192,-0.00001290,0.00000019,-0.000010
 39,-0.00000245,-0.00000061,0.00001045,-0.00000660,-0.00000017,-0.00000
 876,0.00002580,0.00000151,-0.00002837,-0.00001766,0.00000160,-0.000040
 60,-0.00005083,-0.00002467,0.00003884,0.00007032,0.00000258,-0.0000264
 6,-0.00005430,-0.00000321,0.00000054,-0.00000685,-0.00000014,0.0000199
 4,-0.00003996,0.00000074,-0.00015510,-0.00005082,-0.00000300,0.0000015
 6,-0.00003035,-0.00000058,0.00001241,0.00002895,0.00000022,0.00000829,
 0.00000575,0.00000140,-0.00002399,-0.00000076,-0.00000230,0.00004209,-
 0.00003230,0.00000053,0.00030654,-0.00040766,0.00000740,0.00006931,0.0
 0004186,-0.00000126,-0.00145244,-0.00021984,0.00011991,-0.00035656,-0.
 00003784,0.00000178,0.00017672,-0.00024759,-0.00000726,0.00020332,0.00
 026112,-0.00003965,-0.00009452,0.00039968,0.00002031,0.00117285,-0.000
 12305,-0.00010401,0.00289498,0.00009092,0.00000721,0.00946013,0.010863
 18,-0.00100406,-0.13833810,-0.17955878,0.01600849,-0.02505246,-0.01483
 709,0.00269350,0.00256619,-0.00481502,0.00020499,0.00000273,0.00000242
 ,0.00000033,0.00000025,-0.00000384,0.00000007,-0.00000286,-0.00000218,
 0.00000004,-0.00000179,-0.00000345,0.00000010,-0.00000416,0.00000105,0
 .00000010,-0.00001152,-0.00000629,-0.00000251,0.00001170,-0.00000772,0
 .00001121,0.00000770,0.00000571,0.00000191,0.00000707,-0.00000935,0.00
 000071,0.00000246,-0.00000276,0.00000007,-0.00000975,-0.00000242,0.000
 00520,0.00004167,0.00003586,-0.00000782,-0.00000670,-0.00001336,0.0000
 0610,-0.00039113,0.00076048,-0.00012390,0.14868704,0.18718881,-0.00000
 012,-0.00000072,-0.00000192,0.00000052,0.00000104,-0.00000037,-0.00000
 123,0.00000023,-0.00000107,0.00000122,-0.00000035,0.00000078,-0.000001
 06,0.00000158,-0.00000039,-0.00000171,-0.00000124,-0.00000446,-0.00000
 278,0.00000527,-0.00002157,-0.00000528,-0.00000984,0.00003178,-0.00001
 510,0.00002566,0.00007453,0.00000339,0.00000079,-0.00002731,0.00000127
 ,0.00000265,-0.00000117,-0.00000120,-0.00000169,-0.00000458,0.00000197
 ,0.00000058,-0.00000028,-0.00000765,0.00000120,-0.00003483,0.00000278,
 -0.00000267,0.00000037,-0.00000204,0.00000303,0.00000015,0.00000074,0.
 00000177,0.00000062,0.00000021,-0.00000244,-0.00000221,0.00000334,0.00
 000091,0.00003701,0.00000897,-0.00000479,-0.00017987,0.00001044,0.0000
 1131,0.00003451,-0.00001288,0.00002696,0.00014298,-0.00014362,-0.00003
 526,-0.00081197,0.00006563,-0.00008139,0.00008430,0.00003122,0.0000598
 9,-0.00066850,-0.00008118,0.00012289,0.00013506,0.00004886,-0.00012385
 ,-0.00085007,0.00118792,-0.00014065,0.00933351,0.00129632,0.00174539,0
 .00313229,0.02026755,0.01574299,-0.03963290,0.00030670,0.00040209,0.00
 209301,0.00007043,0.00007884,0.00615308,-0.00000032,0.00000006,0.00000
 129,-0.00000004,0.00000019,0.00000082,0.00000015,0.00000010,0.00000015
 ,0.00000003,0.00000025,0.00000169,-0.00000022,-0.00000021,0.00000100,-
 0.00000044,-0.00000057,0.00000348,0.00000686,0.00001261,0.00002179,-0.
 00000120,-0.00000011,0.00000796,-0.00000059,0.00000063,0.00000271,-0.0
 0000011,-0.00000009,0.00000115,0.00001176,0.00000031,0.00010575,0.0000
 1041,0.00001263,-0.00002404,0.00001577,-0.00000267,0.00016563,-0.00046
 927,-0.00015765,-0.00476967,-0.02225822,-0.01760065,0.02848640,0.00000
 918,0.00001224,-0.00000057,0.00000409,-0.00001591,-0.00000070,0.000008
 37,0.00001280,0.00000061,0.00000313,-0.00000910,-0.00000278,0.00001597
 ,0.00000616,0.00000247,-0.00000804,-0.00001096,-0.00000294,0.00003820,
 0.00003313,0.00000214,0.00003770,-0.00007868,-0.00000634,-0.00021693,0
 .00120496,-0.00026225,0.00076466,0.00006467,-0.00009256,0.00002652,-0.
 00000910,0.00000749,-0.00003871,-0.00002497,-0.00000828,0.00004465,-0.
 00000949,0.00000435,-0.00009529,0.00008332,-0.00000752,-0.00003479,0.0
 0016896,0.00002670,0.00005831,0.00003570,0.00000780,-0.00002697,0.0000
 0628,0.00000086,0.00001107,0.00002383,0.00000650,0.00000688,-0.0000884
 1,-0.00000227,-0.00001323,-0.00037224,-0.00002472,-0.00000691,0.000271
 64,0.00003323,-0.00077307,0.00194461,-0.00051485,-0.00067540,0.0010267
 7,0.00002853,-0.00032141,-0.00040055,-0.00005577,0.00000305,-0.0001183
 0,0.00000829,0.00013073,0.00006344,-0.00007805,-0.00103749,-0.00393930
 ,0.00100602,0.00030585,-0.00051289,-0.00011028,0.00168567,0.00114695,0
 .00040989,-0.00278304,-0.00065505,0.00037104,-0.31887641,0.07639779,0.
 02286817,-0.01867686,0.00830051,0.00150247,-0.00000031,-0.00000427,0.0
 0000104,0.00000095,0.00000284,0.00000008,0.00000104,-0.00000036,0.0000
 0010,-0.00000005,-0.00000081,-0.00000003,0.00000737,0.00000292,0.00000
 081,0.00001944,0.00002752,0.00000452,0.00159092,0.00150219,-0.00002878
 ,0.00002193,-0.00001502,-0.00000123,-0.00000309,0.00000902,0.00000058,
 -0.00000106,0.00000630,-0.00000010,-0.00013913,0.00004456,0.00001931,-
 0.00001915,0.00000221,0.00001139,-0.00001543,0.00002689,0.00000584,-0.
 00026647,-0.00006255,0.00004561,0.00084099,0.00027185,-0.00034820,0.33
 839260,0.00000817,0.00002385,0.00000069,-0.00000626,-0.00001411,-0.000
 00091,0.00000913,0.00000409,0.00000122,0.00000073,0.00000865,-0.000003
 45,0.00003720,-0.00000155,0.00000408,-0.00001637,0.00001667,-0.0000024
 9,0.00005737,-0.00003958,-0.00000078,0.00006283,0.00004275,0.00000170,
 -0.00151209,-0.00246660,0.00035057,0.00043633,0.00005538,-0.00011045,-
 0.00002299,0.00000351,0.00001203,-0.00002925,-0.00000935,-0.00000435,0
 .00001876,0.00000682,0.00001064,0.00011686,0.00005862,-0.00000059,-0.0
 0004911,0.00008641,0.00002160,0.00004684,0.00000155,-0.00000667,-0.000
 03526,-0.00000022,-0.00000039,0.00002660,0.00001831,0.00000477,-0.0000
 5277,-0.00004798,-0.00000696,-0.00006587,0.00004121,-0.00003492,0.0000
 2017,0.00011936,0.00002830,0.00139286,0.00010239,-0.00016549,-0.000518
 84,0.00103002,0.00000161,-0.00036389,-0.00005180,-0.00002029,-0.000129
 71,-0.00031270,0.00002907,0.00046245,0.00012131,-0.00007978,-0.0031563
 8,-0.00337840,0.00071062,-0.00089266,-0.00075864,0.00005828,0.00033006
 ,-0.00580929,0.00042983,0.03155262,-0.00517283,-0.00228673,0.07623248,
 -0.08117627,-0.00547227,-0.01954753,0.01236959,0.00127555,-0.00000279,
 -0.00000336,0.00000066,-0.00000011,0.00000623,0.00000002,0.00000373,0.
 00000132,0.00000009,0.00000122,0.00000313,-0.00000048,0.00000881,0.000
 00039,0.00000040,0.00002222,0.00001800,0.00000369,0.00104259,-0.005198
 69,0.00117110,0.00003581,-0.00002199,0.00000686,-0.00000829,0.00001237
 ,-0.00000231,0.00000008,0.00001129,-0.00000170,-0.00012341,0.00004650,
 0.00000790,0.00000779,0.00000382,0.00000456,-0.00007483,0.00003507,0.0
 0000605,0.00139863,-0.00041449,-0.00017491,-0.00035182,0.00083081,-0.0
 0009501,-0.08637209,0.08979842,-0.00000388,-0.00001540,-0.00001709,0.0
 0001331,0.00000583,0.00000246,-0.00001020,0.00000962,-0.00000443,0.000
 01508,-0.00001288,0.00000225,-0.00001982,0.00001820,0.00000365,-0.0000
 0980,-0.00002552,-0.00001209,-0.00004041,0.00008085,-0.00000658,-0.000
 04423,-0.00009660,0.00000077,0.00066127,0.00050312,0.00003995,-0.00015
 305,-0.00021718,-0.00040228,-0.00004000,0.00006457,0.00002698,-0.00000
 520,-0.00005794,-0.00006942,0.00003603,0.00002798,0.00004652,-0.000114
 35,-0.00000148,0.00004509,0.00012116,-0.00007278,0.00002844,-0.0000662
 2,0.00001091,-0.00001390,0.00000183,0.00000595,0.00004200,-0.00000018,
 -0.00001425,0.00000060,0.00006651,0.00003451,0.00000728,-0.00012225,-0
 .00008658,-0.00009864,0.00010978,0.00003687,0.00015599,-0.00071197,0.0
 0019223,-0.00433188,0.00004574,-0.00033394,0.00040884,0.00002567,0.000
 04454,-0.00073040,0.00000497,0.00007270,0.00014113,-0.00012465,-0.0000
 2890,-0.00078040,0.00101888,0.00081781,0.00839126,-0.00003173,0.000189
 45,-0.00097911,0.00022980,0.00034268,0.00617125,-0.00056054,0.00015543
 ,0.00336281,0.02344938,-0.00473459,-0.03964921,0.00179417,-0.00217632,
 0.00369516,0.00000022,-0.00000005,0.00000869,0.00000007,-0.00000064,0.
 00000002,-0.00000035,0.00000011,0.00000094,-0.00000008,0.00000017,0.00
 000040,-0.00000113,-0.00000044,0.00000319,-0.00000451,-0.00000484,0.00
 002134,-0.00038718,0.00108718,0.00157475,-0.00001653,0.00001078,0.0000
 4099,-0.00000032,-0.00000084,0.00000491,0.00000081,-0.00000186,-0.0000
 0504,0.00002265,-0.00000533,-0.00006914,0.00001197,-0.00000060,0.00010
 668,0.00001130,-0.00000375,0.00003736,-0.00005403,0.00002385,-0.000044
 71,-0.00029036,-0.00017166,-0.00301663,-0.02482762,0.00432906,0.025859
 28\\-0.00000191,0.00000120,0.,-0.00000498,-0.00000027,-0.00000011,-0.0
 0000082,-0.00000101,-0.00000007,-0.00000197,0.00000248,-0.00000010,-0.
 00000137,0.00000093,-0.00000014,-0.00000072,0.00000174,-0.00000014,-0.
 00000151,0.00000091,-0.00000012,0.00000073,0.00000087,-0.00000009,0.00
 000092,-0.00000234,0.00000017,-0.00000089,0.00000018,0.00000004,0.0000
 0030,-0.00000277,0.00000029,-0.00000078,-0.00000098,0.00000017,-0.0000
 0157,-0.00000136,0.00000009,-0.00000020,0.00000021,0.00000010,-0.00000
 056,-0.00000007,0.00000002,-0.00000140,-0.00000149,0.00000010,0.000000
 19,-0.00000192,0.,-0.00000333,0.00000030,-0.00000006,-0.00000035,-0.00
 000003,-0.00000010,0.00000128,0.00000008,0.00000010,-0.00000034,0.0000
 0153,-0.00000016,-0.00000013,0.00000021,0.00000011,0.00000113,-0.00000
 090,0.00000015,0.00000151,0.00000174,-0.00000013,0.00000233,0.00000170
 ,-0.00000016,0.00000176,0.00000096,0.00000006,0.00000125,0.00000180,-0
 .00000016,0.00000250,-0.00000073,-0.00000005,0.00000356,-0.00000008,-0
 .00000003,0.00000192,-0.00000044,0.00000018,0.00000134,-0.00000090,0.0
 0000011,0.00000245,-0.00000137,0.00000002,-0.00000254,-0.00000110,0.00
 000007,-0.00000292,0.00000002,-0.00000003,-0.00000291,0.00000120,-0.00
 000016,-0.00000185,0.00000170,-0.00000022,-0.00000083,0.00000206,-0.00
 000022,0.,0.00000196,-0.00000025,0.00000060,-0.00000123,0.,-0.00000014
 ,-0.00000214,0.00000017,-0.00000116,-0.00000254,0.00000024,-0.00000187
 ,-0.00000160,0.00000015,0.00000086,0.00000141,-0.00000006,0.00000194,0
 .00000172,-0.00000013,0.00000301,0.00000103,-0.00000013,0.00000292,-0.
 00000009,0.00000003,0.00000294,-0.00000127,0.00000017,0.00000165,-0.00
 000131,0.00000028\\\@


 TOM, TOM, THE BURGLAR'S SON
 STOLE A MACHINE AND AWAY HE RUN
 THE JOB WAS NEAT, BUT TOM GOT BEAT
 BY THE TIME HE GOT HOME IT WAS OBSOLETE.
 Job cpu time:      22 days  8 hours  2 minutes 54.8 seconds.
 File lengths (MBytes):  RWF=   4419 Int=      0 D2E=      0 Chk=     85 Scr=      1
 Normal termination of Gaussian 09 at Thu Jul 25 21:26:38 2019.
