 Entering Gaussian System, Link 0=g09
 Initial command:
 /home/minenky/programs//g09/l1.exe "/local/scratch/minenky/m1_00_624-64-60_C4H8_wB97XD/Gau-98801.inp" -scrdir="/local/scratch/minenky/m1_00_624-64-60_C4H8_wB97XD/"
 Entering Link 1 = /home/minenky/programs//g09/l1.exe PID=     98802.
  
 Copyright (c) 1988,1990,1992,1993,1995,1998,2003,2009,2013,
            Gaussian, Inc.  All Rights Reserved.
  
 This is part of the Gaussian(R) 09 program.  It is based on
 the Gaussian(R) 03 system (copyright 2003, Gaussian, Inc.),
 the Gaussian(R) 98 system (copyright 1998, Gaussian, Inc.),
 the Gaussian(R) 94 system (copyright 1995, Gaussian, Inc.),
 the Gaussian 92(TM) system (copyright 1992, Gaussian, Inc.),
 the Gaussian 90(TM) system (copyright 1990, Gaussian, Inc.),
 the Gaussian 88(TM) system (copyright 1988, Gaussian, Inc.),
 the Gaussian 86(TM) system (copyright 1986, Carnegie Mellon
 University), and the Gaussian 82(TM) system (copyright 1983,
 Carnegie Mellon University). Gaussian is a federally registered
 trademark of Gaussian, Inc.
  
 This software contains proprietary and confidential information,
 including trade secrets, belonging to Gaussian, Inc.
  
 This software is provided under written license and may be
 used, copied, transmitted, or stored only in accord with that
 written license.
  
 The following legend is applicable only to US Government
 contracts under FAR:
  
                    RESTRICTED RIGHTS LEGEND
  
 Use, reproduction and disclosure by the US Government is
 subject to restrictions as set forth in subparagraphs (a)
 and (c) of the Commercial Computer Software - Restricted
 Rights clause in FAR 52.227-19.
  
 Gaussian, Inc.
 340 Quinnipiac St., Bldg. 40, Wallingford CT 06492
  
  
 ---------------------------------------------------------------
 Warning -- This program may not be used in any manner that
 competes with the business of Gaussian, Inc. or will provide
 assistance to any competitor of Gaussian, Inc.  The licensee
 of this program is prohibited from giving any competitor of
 Gaussian, Inc. access to this program.  By using this program,
 the user acknowledges that Gaussian, Inc. is engaged in the
 business of creating and licensing software in the field of
 computational chemistry and represents and warrants to the
 licensee that it is not a competitor of Gaussian, Inc. and that
 it will not use this program in any manner prohibited above.
 ---------------------------------------------------------------
  

 Cite this work as:
 Gaussian 09, Revision D.01,
 M. J. Frisch, G. W. Trucks, H. B. Schlegel, G. E. Scuseria, 
 M. A. Robb, J. R. Cheeseman, G. Scalmani, V. Barone, B. Mennucci, 
 G. A. Petersson, H. Nakatsuji, M. Caricato, X. Li, H. P. Hratchian, 
 A. F. Izmaylov, J. Bloino, G. Zheng, J. L. Sonnenberg, M. Hada, 
 M. Ehara, K. Toyota, R. Fukuda, J. Hasegawa, M. Ishida, T. Nakajima, 
 Y. Honda, O. Kitao, H. Nakai, T. Vreven, J. A. Montgomery, Jr., 
 J. E. Peralta, F. Ogliaro, M. Bearpark, J. J. Heyd, E. Brothers, 
 K. N. Kudin, V. N. Staroverov, T. Keith, R. Kobayashi, J. Normand, 
 K. Raghavachari, A. Rendell, J. C. Burant, S. S. Iyengar, J. Tomasi, 
 M. Cossi, N. Rega, J. M. Millam, M. Klene, J. E. Knox, J. B. Cross, 
 V. Bakken, C. Adamo, J. Jaramillo, R. Gomperts, R. E. Stratmann, 
 O. Yazyev, A. J. Austin, R. Cammi, C. Pomelli, J. W. Ochterski, 
 R. L. Martin, K. Morokuma, V. G. Zakrzewski, G. A. Voth, 
 P. Salvador, J. J. Dannenberg, S. Dapprich, A. D. Daniels, 
 O. Farkas, J. B. Foresman, J. V. Ortiz, J. Cioslowski, 
 and D. J. Fox, Gaussian, Inc., Wallingford CT, 2013.
 
 ******************************************
 Gaussian 09:  AM64L-G09RevD.01 24-Apr-2013
                 9-Jul-2021 
 ******************************************
 %Mem=32000MB
 %NProcShared=16
 Will use up to   16 processors via shared memory.
 %Chk=m1_00_624-64-60_C4H8_wB97XD
 ----------------------------------------------------------------------
 #P wB97XD/def2tzvp opt=(tight) freq integral(Grid=ultrafine) # SCF(Max
 Cycle=380) 5d 7f GFPrint
 ----------------------------------------------------------------------
 1/7=10,14=-1,18=20,19=15,26=4,38=1/1,3;
 2/9=110,12=2,17=6,18=5,40=1/2;
 3/5=44,7=101,8=11,11=2,16=1,24=100,25=1,30=1,71=1,74=-58,75=-5/1,2,3;
 4//1;
 5/5=2,7=380,38=5/2;
 6/7=2,8=2,9=2,10=2,28=1/1;
 7//1,2,3,16;
 1/7=10,14=-1,18=20,19=15,26=4/3(2);
 2/9=110/2;
 99//99;
 2/9=110/2;
 3/5=44,7=101,8=11,11=2,16=1,25=1,30=1,71=1,74=-58,75=-5/1,2,3;
 4/5=5,16=3,69=1/1;
 5/5=2,7=380,38=5/2;
 7//1,2,3,16;
 1/7=10,14=-1,18=20,19=15,26=4/3(-5);
 2/9=110/2;
 6/7=2,8=2,9=2,10=2,19=2,28=1/1;
 99/9=1/99;
 Leave Link    1 at Fri Jul  9 19:19:35 2021, MaxMem=  4194304000 cpu:         1.5
 (Enter /home/minenky/programs//g09/l101.exe)
 ---------------------------------------
 The PBEPBE optimization and frequencies
 ---------------------------------------
 Symbolic Z-matrix:
 Charge =  0 Multiplicity = 1
 C                    -0.32353   0.57999   0. 
 C                     0.32353  -0.57999   0. 
 H                    -1.4117    0.56859   0. 
 H                     1.4117   -0.56859   0. 
 C                     0.32353   1.9291    0. 
 C                    -0.32353  -1.9291    0. 
 H                     1.41165   1.84865   0. 
 H                     0.02565   2.51097   0.87736 
 H                     0.02565   2.51097  -0.87736 
 H                    -1.41165  -1.84865   0. 
 H                    -0.02565  -2.51097   0.87736 
 H                    -0.02565  -2.51097  -0.87736 
 
 NAtoms=     12 NQM=       12 NQMF=       0 NMMI=      0 NMMIF=      0
                NMic=       0 NMicF=      0.
                    Isotopes and Nuclear Properties:
 (Nuclear quadrupole moments (NQMom) in fm**2, nuclear magnetic moments (NMagM)
  in nuclear magnetons)

  Atom         1           2           3           4           5           6           7           8           9          10
 IAtWgt=          12          12           1           1          12          12           1           1           1           1
 AtmWgt=  12.0000000  12.0000000   1.0078250   1.0078250  12.0000000  12.0000000   1.0078250   1.0078250   1.0078250   1.0078250
 NucSpn=           0           0           1           1           0           0           1           1           1           1
 AtZEff=   0.0000000   0.0000000   0.0000000   0.0000000   0.0000000   0.0000000   0.0000000   0.0000000   0.0000000   0.0000000
 NQMom=    0.0000000   0.0000000   0.0000000   0.0000000   0.0000000   0.0000000   0.0000000   0.0000000   0.0000000   0.0000000
 NMagM=    0.0000000   0.0000000   2.7928460   2.7928460   0.0000000   0.0000000   2.7928460   2.7928460   2.7928460   2.7928460
 AtZNuc=   6.0000000   6.0000000   1.0000000   1.0000000   6.0000000   6.0000000   1.0000000   1.0000000   1.0000000   1.0000000

  Atom        11          12
 IAtWgt=           1           1
 AtmWgt=   1.0078250   1.0078250
 NucSpn=           1           1
 AtZEff=   0.0000000   0.0000000
 NQMom=    0.0000000   0.0000000
 NMagM=    2.7928460   2.7928460
 AtZNuc=   1.0000000   1.0000000
 Leave Link  101 at Fri Jul  9 19:19:36 2021, MaxMem=  4194304000 cpu:         4.6
 (Enter /home/minenky/programs//g09/l103.exe)

 GradGradGradGradGradGradGradGradGradGradGradGradGradGradGradGradGradGrad
 Berny optimization.
 Initialization pass.
                           ----------------------------
                           !    Initial Parameters    !
                           ! (Angstroms and Degrees)  !
 --------------------------                            --------------------------
 ! Name  Definition              Value          Derivative Info.                !
 --------------------------------------------------------------------------------
 ! R1    R(1,2)                  1.3282         estimate D2E/DX2                !
 ! R2    R(1,3)                  1.0882         estimate D2E/DX2                !
 ! R3    R(1,5)                  1.4963         estimate D2E/DX2                !
 ! R4    R(2,4)                  1.0882         estimate D2E/DX2                !
 ! R5    R(2,6)                  1.4963         estimate D2E/DX2                !
 ! R6    R(5,7)                  1.0911         estimate D2E/DX2                !
 ! R7    R(5,8)                  1.0941         estimate D2E/DX2                !
 ! R8    R(5,9)                  1.0941         estimate D2E/DX2                !
 ! R9    R(6,10)                 1.0911         estimate D2E/DX2                !
 ! R10   R(6,11)                 1.0941         estimate D2E/DX2                !
 ! R11   R(6,12)                 1.0941         estimate D2E/DX2                !
 ! A1    A(2,1,3)              118.5534         estimate D2E/DX2                !
 ! A2    A(2,1,5)              125.2236         estimate D2E/DX2                !
 ! A3    A(3,1,5)              116.223          estimate D2E/DX2                !
 ! A4    A(1,2,4)              118.5534         estimate D2E/DX2                !
 ! A5    A(1,2,6)              125.2236         estimate D2E/DX2                !
 ! A6    A(4,2,6)              116.223          estimate D2E/DX2                !
 ! A7    A(1,5,7)              111.3945         estimate D2E/DX2                !
 ! A8    A(1,5,8)              111.2097         estimate D2E/DX2                !
 ! A9    A(1,5,9)              111.2097         estimate D2E/DX2                !
 ! A10   A(7,5,8)              108.1033         estimate D2E/DX2                !
 ! A11   A(7,5,9)              108.1033         estimate D2E/DX2                !
 ! A12   A(8,5,9)              106.6237         estimate D2E/DX2                !
 ! A13   A(2,6,10)             111.3945         estimate D2E/DX2                !
 ! A14   A(2,6,11)             111.2097         estimate D2E/DX2                !
 ! A15   A(2,6,12)             111.2097         estimate D2E/DX2                !
 ! A16   A(10,6,11)            108.1033         estimate D2E/DX2                !
 ! A17   A(10,6,12)            108.1033         estimate D2E/DX2                !
 ! A18   A(11,6,12)            106.6237         estimate D2E/DX2                !
 ! D1    D(3,1,2,4)            180.0            estimate D2E/DX2                !
 ! D2    D(3,1,2,6)              0.0            estimate D2E/DX2                !
 ! D3    D(5,1,2,4)              0.0            estimate D2E/DX2                !
 ! D4    D(5,1,2,6)            180.0            estimate D2E/DX2                !
 ! D5    D(2,1,5,7)              0.0            estimate D2E/DX2                !
 ! D6    D(2,1,5,8)           -120.6649         estimate D2E/DX2                !
 ! D7    D(2,1,5,9)            120.6649         estimate D2E/DX2                !
 ! D8    D(3,1,5,7)            180.0            estimate D2E/DX2                !
 ! D9    D(3,1,5,8)             59.3351         estimate D2E/DX2                !
 ! D10   D(3,1,5,9)            -59.3351         estimate D2E/DX2                !
 ! D11   D(1,2,6,10)             0.0            estimate D2E/DX2                !
 ! D12   D(1,2,6,11)          -120.6649         estimate D2E/DX2                !
 ! D13   D(1,2,6,12)           120.6649         estimate D2E/DX2                !
 ! D14   D(4,2,6,10)           180.0            estimate D2E/DX2                !
 ! D15   D(4,2,6,11)            59.3351         estimate D2E/DX2                !
 ! D16   D(4,2,6,12)           -59.3351         estimate D2E/DX2                !
 --------------------------------------------------------------------------------
 Trust Radius=3.00D-01 FncErr=1.00D-07 GrdErr=1.00D-06
 Number of steps in this run=     55 maximum allowed number of steps=    100.
 GradGradGradGradGradGradGradGradGradGradGradGradGradGradGradGradGradGrad

 Leave Link  103 at Fri Jul  9 19:19:36 2021, MaxMem=  4194304000 cpu:         0.1
 (Enter /home/minenky/programs//g09/l202.exe)
                          Input orientation:                          
 ---------------------------------------------------------------------
 Center     Atomic      Atomic             Coordinates (Angstroms)
 Number     Number       Type             X           Y           Z
 ---------------------------------------------------------------------
      1          6           0       -0.323526    0.579987    0.000000
      2          6           0        0.323526   -0.579987    0.000000
      3          1           0       -1.411701    0.568590    0.000000
      4          1           0        1.411701   -0.568590    0.000000
      5          6           0        0.323526    1.929103    0.000000
      6          6           0       -0.323526   -1.929103    0.000000
      7          1           0        1.411647    1.848653    0.000000
      8          1           0        0.025645    2.510971    0.877363
      9          1           0        0.025645    2.510971   -0.877363
     10          1           0       -1.411647   -1.848653    0.000000
     11          1           0       -0.025645   -2.510971    0.877363
     12          1           0       -0.025645   -2.510971   -0.877363
 ---------------------------------------------------------------------
                    Distance matrix (angstroms):
                    1          2          3          4          5
     1  C    0.000000
     2  C    1.328238   0.000000
     3  H    1.088235   2.080923   0.000000
     4  H    2.080923   1.088235   3.043810   0.000000
     5  C    1.496259   2.509090   2.204996   2.724444   0.000000
     6  C    2.509090   1.496259   2.724444   2.204996   3.912088
     7  H    2.149497   2.661259   3.099977   2.417243   1.091091
     8  H    2.149508   3.226844   2.570715   3.489214   1.094107
     9  H    2.149508   3.226844   2.570715   3.489214   1.094107
    10  H    2.661259   2.149497   2.417243   3.099977   4.157194
    11  H    3.226844   2.149508   3.489214   2.570715   4.539377
    12  H    3.226844   2.149508   3.489214   2.570715   4.539377
                    6          7          8          9         10
     6  C    0.000000
     7  H    4.157194   0.000000
     8  H    4.539377   1.769020   0.000000
     9  H    4.539377   1.769020   1.754726   0.000000
    10  H    1.091091   4.651995   4.673531   4.673531   0.000000
    11  H    1.094107   4.673531   5.022204   5.319924   1.769020
    12  H    1.094107   4.673531   5.319924   5.022204   1.769020
                   11         12
    11  H    0.000000
    12  H    1.754726   0.000000
 Stoichiometry    C4H8
 Framework group  C2H[SGH(C4H4),X(H4)]
 Deg. of freedom    10
 Full point group                 C2H     NOp   4
 Largest Abelian subgroup         C2H     NOp   4
 Largest concise Abelian subgroup C2H     NOp   4
                         Standard orientation:                         
 ---------------------------------------------------------------------
 Center     Atomic      Atomic             Coordinates (Angstroms)
 Number     Number       Type             X           Y           Z
 ---------------------------------------------------------------------
      1          6           0       -0.323526    0.579987    0.000000
      2          6           0        0.323526   -0.579987    0.000000
      3          1           0       -1.411701    0.568590    0.000000
      4          1           0        1.411701   -0.568590    0.000000
      5          6           0        0.323526    1.929103    0.000000
      6          6           0       -0.323526   -1.929103    0.000000
      7          1           0        1.411647    1.848653    0.000000
      8          1           0        0.025645    2.510971    0.877363
      9          1           0        0.025645    2.510971   -0.877363
     10          1           0       -1.411647   -1.848653    0.000000
     11          1           0       -0.025645   -2.510971    0.877363
     12          1           0       -0.025645   -2.510971   -0.877363
 ---------------------------------------------------------------------
 Rotational constants (GHZ):     35.0303176      3.7384245      3.5241229
 Leave Link  202 at Fri Jul  9 19:19:36 2021, MaxMem=  4194304000 cpu:         1.1
 (Enter /home/minenky/programs//g09/l301.exe)
 Standard basis: def2TZVP (5D, 7F)
 ======================================================================================================
                                       Pseudopotential Parameters
 ======================================================================================================
  Center     Atomic      Valence      Angular      Power
  Number     Number     Electrons     Momentum     of R      Exponent        Coefficient   SO-Coeffient
 ======================================================================================================
    1          6
                                   No pseudopotential on this center.
    2          6
                                   No pseudopotential on this center.
    3          1
                                   No pseudopotential on this center.
    4          1
                                   No pseudopotential on this center.
    5          6
                                   No pseudopotential on this center.
    6          6
                                   No pseudopotential on this center.
    7          1
                                   No pseudopotential on this center.
    8          1
                                   No pseudopotential on this center.
    9          1
                                   No pseudopotential on this center.
   10          1
                                   No pseudopotential on this center.
   11          1
                                   No pseudopotential on this center.
   12          1
                                   No pseudopotential on this center.
 ======================================================================================================
 Ernie: Thresh=  0.10000D-02 Tol=  0.10000D-05 Strict=F.
 AO basis set (Overlap normalization):
 Atom C1       Shell     1 S   6     bf    1 -     1         -0.611375536868          1.096016590634          0.000000000000
      0.1357534968D+05  0.6064550360D-03
      0.2035233368D+04  0.4697908888D-02
      0.4632256236D+03  0.2433247765D-01
      0.1312001960D+03  0.9739996831D-01
      0.4285301589D+02  0.3019558425D+00
      0.1558418577D+02  0.6623360914D+00
 Atom C1       Shell     2 S   2     bf    2 -     2         -0.611375536868          1.096016590634          0.000000000000
      0.6206713851D+01  0.6559530854D+00
      0.2576489653D+01  0.3758563329D+00
 Atom C1       Shell     3 S   1     bf    3 -     3         -0.611375536868          1.096016590634          0.000000000000
      0.5769633942D+00  0.1000000000D+01
 Atom C1       Shell     4 S   1     bf    4 -     4         -0.611375536868          1.096016590634          0.000000000000
      0.2297283136D+00  0.1000000000D+01
 Atom C1       Shell     5 S   1     bf    5 -     5         -0.611375536868          1.096016590634          0.000000000000
      0.9516444003D-01  0.1000000000D+01
 Atom C1       Shell     6 P   4     bf    6 -     8         -0.611375536868          1.096016590634          0.000000000000
      0.3469723224D+02  0.1132722000D-01
      0.7958262283D+01  0.7616965920D-01
      0.2378082688D+01  0.3019225220D+00
      0.8143320818D+00  0.7278502735D+00
 Atom C1       Shell     7 P   1     bf    9 -    11         -0.611375536868          1.096016590634          0.000000000000
      0.2888754725D+00  0.1000000000D+01
 Atom C1       Shell     8 P   1     bf   12 -    14         -0.611375536868          1.096016590634          0.000000000000
      0.1005682367D+00  0.1000000000D+01
 Atom C1       Shell     9 D   1     bf   15 -    19         -0.611375536868          1.096016590634          0.000000000000
      0.1097000000D+01  0.1000000000D+01
 Atom C1       Shell    10 D   1     bf   20 -    24         -0.611375536868          1.096016590634          0.000000000000
      0.3180000000D+00  0.1000000000D+01
 Atom C1       Shell    11 F   1     bf   25 -    31         -0.611375536868          1.096016590634          0.000000000000
      0.7610000000D+00  0.1000000000D+01
 Atom C2       Shell    12 S   6     bf   32 -    32          0.611375536868         -1.096016590634          0.000000000000
      0.1357534968D+05  0.6064550360D-03
      0.2035233368D+04  0.4697908888D-02
      0.4632256236D+03  0.2433247765D-01
      0.1312001960D+03  0.9739996831D-01
      0.4285301589D+02  0.3019558425D+00
      0.1558418577D+02  0.6623360914D+00
 Atom C2       Shell    13 S   2     bf   33 -    33          0.611375536868         -1.096016590634          0.000000000000
      0.6206713851D+01  0.6559530854D+00
      0.2576489653D+01  0.3758563329D+00
 Atom C2       Shell    14 S   1     bf   34 -    34          0.611375536868         -1.096016590634          0.000000000000
      0.5769633942D+00  0.1000000000D+01
 Atom C2       Shell    15 S   1     bf   35 -    35          0.611375536868         -1.096016590634          0.000000000000
      0.2297283136D+00  0.1000000000D+01
 Atom C2       Shell    16 S   1     bf   36 -    36          0.611375536868         -1.096016590634          0.000000000000
      0.9516444003D-01  0.1000000000D+01
 Atom C2       Shell    17 P   4     bf   37 -    39          0.611375536868         -1.096016590634          0.000000000000
      0.3469723224D+02  0.1132722000D-01
      0.7958262283D+01  0.7616965920D-01
      0.2378082688D+01  0.3019225220D+00
      0.8143320818D+00  0.7278502735D+00
 Atom C2       Shell    18 P   1     bf   40 -    42          0.611375536868         -1.096016590634          0.000000000000
      0.2888754725D+00  0.1000000000D+01
 Atom C2       Shell    19 P   1     bf   43 -    45          0.611375536868         -1.096016590634          0.000000000000
      0.1005682367D+00  0.1000000000D+01
 Atom C2       Shell    20 D   1     bf   46 -    50          0.611375536868         -1.096016590634          0.000000000000
      0.1097000000D+01  0.1000000000D+01
 Atom C2       Shell    21 D   1     bf   51 -    55          0.611375536868         -1.096016590634          0.000000000000
      0.3180000000D+00  0.1000000000D+01
 Atom C2       Shell    22 F   1     bf   56 -    62          0.611375536868         -1.096016590634          0.000000000000
      0.7610000000D+00  0.1000000000D+01
 Atom H3       Shell    23 S   3     bf   63 -    63         -2.667728271521          1.074479381897          0.000000000000
      0.3406134100D+02  0.2543930721D-01
      0.5123574600D+01  0.1900859489D+00
      0.1164662600D+01  0.8524411301D+00
 Atom H3       Shell    24 S   1     bf   64 -    64         -2.667728271521          1.074479381897          0.000000000000
      0.3272304100D+00  0.1000000000D+01
 Atom H3       Shell    25 S   1     bf   65 -    65         -2.667728271521          1.074479381897          0.000000000000
      0.1030724100D+00  0.1000000000D+01
 Atom H3       Shell    26 P   1     bf   66 -    68         -2.667728271521          1.074479381897          0.000000000000
      0.8000000000D+00  0.1000000000D+01
 Atom H4       Shell    27 S   3     bf   69 -    69          2.667728271521         -1.074479381897          0.000000000000
      0.3406134100D+02  0.2543930721D-01
      0.5123574600D+01  0.1900859489D+00
      0.1164662600D+01  0.8524411301D+00
 Atom H4       Shell    28 S   1     bf   70 -    70          2.667728271521         -1.074479381897          0.000000000000
      0.3272304100D+00  0.1000000000D+01
 Atom H4       Shell    29 S   1     bf   71 -    71          2.667728271521         -1.074479381897          0.000000000000
      0.1030724100D+00  0.1000000000D+01
 Atom H4       Shell    30 P   1     bf   72 -    74          2.667728271521         -1.074479381897          0.000000000000
      0.8000000000D+00  0.1000000000D+01
 Atom C5       Shell    31 S   6     bf   75 -    75          0.611375536868          3.645476352128          0.000000000000
      0.1357534968D+05  0.6064550360D-03
      0.2035233368D+04  0.4697908888D-02
      0.4632256236D+03  0.2433247765D-01
      0.1312001960D+03  0.9739996831D-01
      0.4285301589D+02  0.3019558425D+00
      0.1558418577D+02  0.6623360914D+00
 Atom C5       Shell    32 S   2     bf   76 -    76          0.611375536868          3.645476352128          0.000000000000
      0.6206713851D+01  0.6559530854D+00
      0.2576489653D+01  0.3758563329D+00
 Atom C5       Shell    33 S   1     bf   77 -    77          0.611375536868          3.645476352128          0.000000000000
      0.5769633942D+00  0.1000000000D+01
 Atom C5       Shell    34 S   1     bf   78 -    78          0.611375536868          3.645476352128          0.000000000000
      0.2297283136D+00  0.1000000000D+01
 Atom C5       Shell    35 S   1     bf   79 -    79          0.611375536868          3.645476352128          0.000000000000
      0.9516444003D-01  0.1000000000D+01
 Atom C5       Shell    36 P   4     bf   80 -    82          0.611375536868          3.645476352128          0.000000000000
      0.3469723224D+02  0.1132722000D-01
      0.7958262283D+01  0.7616965920D-01
      0.2378082688D+01  0.3019225220D+00
      0.8143320818D+00  0.7278502735D+00
 Atom C5       Shell    37 P   1     bf   83 -    85          0.611375536868          3.645476352128          0.000000000000
      0.2888754725D+00  0.1000000000D+01
 Atom C5       Shell    38 P   1     bf   86 -    88          0.611375536868          3.645476352128          0.000000000000
      0.1005682367D+00  0.1000000000D+01
 Atom C5       Shell    39 D   1     bf   89 -    93          0.611375536868          3.645476352128          0.000000000000
      0.1097000000D+01  0.1000000000D+01
 Atom C5       Shell    40 D   1     bf   94 -    98          0.611375536868          3.645476352128          0.000000000000
      0.3180000000D+00  0.1000000000D+01
 Atom C5       Shell    41 F   1     bf   99 -   105          0.611375536868          3.645476352128          0.000000000000
      0.7610000000D+00  0.1000000000D+01
 Atom C6       Shell    42 S   6     bf  106 -   106         -0.611375536868         -3.645476352128          0.000000000000
      0.1357534968D+05  0.6064550360D-03
      0.2035233368D+04  0.4697908888D-02
      0.4632256236D+03  0.2433247765D-01
      0.1312001960D+03  0.9739996831D-01
      0.4285301589D+02  0.3019558425D+00
      0.1558418577D+02  0.6623360914D+00
 Atom C6       Shell    43 S   2     bf  107 -   107         -0.611375536868         -3.645476352128          0.000000000000
      0.6206713851D+01  0.6559530854D+00
      0.2576489653D+01  0.3758563329D+00
 Atom C6       Shell    44 S   1     bf  108 -   108         -0.611375536868         -3.645476352128          0.000000000000
      0.5769633942D+00  0.1000000000D+01
 Atom C6       Shell    45 S   1     bf  109 -   109         -0.611375536868         -3.645476352128          0.000000000000
      0.2297283136D+00  0.1000000000D+01
 Atom C6       Shell    46 S   1     bf  110 -   110         -0.611375536868         -3.645476352128          0.000000000000
      0.9516444003D-01  0.1000000000D+01
 Atom C6       Shell    47 P   4     bf  111 -   113         -0.611375536868         -3.645476352128          0.000000000000
      0.3469723224D+02  0.1132722000D-01
      0.7958262283D+01  0.7616965920D-01
      0.2378082688D+01  0.3019225220D+00
      0.8143320818D+00  0.7278502735D+00
 Atom C6       Shell    48 P   1     bf  114 -   116         -0.611375536868         -3.645476352128          0.000000000000
      0.2888754725D+00  0.1000000000D+01
 Atom C6       Shell    49 P   1     bf  117 -   119         -0.611375536868         -3.645476352128          0.000000000000
      0.1005682367D+00  0.1000000000D+01
 Atom C6       Shell    50 D   1     bf  120 -   124         -0.611375536868         -3.645476352128          0.000000000000
      0.1097000000D+01  0.1000000000D+01
 Atom C6       Shell    51 D   1     bf  125 -   129         -0.611375536868         -3.645476352128          0.000000000000
      0.3180000000D+00  0.1000000000D+01
 Atom C6       Shell    52 F   1     bf  130 -   136         -0.611375536868         -3.645476352128          0.000000000000
      0.7610000000D+00  0.1000000000D+01
 Atom H7       Shell    53 S   3     bf  137 -   137          2.667626226310          3.493447884737          0.000000000000
      0.3406134100D+02  0.2543930721D-01
      0.5123574600D+01  0.1900859489D+00
      0.1164662600D+01  0.8524411301D+00
 Atom H7       Shell    54 S   1     bf  138 -   138          2.667626226310          3.493447884737          0.000000000000
      0.3272304100D+00  0.1000000000D+01
 Atom H7       Shell    55 S   1     bf  139 -   139          2.667626226310          3.493447884737          0.000000000000
      0.1030724100D+00  0.1000000000D+01
 Atom H7       Shell    56 P   1     bf  140 -   142          2.667626226310          3.493447884737          0.000000000000
      0.8000000000D+00  0.1000000000D+01
 Atom H8       Shell    57 S   3     bf  143 -   143          0.048462026678          4.745047517618          1.657975789127
      0.3406134100D+02  0.2543930721D-01
      0.5123574600D+01  0.1900859489D+00
      0.1164662600D+01  0.8524411301D+00
 Atom H8       Shell    58 S   1     bf  144 -   144          0.048462026678          4.745047517618          1.657975789127
      0.3272304100D+00  0.1000000000D+01
 Atom H8       Shell    59 S   1     bf  145 -   145          0.048462026678          4.745047517618          1.657975789127
      0.1030724100D+00  0.1000000000D+01
 Atom H8       Shell    60 P   1     bf  146 -   148          0.048462026678          4.745047517618          1.657975789127
      0.8000000000D+00  0.1000000000D+01
 Atom H9       Shell    61 S   3     bf  149 -   149          0.048462026678          4.745047517618         -1.657975789127
      0.3406134100D+02  0.2543930721D-01
      0.5123574600D+01  0.1900859489D+00
      0.1164662600D+01  0.8524411301D+00
 Atom H9       Shell    62 S   1     bf  150 -   150          0.048462026678          4.745047517618         -1.657975789127
      0.3272304100D+00  0.1000000000D+01
 Atom H9       Shell    63 S   1     bf  151 -   151          0.048462026678          4.745047517618         -1.657975789127
      0.1030724100D+00  0.1000000000D+01
 Atom H9       Shell    64 P   1     bf  152 -   154          0.048462026678          4.745047517618         -1.657975789127
      0.8000000000D+00  0.1000000000D+01
 Atom H10      Shell    65 S   3     bf  155 -   155         -2.667626226310         -3.493447884737          0.000000000000
      0.3406134100D+02  0.2543930721D-01
      0.5123574600D+01  0.1900859489D+00
      0.1164662600D+01  0.8524411301D+00
 Atom H10      Shell    66 S   1     bf  156 -   156         -2.667626226310         -3.493447884737          0.000000000000
      0.3272304100D+00  0.1000000000D+01
 Atom H10      Shell    67 S   1     bf  157 -   157         -2.667626226310         -3.493447884737          0.000000000000
      0.1030724100D+00  0.1000000000D+01
 Atom H10      Shell    68 P   1     bf  158 -   160         -2.667626226310         -3.493447884737          0.000000000000
      0.8000000000D+00  0.1000000000D+01
 Atom H11      Shell    69 S   3     bf  161 -   161         -0.048462026678         -4.745047517618          1.657975789127
      0.3406134100D+02  0.2543930721D-01
      0.5123574600D+01  0.1900859489D+00
      0.1164662600D+01  0.8524411301D+00
 Atom H11      Shell    70 S   1     bf  162 -   162         -0.048462026678         -4.745047517618          1.657975789127
      0.3272304100D+00  0.1000000000D+01
 Atom H11      Shell    71 S   1     bf  163 -   163         -0.048462026678         -4.745047517618          1.657975789127
      0.1030724100D+00  0.1000000000D+01
 Atom H11      Shell    72 P   1     bf  164 -   166         -0.048462026678         -4.745047517618          1.657975789127
      0.8000000000D+00  0.1000000000D+01
 Atom H12      Shell    73 S   3     bf  167 -   167         -0.048462026678         -4.745047517618         -1.657975789127
      0.3406134100D+02  0.2543930721D-01
      0.5123574600D+01  0.1900859489D+00
      0.1164662600D+01  0.8524411301D+00
 Atom H12      Shell    74 S   1     bf  168 -   168         -0.048462026678         -4.745047517618         -1.657975789127
      0.3272304100D+00  0.1000000000D+01
 Atom H12      Shell    75 S   1     bf  169 -   169         -0.048462026678         -4.745047517618         -1.657975789127
      0.1030724100D+00  0.1000000000D+01
 Atom H12      Shell    76 P   1     bf  170 -   172         -0.048462026678         -4.745047517618         -1.657975789127
      0.8000000000D+00  0.1000000000D+01
 There are    66 symmetry adapted cartesian basis functions of AG  symmetry.
 There are    30 symmetry adapted cartesian basis functions of BG  symmetry.
 There are    30 symmetry adapted cartesian basis functions of AU  symmetry.
 There are    66 symmetry adapted cartesian basis functions of BU  symmetry.
 There are    58 symmetry adapted basis functions of AG  symmetry.
 There are    28 symmetry adapted basis functions of BG  symmetry.
 There are    28 symmetry adapted basis functions of AU  symmetry.
 There are    58 symmetry adapted basis functions of BU  symmetry.
   172 basis functions,   268 primitive gaussians,   192 cartesian basis functions
    16 alpha electrons       16 beta electrons
       nuclear repulsion energy       116.0557981802 Hartrees.
 IExCor= 4639 DFT=T Ex+Corr=wB97XD ExCW=0 ScaHFX=  1.000000
 ScaDFX=  1.000000  1.000000  1.000000  1.000000 ScalE2=  1.000000  1.000000
 IRadAn=      5 IRanWt=     -1 IRanGd=            0 ICorTp=0 IEmpDi=121
  HFx wShort=  0.000000 wLong=  0.200000 cFull=  0.222036 cShort=  0.000000 cLong=  0.777964
  DFx wShort=  0.000000 wLong=  0.200000 cFull=  0.000000 cShort=  0.000000 cLong=  1.000000
 NAtoms=   12 NActive=   12 NUniq=    5 SFac= 4.00D+00 NAtFMM=   60 NAOKFM=F Big=F
 Integral buffers will be    131072 words long.
 Raffenetti 2 integral format.
 Two-electron integral symmetry is turned on.
 R6Disp:  Grimme-D2 Dispersion energy=       -0.0039347953 Hartrees.
 Nuclear repulsion after empirical dispersion term =      116.0518633849 Hartrees.
 Leave Link  301 at Fri Jul  9 19:19:36 2021, MaxMem=  4194304000 cpu:         0.4
 (Enter /home/minenky/programs//g09/l302.exe)
 NPDir=0 NMtPBC=     1 NCelOv=     1 NCel=       1 NClECP=     1 NCelD=      1
         NCelK=      1 NCelE2=     1 NClLst=     1 CellRange=     0.0.
 One-electron integrals computed using PRISM.
 One-electron integral symmetry used in STVInt
   4 Symmetry operations used in ECPInt.
 ECPInt:  NShTT=    2926 NPrTT=    8368 LenC2=    2907 LenP2D=    7107.
 LDataN:  DoStor=T MaxTD1= 6 Len=  172
 NBasis=   172 RedAO= T EigKep=  1.39D-04  NBF=    58    28    28    58
 NBsUse=   172 1.00D-06 EigRej= -1.00D+00 NBFU=    58    28    28    58
 Precomputing XC quadrature grid using
 IXCGrd= 4 IRadAn=           5 IRanWt=          -1 IRanGd=           0 AccXCQ= 0.00D+00.
 Generated NRdTot=       0 NPtTot=           0 NUsed=           0 NTot=          32
 NSgBfM=   191   191   191   191   191 MxSgAt=    12 MxSgA2=    12.
 Leave Link  302 at Fri Jul  9 19:19:42 2021, MaxMem=  4194304000 cpu:        73.7
 (Enter /home/minenky/programs//g09/l303.exe)
 DipDrv:  MaxL=1.
 Leave Link  303 at Fri Jul  9 19:19:43 2021, MaxMem=  4194304000 cpu:         5.7
 (Enter /home/minenky/programs//g09/l401.exe)
 ExpMin= 9.52D-02 ExpMax= 1.36D+04 ExpMxC= 4.63D+02 IAcc=3 IRadAn=         5 AccDes= 0.00D+00
 Harris functional with IExCor= 4639 and IRadAn=       5 diagonalized for initial guess.
 HarFok:  IExCor= 4639 AccDes= 0.00D+00 IRadAn=         5 IDoV= 1 UseB2=F ITyADJ=14
 ICtDFT=  3500011 ScaDFX=  1.000000  1.000000  1.000000  1.000000
 FoFCou: FMM=F IPFlag=           0 FMFlag=      100000 FMFlg1=           0
         NFxFlg=           0 DoJE=T BraDBF=F KetDBF=T FulRan=T
         wScrn=  0.000000 ICntrl=     500 IOpCl=  0 I1Cent=   200000004 NGrid=           0
         NMat0=    1 NMatS0=      1 NMatT0=    0 NMatD0=    1 NMtDS0=    0 NMtDT0=    0
 Petite list used in FoFCou.
 Harris En= -149.430531005873    
 JPrj=0 DoOrth=F DoCkMO=F.
 Initial guess orbital symmetries:
       Occupied  (BU) (AG) (AG) (BU) (AG) (BU) (AG) (BU) (BU) (AG)
                 (AU) (BG) (BU) (AG) (AG) (AU)
       Virtual   (BG) (AG) (BU) (BU) (BG) (AG) (AU) (AG) (BU) (BU)
                 (AG) (BG) (AU) (AG) (AG) (BU) (BU) (AG) (AU) (BU)
                 (BU) (BG) (AG) (BU) (BU) (AU) (AG) (BG) (AG) (BU)
                 (AG) (BU) (BU) (AG) (BG) (BU) (AU) (AG) (AU) (AG)
                 (BG) (BU) (AG) (BU) (AG) (AU) (AG) (BG) (AG) (BU)
                 (BU) (AU) (BU) (BG) (AG) (BU) (AU) (AG) (BU) (BG)
                 (BU) (AU) (BG) (AG) (BU) (AU) (AG) (BG) (BU) (AG)
                 (AG) (BG) (BU) (AU) (AG) (BU) (BG) (BU) (AG) (BU)
                 (AG) (AU) (BU) (AU) (AG) (BG) (AG) (BU) (BG) (AU)
                 (BU) (AU) (AG) (BG) (BU) (AG) (AU) (AG) (BU) (AG)
                 (BU) (BU) (AG) (BG) (AG) (AU) (BG) (BU) (AU) (AG)
                 (AG) (BU) (BG) (BU) (AU) (BU) (BG) (AG) (BG) (AU)
                 (BU) (AG) (BG) (AU) (AG) (BU) (AG) (BU) (BG) (AU)
                 (AG) (AU) (BU) (AG) (BU) (BU) (BG) (AU) (AG) (BU)
                 (AG) (BG) (AG) (BU) (BG) (AU) (AG) (BU) (BU) (AG)
                 (BU) (AG) (AG) (AG) (BU) (BU)
 The electronic state of the initial guess is 1-AG.
 Leave Link  401 at Fri Jul  9 19:19:44 2021, MaxMem=  4194304000 cpu:         6.2
 (Enter /home/minenky/programs//g09/l502.exe)
 Closed shell SCF:
 Using DIIS extrapolation, IDIIS=  1040.
 Integral symmetry usage will be decided dynamically.
 Keep R1 ints in memory in symmetry-blocked form, NReq=277912982.
 IVT=      263670 IEndB=      263670 NGot=  4194304000 MDV=  4165884226
 LenX=  4165884226 LenY=  4165846921
 Requested convergence on RMS density matrix=1.00D-08 within 380 cycles.
 Requested convergence on MAX density matrix=1.00D-06.
 Requested convergence on             energy=1.00D-06.
 No special actions if energy rises.
 FoFCou: FMM=F IPFlag=           0 FMFlag=           0 FMFlg1=           0
         NFxFlg=           0 DoJE=F BraDBF=F KetDBF=F FulRan=T
         wScrn=  0.000000 ICntrl=     600 IOpCl=  0 I1Cent=           0 NGrid=           0
         NMat0=    1 NMatS0=  14878 NMatT0=    0 NMatD0=    1 NMtDS0=    0 NMtDT0=    0
 Petite list used in FoFCou.
 Integral accuracy reduced to 1.0D-05 until final iterations.

 Cycle   1  Pass 0  IDiag  1:
 E= -157.174932967230    
 DIIS: error= 5.72D-02 at cycle   1 NSaved=   1.
 NSaved= 1 IEnMin= 1 EnMin= -157.174932967230     IErMin= 1 ErrMin= 5.72D-02
 ErrMax= 5.72D-02  0.00D+00 EMaxC= 1.00D-01 BMatC= 3.37D-01 BMatP= 3.37D-01
 IDIUse=3 WtCom= 4.28D-01 WtEn= 5.72D-01
 Coeff-Com:  0.100D+01
 Coeff-En:   0.100D+01
 Coeff:      0.100D+01
 Gap=     0.410 Goal=   None    Shift=    0.000
 GapD=    0.410 DampG=2.000 DampE=0.500 DampFc=1.0000 IDamp=-1.
 RMSDP=1.25D-03 MaxDP=3.03D-02              OVMax= 6.14D-02

 Cycle   2  Pass 0  IDiag  1:
 E= -157.218960586418     Delta-E=       -0.044027619188 Rises=F Damp=F
 DIIS: error= 1.15D-02 at cycle   2 NSaved=   2.
 NSaved= 2 IEnMin= 2 EnMin= -157.218960586418     IErMin= 2 ErrMin= 1.15D-02
 ErrMax= 1.15D-02  0.00D+00 EMaxC= 1.00D-01 BMatC= 1.15D-02 BMatP= 3.37D-01
 IDIUse=3 WtCom= 8.85D-01 WtEn= 1.15D-01
 Coeff-Com:  0.864D-01 0.914D+00
 Coeff-En:   0.000D+00 0.100D+01
 Coeff:      0.764D-01 0.924D+00
 Gap=     0.420 Goal=   None    Shift=    0.000
 RMSDP=6.71D-04 MaxDP=1.81D-02 DE=-4.40D-02 OVMax= 3.25D-02

 Cycle   3  Pass 0  IDiag  1:
 E= -157.226110787398     Delta-E=       -0.007150200980 Rises=F Damp=F
 DIIS: error= 6.99D-03 at cycle   3 NSaved=   3.
 NSaved= 3 IEnMin= 3 EnMin= -157.226110787398     IErMin= 3 ErrMin= 6.99D-03
 ErrMax= 6.99D-03  0.00D+00 EMaxC= 1.00D-01 BMatC= 4.26D-03 BMatP= 1.15D-02
 IDIUse=3 WtCom= 9.30D-01 WtEn= 6.99D-02
 Coeff-Com:  0.232D-01 0.385D+00 0.592D+00
 Coeff-En:   0.000D+00 0.200D+00 0.800D+00
 Coeff:      0.215D-01 0.372D+00 0.606D+00
 Gap=     0.416 Goal=   None    Shift=    0.000
 RMSDP=2.27D-04 MaxDP=6.32D-03 DE=-7.15D-03 OVMax= 1.39D-02

 Cycle   4  Pass 0  IDiag  1:
 E= -157.230147233389     Delta-E=       -0.004036445991 Rises=F Damp=F
 DIIS: error= 1.97D-04 at cycle   4 NSaved=   4.
 NSaved= 4 IEnMin= 4 EnMin= -157.230147233389     IErMin= 4 ErrMin= 1.97D-04
 ErrMax= 1.97D-04  0.00D+00 EMaxC= 1.00D-01 BMatC= 8.49D-06 BMatP= 4.26D-03
 IDIUse=3 WtCom= 9.98D-01 WtEn= 1.97D-03
 Coeff-Com: -0.291D-02-0.456D-01-0.302D-01 0.108D+01
 Coeff-En:   0.000D+00 0.000D+00 0.000D+00 0.100D+01
 Coeff:     -0.290D-02-0.455D-01-0.302D-01 0.108D+01
 Gap=     0.416 Goal=   None    Shift=    0.000
 RMSDP=3.95D-05 MaxDP=6.58D-04 DE=-4.04D-03 OVMax= 1.08D-03

 Cycle   5  Pass 0  IDiag  1:
 E= -157.230159322890     Delta-E=       -0.000012089501 Rises=F Damp=F
 DIIS: error= 5.68D-05 at cycle   5 NSaved=   5.
 NSaved= 5 IEnMin= 5 EnMin= -157.230159322890     IErMin= 5 ErrMin= 5.68D-05
 ErrMax= 5.68D-05  0.00D+00 EMaxC= 1.00D-01 BMatC= 2.49D-07 BMatP= 8.49D-06
 IDIUse=1 WtCom= 1.00D+00 WtEn= 0.00D+00
 Coeff-Com: -0.110D-02-0.182D-01-0.221D-01 0.123D+00 0.919D+00
 Coeff:     -0.110D-02-0.182D-01-0.221D-01 0.123D+00 0.919D+00
 Gap=     0.416 Goal=   None    Shift=    0.000
 RMSDP=8.24D-06 MaxDP=1.18D-04 DE=-1.21D-05 OVMax= 2.33D-04

 Initial convergence to 1.0D-05 achieved.  Increase integral accuracy.
 Cycle   6  Pass 1  IDiag  1:
 E= -157.230232748325     Delta-E=       -0.000073425435 Rises=F Damp=F
 DIIS: error= 3.87D-05 at cycle   1 NSaved=   1.
 NSaved= 1 IEnMin= 1 EnMin= -157.230232748325     IErMin= 1 ErrMin= 3.87D-05
 ErrMax= 3.87D-05  0.00D+00 EMaxC= 1.00D-01 BMatC= 2.70D-07 BMatP= 2.70D-07
 IDIUse=1 WtCom= 1.00D+00 WtEn= 0.00D+00
 Coeff-Com:  0.100D+01
 Coeff:      0.100D+01
 Gap=     0.416 Goal=   None    Shift=    0.000
 RMSDP=8.24D-06 MaxDP=1.18D-04 DE=-7.34D-05 OVMax= 1.29D-04

 Cycle   7  Pass 1  IDiag  1:
 E= -157.230232931769     Delta-E=       -0.000000183445 Rises=F Damp=F
 DIIS: error= 1.27D-05 at cycle   2 NSaved=   2.
 NSaved= 2 IEnMin= 2 EnMin= -157.230232931769     IErMin= 2 ErrMin= 1.27D-05
 ErrMax= 1.27D-05  0.00D+00 EMaxC= 1.00D-01 BMatC= 2.07D-08 BMatP= 2.70D-07
 IDIUse=1 WtCom= 1.00D+00 WtEn= 0.00D+00
 Coeff-Com:  0.844D-01 0.916D+00
 Coeff:      0.844D-01 0.916D+00
 Gap=     0.416 Goal=   None    Shift=    0.000
 RMSDP=1.05D-06 MaxDP=1.99D-05 DE=-1.83D-07 OVMax= 5.19D-05

 Cycle   8  Pass 1  IDiag  1:
 E= -157.230232944978     Delta-E=       -0.000000013208 Rises=F Damp=F
 DIIS: error= 7.77D-06 at cycle   3 NSaved=   3.
 NSaved= 3 IEnMin= 3 EnMin= -157.230232944978     IErMin= 3 ErrMin= 7.77D-06
 ErrMax= 7.77D-06  0.00D+00 EMaxC= 1.00D-01 BMatC= 8.27D-09 BMatP= 2.07D-08
 IDIUse=1 WtCom= 1.00D+00 WtEn= 0.00D+00
 Coeff-Com: -0.381D-01 0.377D+00 0.661D+00
 Coeff:     -0.381D-01 0.377D+00 0.661D+00
 Gap=     0.416 Goal=   None    Shift=    0.000
 RMSDP=3.22D-07 MaxDP=7.58D-06 DE=-1.32D-08 OVMax= 1.96D-05

 Cycle   9  Pass 1  IDiag  1:
 E= -157.230232952763     Delta-E=       -0.000000007786 Rises=F Damp=F
 DIIS: error= 5.85D-07 at cycle   4 NSaved=   4.
 NSaved= 4 IEnMin= 4 EnMin= -157.230232952763     IErMin= 4 ErrMin= 5.85D-07
 ErrMax= 5.85D-07  0.00D+00 EMaxC= 1.00D-01 BMatC= 3.05D-11 BMatP= 8.27D-09
 IDIUse=1 WtCom= 1.00D+00 WtEn= 0.00D+00
 Coeff-Com:  0.389D-03-0.387D-01-0.339D-01 0.107D+01
 Coeff:      0.389D-03-0.387D-01-0.339D-01 0.107D+01
 Gap=     0.416 Goal=   None    Shift=    0.000
 RMSDP=1.09D-07 MaxDP=1.46D-06 DE=-7.79D-09 OVMax= 4.33D-06

 Cycle  10  Pass 1  IDiag  1:
 E= -157.230232952842     Delta-E=       -0.000000000078 Rises=F Damp=F
 DIIS: error= 2.90D-07 at cycle   5 NSaved=   5.
 NSaved= 5 IEnMin= 5 EnMin= -157.230232952842     IErMin= 5 ErrMin= 2.90D-07
 ErrMax= 2.90D-07  0.00D+00 EMaxC= 1.00D-01 BMatC= 2.09D-12 BMatP= 3.05D-11
 IDIUse=1 WtCom= 1.00D+00 WtEn= 0.00D+00
 Coeff-Com:  0.238D-02-0.261D-01-0.432D-01 0.975D-01 0.969D+00
 Coeff:      0.238D-02-0.261D-01-0.432D-01 0.975D-01 0.969D+00
 Gap=     0.416 Goal=   None    Shift=    0.000
 RMSDP=2.94D-08 MaxDP=3.72D-07 DE=-7.81D-11 OVMax= 1.31D-06

 Cycle  11  Pass 1  IDiag  1:
 E= -157.230232952852     Delta-E=       -0.000000000011 Rises=F Damp=F
 DIIS: error= 2.55D-08 at cycle   6 NSaved=   6.
 NSaved= 6 IEnMin= 6 EnMin= -157.230232952852     IErMin= 6 ErrMin= 2.55D-08
 ErrMax= 2.55D-08  0.00D+00 EMaxC= 1.00D-01 BMatC= 3.33D-14 BMatP= 2.09D-12
 IDIUse=1 WtCom= 1.00D+00 WtEn= 0.00D+00
 Coeff-Com:  0.352D-04 0.747D-03 0.584D-03-0.292D-01 0.721D-02 0.102D+01
 Coeff:      0.352D-04 0.747D-03 0.584D-03-0.292D-01 0.721D-02 0.102D+01
 Gap=     0.416 Goal=   None    Shift=    0.000
 RMSDP=4.45D-09 MaxDP=6.08D-08 DE=-1.06D-11 OVMax= 1.87D-07

 SCF Done:  E(RwB97XD) =  -157.230232953     A.U. after   11 cycles
            NFock= 11  Conv=0.44D-08     -V/T= 2.0057
 KE= 1.563359577456D+02 PE=-5.958466370211D+02 EE= 1.662285829377D+02
 Leave Link  502 at Fri Jul  9 19:19:49 2021, MaxMem=  4194304000 cpu:        82.6
 (Enter /home/minenky/programs//g09/l601.exe)
 Copying SCF densities to generalized density rwf, IOpCl= 0 IROHF=0.

 **********************************************************************

            Population analysis using the SCF density.

 **********************************************************************

 Orbital symmetries:
       Occupied  (AG) (BU) (AG) (BU) (AG) (BU) (AG) (BU) (BU) (AG)
                 (AU) (BG) (BU) (AG) (AG) (AU)
       Virtual   (BG) (AG) (BU) (BU) (AG) (BG) (AU) (AG) (BU) (BU)
                 (AG) (BG) (AU) (AG) (AG) (BU) (BU) (AG) (AU) (BU)
                 (BU) (BG) (AG) (BU) (BU) (AG) (AU) (AG) (BG) (BU)
                 (BU) (AG) (BU) (AG) (BG) (BU) (AU) (AG) (AU) (AG)
                 (BG) (BU) (AG) (BU) (AG) (AU) (AG) (BG) (AG) (BU)
                 (BU) (AU) (BU) (BG) (AG) (BU) (AU) (AG) (BU) (BG)
                 (AU) (BU) (BG) (AG) (BU) (AU) (AG) (BG) (BU) (AG)
                 (BG) (AG) (BU) (AU) (AG) (BU) (BG) (BU) (AG) (BU)
                 (AU) (AG) (AU) (BU) (AG) (BG) (AG) (BU) (BG) (AU)
                 (BU) (AU) (AG) (BG) (BU) (AG) (AU) (AG) (BU) (AG)
                 (BU) (BU) (AG) (BG) (AG) (AU) (BG) (BU) (AG) (AU)
                 (AG) (BU) (BU) (BG) (AU) (BU) (BG) (AG) (BG) (AU)
                 (BU) (AG) (BG) (AU) (AG) (BU) (AG) (BU) (BG) (AU)
                 (AG) (AU) (BU) (AG) (BU) (BU) (BG) (AU) (AG) (BU)
                 (AG) (BG) (AG) (BU) (BG) (AU) (AG) (BU) (BU) (AG)
                 (BU) (AG) (AG) (AG) (BU) (BU)
 The electronic state is 1-AG.
 Alpha  occ. eigenvalues --  -10.27732 -10.27638 -10.27396 -10.27396  -0.89737
 Alpha  occ. eigenvalues --   -0.82545  -0.73755  -0.63707  -0.53075  -0.52744
 Alpha  occ. eigenvalues --   -0.50229  -0.48628  -0.45552  -0.44273  -0.41984
 Alpha  occ. eigenvalues --   -0.32175
 Alpha virt. eigenvalues --    0.09407   0.12962   0.13597   0.14884   0.18662
 Alpha virt. eigenvalues --    0.18745   0.20167   0.20828   0.21119   0.24106
 Alpha virt. eigenvalues --    0.26158   0.28626   0.29921   0.30612   0.32980
 Alpha virt. eigenvalues --    0.33048   0.36623   0.38611   0.40129   0.42968
 Alpha virt. eigenvalues --    0.43771   0.44943   0.47869   0.49136   0.51750
 Alpha virt. eigenvalues --    0.53027   0.53588   0.54749   0.55306   0.55776
 Alpha virt. eigenvalues --    0.58615   0.59594   0.65839   0.68291   0.70480
 Alpha virt. eigenvalues --    0.71929   0.73841   0.75056   0.87038   0.88790
 Alpha virt. eigenvalues --    0.90322   0.92684   1.02047   1.02764   1.06042
 Alpha virt. eigenvalues --    1.08428   1.12811   1.16301   1.18137   1.18311
 Alpha virt. eigenvalues --    1.23139   1.23759   1.29779   1.31091   1.39593
 Alpha virt. eigenvalues --    1.44522   1.56464   1.59182   1.59358   1.61680
 Alpha virt. eigenvalues --    1.62569   1.62615   1.62825   1.64989   1.65848
 Alpha virt. eigenvalues --    1.66008   1.66803   1.73463   1.74570   1.83911
 Alpha virt. eigenvalues --    1.88410   1.88650   1.93012   1.94134   2.02501
 Alpha virt. eigenvalues --    2.04955   2.13502   2.14847   2.16129   2.21604
 Alpha virt. eigenvalues --    2.29656   2.31002   2.37703   2.37897   2.38873
 Alpha virt. eigenvalues --    2.42974   2.42979   2.44757   2.45522   2.51291
 Alpha virt. eigenvalues --    2.51334   2.62212   2.63313   2.63814   2.66319
 Alpha virt. eigenvalues --    2.66406   2.70528   2.73568   2.77523   2.81368
 Alpha virt. eigenvalues --    2.88513   2.90183   2.92641   2.95721   2.99171
 Alpha virt. eigenvalues --    3.00227   3.04596   3.10702   3.12073   3.14061
 Alpha virt. eigenvalues --    3.16449   3.19841   3.22843   3.23107   3.27576
 Alpha virt. eigenvalues --    3.27781   3.28341   3.31166   3.32794   3.34901
 Alpha virt. eigenvalues --    3.37448   3.40014   3.47652   3.48074   3.56378
 Alpha virt. eigenvalues --    3.61886   3.64365   3.71403   3.76839   3.78868
 Alpha virt. eigenvalues --    3.79182   3.81825   3.81911   3.90496   3.98255
 Alpha virt. eigenvalues --    4.09628   4.13590   4.15414   4.27566   4.38860
 Alpha virt. eigenvalues --    4.39903   4.44452   4.49757   4.57323   4.61246
 Alpha virt. eigenvalues --    4.61741   4.74278   4.79741   4.81589   5.00835
 Alpha virt. eigenvalues --    5.12023   5.13300  22.25641  22.41692  22.48083
 Alpha virt. eigenvalues --   22.95614
          Condensed to atoms (all electrons):
               1          2          3          4          5          6
     1  C    4.963579   0.681714   0.397544  -0.038321   0.302825  -0.039913
     2  C    0.681714   4.963579  -0.038321   0.397544  -0.039913   0.302825
     3  H    0.397544  -0.038321   0.561927   0.006766  -0.032152  -0.007084
     4  H   -0.038321   0.397544   0.006766   0.561927  -0.007084  -0.032152
     5  C    0.302825  -0.039913  -0.032152  -0.007084   4.835074   0.009102
     6  C   -0.039913   0.302825  -0.007084  -0.032152   0.009102   4.835074
     7  H   -0.063096   0.011761   0.004760   0.004148   0.421838   0.000795
     8  H   -0.034253  -0.004015  -0.001967   0.000102   0.409531  -0.000414
     9  H   -0.034253  -0.004015  -0.001967   0.000102   0.409531  -0.000414
    10  H    0.011761  -0.063096   0.004148   0.004760   0.000795   0.421838
    11  H   -0.004015  -0.034253   0.000102  -0.001967  -0.000414   0.409531
    12  H   -0.004015  -0.034253   0.000102  -0.001967  -0.000414   0.409531
               7          8          9         10         11         12
     1  C   -0.063096  -0.034253  -0.034253   0.011761  -0.004015  -0.004015
     2  C    0.011761  -0.004015  -0.004015  -0.063096  -0.034253  -0.034253
     3  H    0.004760  -0.001967  -0.001967   0.004148   0.000102   0.000102
     4  H    0.004148   0.000102   0.000102   0.004760  -0.001967  -0.001967
     5  C    0.421838   0.409531   0.409531   0.000795  -0.000414  -0.000414
     6  C    0.000795  -0.000414  -0.000414   0.421838   0.409531   0.409531
     7  H    0.556247  -0.022558  -0.022558   0.000036  -0.000026  -0.000026
     8  H   -0.022558   0.572352  -0.035554  -0.000026   0.000110  -0.000035
     9  H   -0.022558  -0.035554   0.572352  -0.000026  -0.000035   0.000110
    10  H    0.000036  -0.000026  -0.000026   0.556247  -0.022558  -0.022558
    11  H   -0.000026   0.000110  -0.000035  -0.022558   0.572352  -0.035554
    12  H   -0.000026  -0.000035   0.000110  -0.022558  -0.035554   0.572352
 Mulliken charges:
               1
     1  C   -0.139558
     2  C   -0.139558
     3  H    0.106142
     4  H    0.106142
     5  C   -0.308718
     6  C   -0.308718
     7  H    0.108678
     8  H    0.116728
     9  H    0.116728
    10  H    0.108678
    11  H    0.116728
    12  H    0.116728
 Sum of Mulliken charges =   0.00000
 Mulliken charges with hydrogens summed into heavy atoms:
               1
     1  C   -0.033416
     2  C   -0.033416
     5  C    0.033416
     6  C    0.033416
 Electronic spatial extent (au):  <R**2>=            397.8064
 Charge=              0.0000 electrons
 Dipole moment (field-independent basis, Debye):
    X=              0.0000    Y=              0.0000    Z=              0.0000  Tot=              0.0000
 Quadrupole moment (field-independent basis, Debye-Ang):
   XX=            -25.5860   YY=            -25.3274   ZZ=            -28.0353
   XY=             -0.3731   XZ=              0.0000   YZ=              0.0000
 Traceless Quadrupole moment (field-independent basis, Debye-Ang):
   XX=              0.7302   YY=              0.9888   ZZ=             -1.7190
   XY=             -0.3731   XZ=              0.0000   YZ=              0.0000
 Octapole moment (field-independent basis, Debye-Ang**2):
  XXX=              0.0000  YYY=              0.0000  ZZZ=              0.0000  XYY=              0.0000
  XXY=              0.0000  XXZ=              0.0000  XZZ=              0.0000  YZZ=              0.0000
  YYZ=              0.0000  XYZ=              0.0000
 Hexadecapole moment (field-independent basis, Debye-Ang**3):
 XXXX=            -71.9300 YYYY=           -435.5809 ZZZZ=            -45.1911 XXXY=            -21.7412
 XXXZ=              0.0000 YYYX=            -26.8987 YYYZ=              0.0000 ZZZX=              0.0000
 ZZZY=              0.0000 XXYY=            -86.4486 XXZZ=            -22.0655 YYZZ=            -74.1664
 XXYZ=              0.0000 YYXZ=              0.0000 ZZXY=             -9.1466
 N-N= 1.160518633849D+02 E-N=-5.958466358170D+02  KE= 1.563359577456D+02
 Symmetry AG   KE= 7.688574463463D+01
 Symmetry BG   KE= 1.939413057112D+00
 Symmetry AU   KE= 4.125397524616D+00
 Symmetry BU   KE= 7.338540252923D+01
 No NMR shielding tensors so no spin-rotation constants.
 Leave Link  601 at Fri Jul  9 19:19:51 2021, MaxMem=  4194304000 cpu:        15.0
 (Enter /home/minenky/programs//g09/l701.exe)
 Compute integral first derivatives.
 ... and contract with generalized density number  0.
 R6Disp: Adding Grimme-D2 dispersion energy 1st derivatives to the gradient.
   4 Symmetry operations used in ECPInt.
 ECPInt:  NShTT=    2926 NPrTT=    8368 LenC2=    2907 LenP2D=    7107.
 LDataN:  DoStor=T MaxTD1= 7 Len=  274
 Leave Link  701 at Fri Jul  9 19:19:52 2021, MaxMem=  4194304000 cpu:        19.6
 (Enter /home/minenky/programs//g09/l702.exe)
 L702 exits ... SP integral derivatives will be done elsewhere.
 Leave Link  702 at Fri Jul  9 19:19:53 2021, MaxMem=  4194304000 cpu:         0.3
 (Enter /home/minenky/programs//g09/l703.exe)
 Compute integral first derivatives, UseDBF=F ICtDFT=           0.
 Integral derivatives from FoFJK, PRISM(SPDF).
 Calling FoFJK, ICntrl=      2127 FMM=F ISym2X=1 I1Cent= 0 IOpClX= 0 NMat=1 NMatS=1 NMatT=0.
 FoFJK:  IHMeth= 1 ICntrl=    2127 DoSepK=T KAlg= 0 I1Cent=   0 FoldK=F
 IRaf=         1 NMat=   1 IRICut=       1 DoRegI=T DoRafI=F ISym2E= 1.
 FoFCou: FMM=F IPFlag=           0 FMFlag=      100000 FMFlg1=         800
         NFxFlg=           0 DoJE=F BraDBF=F KetDBF=F FulRan=T
         wScrn=  0.000000 ICntrl=    2527 IOpCl=  0 I1Cent=           0 NGrid=           0
         NMat0=    1 NMatS0=      1 NMatT0=    0 NMatD0=    1 NMtDS0=    0 NMtDT0=    0
 Petite list used in FoFCou.
 Leave Link  703 at Fri Jul  9 19:19:57 2021, MaxMem=  4194304000 cpu:        54.3
 (Enter /home/minenky/programs//g09/l716.exe)
 Dipole        = 2.35922393D-16 3.55271368D-15 2.22044605D-16
 ***** Axes restored to original set *****
 -------------------------------------------------------------------
 Center     Atomic                   Forces (Hartrees/Bohr)
 Number     Number              X              Y              Z
 -------------------------------------------------------------------
      1        6           0.001496671   -0.002488721    0.000000000
      2        6          -0.001496671    0.002488721    0.000000000
      3        1          -0.000012097   -0.000049050    0.000000000
      4        1           0.000012097    0.000049050    0.000000000
      5        6          -0.000001412    0.000356704    0.000000000
      6        6           0.000001412   -0.000356704    0.000000000
      7        1          -0.000061550   -0.000066873    0.000000000
      8        1           0.000022409   -0.000637350   -0.000234853
      9        1           0.000022409   -0.000637350    0.000234853
     10        1           0.000061550    0.000066873    0.000000000
     11        1          -0.000022409    0.000637350   -0.000234853
     12        1          -0.000022409    0.000637350    0.000234853
 -------------------------------------------------------------------
 Cartesian Forces:  Max     0.002488721 RMS     0.000726313
 Leave Link  716 at Fri Jul  9 19:19:58 2021, MaxMem=  4194304000 cpu:         0.2
 (Enter /home/minenky/programs//g09/l103.exe)

 GradGradGradGradGradGradGradGradGradGradGradGradGradGradGradGradGradGrad
 Berny optimization.
 FormGI is forming the generalized inverse of G from B-inverse, IUseBI=4.
 Internal  Forces:  Max     0.003791855 RMS     0.000651658
 Search for a local minimum.
 Step number   1 out of a maximum of   55
 All quantities printed in internal units (Hartrees-Bohrs-Radians)
 RMS Force = .65166D-03 SwitMx=.10000D-02 MixMth= 2
 Mixed Optimization -- En-DIIS/RFO-DIIS
 Second derivative matrix not updated -- first step.
 ITU=  0
     Eigenvalues ---    0.00815   0.00815   0.01727   0.01727   0.03038
     Eigenvalues ---    0.07159   0.07159   0.07263   0.07263   0.16000
     Eigenvalues ---    0.16000   0.16000   0.16000   0.16000   0.16000
     Eigenvalues ---    0.16000   0.16000   0.22000   0.22000   0.32773
     Eigenvalues ---    0.32773   0.34342   0.34342   0.34342   0.34342
     Eigenvalues ---    0.34687   0.34687   0.35017   0.35017   0.59924
 RFO step:  Lambda=-4.38262885D-05 EMin= 8.15436892D-03
 Linear search not attempted -- first point.
 Iteration  1 RMS(Cart)=  0.00428404 RMS(Int)=  0.00000249
 Iteration  2 RMS(Cart)=  0.00000215 RMS(Int)=  0.00000102
 Iteration  3 RMS(Cart)=  0.00000000 RMS(Int)=  0.00000102
 ITry= 1 IFail=0 DXMaxC= 1.18D-02 DCOld= 1.00D+10 DXMaxT= 3.00D-01 DXLimC= 3.00D+00 Rises=F
 ClnCor:  largest displacement from symmetrization is 2.34D-13 for atom     9.
 Variable       Old X    -DE/DX   Delta X   Delta X   Delta X     New X
                                 (Linear)    (Quad)   (Total)
    R1        2.51001  -0.00379   0.00000  -0.00633  -0.00633   2.50368
    R2        2.05647   0.00001   0.00000   0.00004   0.00004   2.05650
    R3        2.82752  -0.00090   0.00000  -0.00273  -0.00273   2.82479
    R4        2.05647   0.00001   0.00000   0.00004   0.00004   2.05650
    R5        2.82752  -0.00090   0.00000  -0.00273  -0.00273   2.82479
    R6        2.06186  -0.00006   0.00000  -0.00016  -0.00016   2.06170
    R7        2.06756  -0.00053   0.00000  -0.00155  -0.00155   2.06601
    R8        2.06756  -0.00053   0.00000  -0.00155  -0.00155   2.06601
    R9        2.06186  -0.00006   0.00000  -0.00016  -0.00016   2.06170
   R10        2.06756  -0.00053   0.00000  -0.00155  -0.00155   2.06601
   R11        2.06756  -0.00053   0.00000  -0.00155  -0.00155   2.06601
    A1        2.06915   0.00015   0.00000   0.00059   0.00059   2.06973
    A2        2.18556  -0.00040   0.00000  -0.00180  -0.00180   2.18376
    A3        2.02847   0.00025   0.00000   0.00121   0.00121   2.02969
    A4        2.06915   0.00015   0.00000   0.00059   0.00059   2.06973
    A5        2.18556  -0.00040   0.00000  -0.00180  -0.00180   2.18376
    A6        2.02847   0.00025   0.00000   0.00121   0.00121   2.02969
    A7        1.94420   0.00007   0.00000   0.00037   0.00037   1.94457
    A8        1.94098  -0.00046   0.00000  -0.00283  -0.00283   1.93814
    A9        1.94098  -0.00046   0.00000  -0.00283  -0.00283   1.93814
   A10        1.88676   0.00020   0.00000   0.00120   0.00120   1.88796
   A11        1.88676   0.00020   0.00000   0.00120   0.00120   1.88796
   A12        1.86093   0.00050   0.00000   0.00321   0.00321   1.86414
   A13        1.94420   0.00007   0.00000   0.00037   0.00037   1.94457
   A14        1.94098  -0.00046   0.00000  -0.00283  -0.00283   1.93814
   A15        1.94098  -0.00046   0.00000  -0.00283  -0.00283   1.93814
   A16        1.88676   0.00020   0.00000   0.00120   0.00120   1.88796
   A17        1.88676   0.00020   0.00000   0.00120   0.00120   1.88796
   A18        1.86093   0.00050   0.00000   0.00321   0.00321   1.86414
    D1        3.14159   0.00000   0.00000   0.00000   0.00000   3.14159
    D2        0.00000   0.00000   0.00000   0.00000   0.00000   0.00000
    D3        0.00000   0.00000   0.00000   0.00000   0.00000   0.00000
    D4        3.14159   0.00000   0.00000   0.00000   0.00000   3.14159
    D5        0.00000   0.00000   0.00000   0.00000   0.00000   0.00000
    D6       -2.10600   0.00001   0.00000   0.00016   0.00016  -2.10584
    D7        2.10600  -0.00001   0.00000  -0.00016  -0.00016   2.10584
    D8        3.14159   0.00000   0.00000   0.00000   0.00000   3.14159
    D9        1.03559   0.00001   0.00000   0.00016   0.00016   1.03576
   D10       -1.03559  -0.00001   0.00000  -0.00016  -0.00016  -1.03576
   D11        0.00000   0.00000   0.00000   0.00000   0.00000   0.00000
   D12       -2.10600   0.00001   0.00000   0.00016   0.00016  -2.10584
   D13        2.10600  -0.00001   0.00000  -0.00016  -0.00016   2.10584
   D14        3.14159   0.00000   0.00000   0.00000   0.00000   3.14159
   D15        1.03559   0.00001   0.00000   0.00016   0.00016   1.03576
   D16       -1.03559  -0.00001   0.00000  -0.00016  -0.00016  -1.03576
         Item               Value     Threshold  Converged?
 Maximum Force            0.003792     0.000015     NO 
 RMS     Force            0.000652     0.000010     NO 
 Maximum Displacement     0.011756     0.000060     NO 
 RMS     Displacement     0.004284     0.000040     NO 
 Predicted change in Energy=-2.191338D-05
 Lowest energy point so far.  Saving SCF results.
 GradGradGradGradGradGradGradGradGradGradGradGradGradGradGradGradGradGrad

 Leave Link  103 at Fri Jul  9 19:20:02 2021, MaxMem=  4194304000 cpu:        45.4
 (Enter /home/minenky/programs//g09/l202.exe)
                          Input orientation:                          
 ---------------------------------------------------------------------
 Center     Atomic      Atomic             Coordinates (Angstroms)
 Number     Number       Type             X           Y           Z
 ---------------------------------------------------------------------
      1          6           0       -0.323403    0.578138    0.000000
      2          6           0        0.323403   -0.578138    0.000000
      3          1           0       -1.411590    0.566077    0.000000
      4          1           0        1.411590   -0.566077    0.000000
      5          6           0        0.323835    1.925561    0.000000
      6          6           0       -0.323835   -1.925561    0.000000
      7          1           0        1.411852    1.844863    0.000000
      8          1           0        0.024892    2.504750    0.877750
      9          1           0        0.024892    2.504750   -0.877750
     10          1           0       -1.411852   -1.844863    0.000000
     11          1           0       -0.024892   -2.504750    0.877750
     12          1           0       -0.024892   -2.504750   -0.877750
 ---------------------------------------------------------------------
                    Distance matrix (angstroms):
                    1          2          3          4          5
     1  C    0.000000
     2  C    1.324890   0.000000
     3  H    1.088254   2.078323   0.000000
     4  H    2.078323   1.088254   3.041729   0.000000
     5  C    1.494813   2.503699   2.204517   2.718726   0.000000
     6  C    2.503699   1.494813   2.718726   2.204517   3.905204
     7  H    2.148418   2.656248   3.099535   2.410940   1.091006
     8  H    2.145597   3.219278   2.567563   3.481861   1.093285
     9  H    2.145597   3.219278   2.567563   3.481861   1.093285
    10  H    2.656248   2.148418   2.410940   3.099535   4.150748
    11  H    3.219278   2.145597   3.481861   2.567563   4.529869
    12  H    3.219278   2.145597   3.481861   2.567563   4.529869
                    6          7          8          9         10
     6  C    0.000000
     7  H    4.150748   0.000000
     8  H    4.529869   1.769055   0.000000
     9  H    4.529869   1.769055   1.755499   0.000000
    10  H    1.091006   4.646222   4.664098   4.664098   0.000000
    11  H    1.093285   4.664098   5.009748   5.308422   1.769055
    12  H    1.093285   4.664098   5.308422   5.009748   1.769055
                   11         12
    11  H    0.000000
    12  H    1.755499   0.000000
 Stoichiometry    C4H8
 Framework group  C2H[SGH(C4H4),X(H4)]
 Deg. of freedom    10
 Full point group                 C2H     NOp   4
 RotChk:  IX=0 Diff= 2.44D-04
 Largest Abelian subgroup         C2H     NOp   4
 Largest concise Abelian subgroup C2H     NOp   4
                         Standard orientation:                         
 ---------------------------------------------------------------------
 Center     Atomic      Atomic             Coordinates (Angstroms)
 Number     Number       Type             X           Y           Z
 ---------------------------------------------------------------------
      1          6           0       -0.323503    0.578082    0.000000
      2          6           0        0.323503   -0.578082    0.000000
      3          1           0       -1.411687    0.565833    0.000000
      4          1           0        1.411687   -0.565833    0.000000
      5          6           0        0.323503    1.925617    0.000000
      6          6           0       -0.323503   -1.925617    0.000000
      7          1           0        1.411534    1.845106    0.000000
      8          1           0        0.024460    2.504754    0.877750
      9          1           0        0.024460    2.504754   -0.877750
     10          1           0       -1.411534   -1.845106    0.000000
     11          1           0       -0.024460   -2.504754    0.877750
     12          1           0       -0.024460   -2.504754   -0.877750
 ---------------------------------------------------------------------
 Rotational constants (GHZ):     35.0300112      3.7531437      3.5373324
 Leave Link  202 at Fri Jul  9 19:20:02 2021, MaxMem=  4194304000 cpu:         0.8
 (Enter /home/minenky/programs//g09/l301.exe)
 Standard basis: def2TZVP (5D, 7F)
 Ernie: Thresh=  0.10000D-02 Tol=  0.10000D-05 Strict=F.
 There are    66 symmetry adapted cartesian basis functions of AG  symmetry.
 There are    30 symmetry adapted cartesian basis functions of BG  symmetry.
 There are    30 symmetry adapted cartesian basis functions of AU  symmetry.
 There are    66 symmetry adapted cartesian basis functions of BU  symmetry.
 There are    58 symmetry adapted basis functions of AG  symmetry.
 There are    28 symmetry adapted basis functions of BG  symmetry.
 There are    28 symmetry adapted basis functions of AU  symmetry.
 There are    58 symmetry adapted basis functions of BU  symmetry.
   172 basis functions,   268 primitive gaussians,   192 cartesian basis functions
    16 alpha electrons       16 beta electrons
       nuclear repulsion energy       116.2159509882 Hartrees.
 IExCor= 4639 DFT=T Ex+Corr=wB97XD ExCW=0 ScaHFX=  1.000000
 ScaDFX=  1.000000  1.000000  1.000000  1.000000 ScalE2=  1.000000  1.000000
 IRadAn=      5 IRanWt=     -1 IRanGd=            0 ICorTp=0 IEmpDi=121
  HFx wShort=  0.000000 wLong=  0.200000 cFull=  0.222036 cShort=  0.000000 cLong=  0.777964
  DFx wShort=  0.000000 wLong=  0.200000 cFull=  0.000000 cShort=  0.000000 cLong=  1.000000
 NAtoms=   12 NActive=   12 NUniq=    5 SFac= 4.00D+00 NAtFMM=   60 NAOKFM=F Big=F
 Integral buffers will be    131072 words long.
 Raffenetti 2 integral format.
 Two-electron integral symmetry is turned on.
 R6Disp:  Grimme-D2 Dispersion energy=       -0.0039402760 Hartrees.
 Nuclear repulsion after empirical dispersion term =      116.2120107122 Hartrees.
 Leave Link  301 at Fri Jul  9 19:20:02 2021, MaxMem=  4194304000 cpu:         0.3
 (Enter /home/minenky/programs//g09/l302.exe)
 NPDir=0 NMtPBC=     1 NCelOv=     1 NCel=       1 NClECP=     1 NCelD=      1
         NCelK=      1 NCelE2=     1 NClLst=     1 CellRange=     0.0.
 One-electron integrals computed using PRISM.
 One-electron integral symmetry used in STVInt
   4 Symmetry operations used in ECPInt.
 ECPInt:  NShTT=    2926 NPrTT=    8368 LenC2=    2907 LenP2D=    7107.
 LDataN:  DoStor=T MaxTD1= 6 Len=  172
 NBasis=   172 RedAO= T EigKep=  1.36D-04  NBF=    58    28    28    58
 NBsUse=   172 1.00D-06 EigRej= -1.00D+00 NBFU=    58    28    28    58
 Precomputing XC quadrature grid using
 IXCGrd= 4 IRadAn=           5 IRanWt=          -1 IRanGd=           0 AccXCQ= 0.00D+00.
 Generated NRdTot=       0 NPtTot=           0 NUsed=           0 NTot=          32
 NSgBfM=   192   192   192   192   192 MxSgAt=    12 MxSgA2=    12.
 Leave Link  302 at Fri Jul  9 19:20:02 2021, MaxMem=  4194304000 cpu:         2.8
 (Enter /home/minenky/programs//g09/l303.exe)
 DipDrv:  MaxL=1.
 Leave Link  303 at Fri Jul  9 19:20:02 2021, MaxMem=  4194304000 cpu:         0.3
 (Enter /home/minenky/programs//g09/l401.exe)
 Initial guess from the checkpoint file:  "m1_00_624-64-60_C4H8_wB97XD.chk"
 B after Tr=     0.000000    0.000000    0.000000
         Rot=    1.000000    0.000000    0.000000   -0.000020 Ang=   0.00 deg.
 Guess basis will be translated and rotated to current coordinates.
 JPrj=2 DoOrth=T DoCkMO=T.
 Initial guess orbital symmetries:
       Occupied  (AG) (BU) (AG) (BU) (AG) (BU) (AG) (BU) (BU) (AG)
                 (AU) (BG) (BU) (AG) (AG) (AU)
       Virtual   (AG) (AG) (AG) (AG) (AG) (AG) (AG) (AG) (AG) (AG)
                 (AG) (AG) (AG) (AG) (AG) (AG) (AG) (AG) (AG) (AG)
                 (AG) (AG) (AG) (AG) (AG) (AG) (AG) (AG) (AG) (AG)
                 (AG) (AG) (AG) (AG) (AG) (AG) (AG) (AG) (AG) (AG)
                 (AG) (AG) (AG) (AG) (AG) (AG) (AG) (AG) (AG) (AG)
                 (AG) (BG) (BG) (BG) (BG) (BG) (BG) (BG) (BG) (BG)
                 (BG) (BG) (BG) (BG) (BG) (BG) (BG) (BG) (BG) (BG)
                 (BG) (BG) (BG) (BG) (BG) (BG) (BG) (BG) (AU) (AU)
                 (AU) (AU) (AU) (AU) (AU) (AU) (AU) (AU) (AU) (AU)
                 (AU) (AU) (AU) (AU) (AU) (AU) (AU) (AU) (AU) (AU)
                 (AU) (AU) (AU) (AU) (BU) (BU) (BU) (BU) (BU) (BU)
                 (BU) (BU) (BU) (BU) (BU) (BU) (BU) (BU) (BU) (BU)
                 (BU) (BU) (BU) (BU) (BU) (BU) (BU) (BU) (BU) (BU)
                 (BU) (BU) (BU) (BU) (BU) (BU) (BU) (BU) (BU) (BU)
                 (BU) (BU) (BU) (BU) (BU) (BU) (BU) (BU) (BU) (BU)
                 (BU) (BU) (BU) (BU) (BU) (BU)
 The electronic state of the initial guess is 1-AG.
 Leave Link  401 at Fri Jul  9 19:20:04 2021, MaxMem=  4194304000 cpu:        15.7
 (Enter /home/minenky/programs//g09/l502.exe)
 Closed shell SCF:
 Using DIIS extrapolation, IDIIS=  1040.
 Integral symmetry usage will be decided dynamically.
 Keep R1 ints in memory in symmetry-blocked form, NReq=277912982.
 IVT=      263670 IEndB=      263670 NGot=  4194304000 MDV=  4165884226
 LenX=  4165884226 LenY=  4165846921
 Requested convergence on RMS density matrix=1.00D-08 within 380 cycles.
 Requested convergence on MAX density matrix=1.00D-06.
 Requested convergence on             energy=1.00D-06.
 No special actions if energy rises.
 FoFCou: FMM=F IPFlag=           0 FMFlag=           0 FMFlg1=           0
         NFxFlg=           0 DoJE=F BraDBF=F KetDBF=F FulRan=T
         wScrn=  0.000000 ICntrl=     600 IOpCl=  0 I1Cent=           0 NGrid=           0
         NMat0=    1 NMatS0=  14878 NMatT0=    0 NMatD0=    1 NMtDS0=    0 NMtDT0=    0
 Petite list used in FoFCou.

 Cycle   1  Pass 1  IDiag  1:
 E= -157.230246331281    
 DIIS: error= 2.03D-04 at cycle   1 NSaved=   1.
 NSaved= 1 IEnMin= 1 EnMin= -157.230246331281     IErMin= 1 ErrMin= 2.03D-04
 ErrMax= 2.03D-04  0.00D+00 EMaxC= 1.00D-01 BMatC= 7.38D-06 BMatP= 7.38D-06
 IDIUse=3 WtCom= 9.98D-01 WtEn= 2.03D-03
 Coeff-Com:  0.100D+01
 Coeff-En:   0.100D+01
 Coeff:      0.100D+01
 Gap=     0.828 Goal=   None    Shift=    0.000
 RMSDP=2.20D-05 MaxDP=4.99D-04              OVMax= 5.46D-04

 Cycle   2  Pass 1  IDiag  1:
 E= -157.230251434014     Delta-E=       -0.000005102733 Rises=F Damp=F
 DIIS: error= 6.29D-05 at cycle   2 NSaved=   2.
 NSaved= 2 IEnMin= 2 EnMin= -157.230251434014     IErMin= 2 ErrMin= 6.29D-05
 ErrMax= 6.29D-05  0.00D+00 EMaxC= 1.00D-01 BMatC= 4.30D-07 BMatP= 7.38D-06
 IDIUse=1 WtCom= 1.00D+00 WtEn= 0.00D+00
 Coeff-Com:  0.648D-01 0.935D+00
 Coeff:      0.648D-01 0.935D+00
 Gap=     0.417 Goal=   None    Shift=    0.000
 RMSDP=4.52D-06 MaxDP=1.02D-04 DE=-5.10D-06 OVMax= 2.82D-04

 Cycle   3  Pass 1  IDiag  1:
 E= -157.230251745265     Delta-E=       -0.000000311251 Rises=F Damp=F
 DIIS: error= 3.41D-05 at cycle   3 NSaved=   3.
 NSaved= 3 IEnMin= 3 EnMin= -157.230251745265     IErMin= 3 ErrMin= 3.41D-05
 ErrMax= 3.41D-05  0.00D+00 EMaxC= 1.00D-01 BMatC= 1.45D-07 BMatP= 4.30D-07
 IDIUse=1 WtCom= 1.00D+00 WtEn= 0.00D+00
 Coeff-Com: -0.271D-01 0.353D+00 0.674D+00
 Coeff:     -0.271D-01 0.353D+00 0.674D+00
 Gap=     0.417 Goal=   None    Shift=    0.000
 RMSDP=1.71D-06 MaxDP=3.36D-05 DE=-3.11D-07 OVMax= 1.13D-04

 Cycle   4  Pass 1  IDiag  1:
 E= -157.230251896134     Delta-E=       -0.000000150869 Rises=F Damp=F
 DIIS: error= 4.53D-06 at cycle   4 NSaved=   4.
 NSaved= 4 IEnMin= 4 EnMin= -157.230251896134     IErMin= 4 ErrMin= 4.53D-06
 ErrMax= 4.53D-06  0.00D+00 EMaxC= 1.00D-01 BMatC= 1.33D-09 BMatP= 1.45D-07
 IDIUse=1 WtCom= 1.00D+00 WtEn= 0.00D+00
 Coeff-Com: -0.140D-02-0.353D-01 0.143D-01 0.102D+01
 Coeff:     -0.140D-02-0.353D-01 0.143D-01 0.102D+01
 Gap=     0.417 Goal=   None    Shift=    0.000
 RMSDP=3.84D-07 MaxDP=5.20D-06 DE=-1.51D-07 OVMax= 2.19D-05

 Cycle   5  Pass 1  IDiag  1:
 E= -157.230251898246     Delta-E=       -0.000000002112 Rises=F Damp=F
 DIIS: error= 1.06D-06 at cycle   5 NSaved=   5.
 NSaved= 5 IEnMin= 5 EnMin= -157.230251898246     IErMin= 5 ErrMin= 1.06D-06
 ErrMax= 1.06D-06  0.00D+00 EMaxC= 1.00D-01 BMatC= 1.46D-10 BMatP= 1.33D-09
 IDIUse=1 WtCom= 1.00D+00 WtEn= 0.00D+00
 Coeff-Com:  0.602D-03-0.232D-01-0.198D-01 0.286D+00 0.756D+00
 Coeff:      0.602D-03-0.232D-01-0.198D-01 0.286D+00 0.756D+00
 Gap=     0.417 Goal=   None    Shift=    0.000
 RMSDP=9.48D-08 MaxDP=1.54D-06 DE=-2.11D-09 OVMax= 4.41D-06

 Cycle   6  Pass 1  IDiag  1:
 E= -157.230251898423     Delta-E=       -0.000000000178 Rises=F Damp=F
 DIIS: error= 4.14D-07 at cycle   6 NSaved=   6.
 NSaved= 6 IEnMin= 6 EnMin= -157.230251898423     IErMin= 6 ErrMin= 4.14D-07
 ErrMax= 4.14D-07  0.00D+00 EMaxC= 1.00D-01 BMatC= 1.36D-11 BMatP= 1.46D-10
 IDIUse=1 WtCom= 1.00D+00 WtEn= 0.00D+00
 Coeff-Com:  0.365D-03-0.313D-02-0.775D-02-0.340D-01 0.193D+00 0.852D+00
 Coeff:      0.365D-03-0.313D-02-0.775D-02-0.340D-01 0.193D+00 0.852D+00
 Gap=     0.417 Goal=   None    Shift=    0.000
 RMSDP=4.82D-08 MaxDP=6.92D-07 DE=-1.78D-10 OVMax= 1.72D-06

 Cycle   7  Pass 1  IDiag  1:
 E= -157.230251898440     Delta-E=       -0.000000000016 Rises=F Damp=F
 DIIS: error= 5.11D-08 at cycle   7 NSaved=   7.
 NSaved= 7 IEnMin= 7 EnMin= -157.230251898440     IErMin= 7 ErrMin= 5.11D-08
 ErrMax= 5.11D-08  0.00D+00 EMaxC= 1.00D-01 BMatC= 2.83D-13 BMatP= 1.36D-11
 IDIUse=1 WtCom= 1.00D+00 WtEn= 0.00D+00
 Coeff-Com: -0.290D-04 0.141D-02 0.122D-02-0.186D-01-0.430D-01 0.303D-02
 Coeff-Com:  0.106D+01
 Coeff:     -0.290D-04 0.141D-02 0.122D-02-0.186D-01-0.430D-01 0.303D-02
 Coeff:      0.106D+01
 Gap=     0.417 Goal=   None    Shift=    0.000
 RMSDP=1.74D-08 MaxDP=2.89D-07 DE=-1.61D-11 OVMax= 4.79D-07

 Cycle   8  Pass 1  IDiag  1:
 E= -157.230251898440     Delta-E=       -0.000000000001 Rises=F Damp=F
 DIIS: error= 5.43D-09 at cycle   8 NSaved=   8.
 NSaved= 8 IEnMin= 8 EnMin= -157.230251898440     IErMin= 8 ErrMin= 5.43D-09
 ErrMax= 5.43D-09  0.00D+00 EMaxC= 1.00D-01 BMatC= 4.93D-15 BMatP= 2.83D-13
 IDIUse=1 WtCom= 1.00D+00 WtEn= 0.00D+00
 Coeff-Com: -0.107D-04 0.754D-04 0.209D-03 0.145D-02-0.307D-02-0.226D-01
 Coeff-Com: -0.426D-01 0.107D+01
 Coeff:     -0.107D-04 0.754D-04 0.209D-03 0.145D-02-0.307D-02-0.226D-01
 Coeff:     -0.426D-01 0.107D+01
 Gap=     0.417 Goal=   None    Shift=    0.000
 RMSDP=2.54D-09 MaxDP=5.74D-08 DE=-9.09D-13 OVMax= 6.43D-08

 SCF Done:  E(RwB97XD) =  -157.230251898     A.U. after    8 cycles
            NFock=  8  Conv=0.25D-08     -V/T= 2.0056
 KE= 1.563573465396D+02 PE=-5.961867891936D+02 EE= 1.663871800433D+02
 Leave Link  502 at Fri Jul  9 19:20:44 2021, MaxMem=  4194304000 cpu:       547.8
 (Enter /home/minenky/programs//g09/l701.exe)
 Compute integral first derivatives.
 ... and contract with generalized density number  0.
 R6Disp: Adding Grimme-D2 dispersion energy 1st derivatives to the gradient.
   4 Symmetry operations used in ECPInt.
 ECPInt:  NShTT=    2926 NPrTT=    8368 LenC2=    2907 LenP2D=    7107.
 LDataN:  DoStor=T MaxTD1= 7 Len=  274
 Leave Link  701 at Fri Jul  9 19:20:47 2021, MaxMem=  4194304000 cpu:        31.7
 (Enter /home/minenky/programs//g09/l702.exe)
 L702 exits ... SP integral derivatives will be done elsewhere.
 Leave Link  702 at Fri Jul  9 19:20:48 2021, MaxMem=  4194304000 cpu:         0.2
 (Enter /home/minenky/programs//g09/l703.exe)
 Compute integral first derivatives, UseDBF=F ICtDFT=           0.
 Integral derivatives from FoFJK, PRISM(SPDF).
 Calling FoFJK, ICntrl=      2127 FMM=F ISym2X=1 I1Cent= 0 IOpClX= 0 NMat=1 NMatS=1 NMatT=0.
 FoFJK:  IHMeth= 1 ICntrl=    2127 DoSepK=T KAlg= 0 I1Cent=   0 FoldK=F
 IRaf=         1 NMat=   1 IRICut=       1 DoRegI=T DoRafI=F ISym2E= 1.
 FoFCou: FMM=F IPFlag=           0 FMFlag=      100000 FMFlg1=         800
         NFxFlg=           0 DoJE=F BraDBF=F KetDBF=F FulRan=T
         wScrn=  0.000000 ICntrl=    2527 IOpCl=  0 I1Cent=           0 NGrid=           0
         NMat0=    1 NMatS0=      1 NMatT0=    0 NMatD0=    1 NMtDS0=    0 NMtDT0=    0
 Petite list used in FoFCou.
 Leave Link  703 at Fri Jul  9 19:20:52 2021, MaxMem=  4194304000 cpu:        50.3
 (Enter /home/minenky/programs//g09/l716.exe)
 Dipole        =-1.70696790D-15-3.55271368D-15 0.00000000D+00
 ***** Axes restored to original set *****
 -------------------------------------------------------------------
 Center     Atomic                   Forces (Hartrees/Bohr)
 Number     Number              X              Y              Z
 -------------------------------------------------------------------
      1        6          -0.000034305    0.000059373    0.000000000
      2        6           0.000034305   -0.000059373    0.000000000
      3        1          -0.000013904    0.000067485    0.000000000
      4        1           0.000013904   -0.000067485    0.000000000
      5        6          -0.000027596    0.000419641    0.000000000
      6        6           0.000027596   -0.000419641    0.000000000
      7        1          -0.000038973   -0.000029005    0.000000000
      8        1           0.000025374   -0.000009361   -0.000002211
      9        1           0.000025374   -0.000009361    0.000002211
     10        1           0.000038973    0.000029005    0.000000000
     11        1          -0.000025374    0.000009361   -0.000002211
     12        1          -0.000025374    0.000009361    0.000002211
 -------------------------------------------------------------------
 Cartesian Forces:  Max     0.000419641 RMS     0.000102779
 Leave Link  716 at Fri Jul  9 19:20:52 2021, MaxMem=  4194304000 cpu:         0.2
 (Enter /home/minenky/programs//g09/l103.exe)

 GradGradGradGradGradGradGradGradGradGradGradGradGradGradGradGradGradGrad
 Berny optimization.
 Using GEDIIS/GDIIS optimizer.
 FormGI is forming the generalized inverse of G from B-inverse, IUseBI=4.
 Internal  Forces:  Max     0.000465428 RMS     0.000115024
 Search for a local minimum.
 Step number   2 out of a maximum of   55
 All quantities printed in internal units (Hartrees-Bohrs-Radians)
 RMS Force = .11502D-03 SwitMx=.10000D-02 MixMth= 2
 Mixed Optimization -- En-DIIS/RFO-DIIS
[...]
     26  0.128886D+00
     27 -0.121747D+00  0.234569D+00
     28 -0.950387D-04  0.200082D-04  0.340589D+00
     29 -0.259409D-05  0.405695D-05 -0.230106D-01  0.542903D-01
     30  0.488680D-04 -0.114012D-05  0.000000D+00  0.000000D+00  0.451245D-01
     31  0.467072D-04  0.547754D-04 -0.728415D-02  0.162286D-01 -0.264634D-01
     32  0.313792D-03  0.807004D-04  0.467458D-03 -0.189777D-02  0.133463D-02
     33  0.807004D-04 -0.338620D-04  0.578169D-03 -0.170766D-02  0.104578D-02
     34 -0.330943D-03  0.555219D-05 -0.728415D-02  0.162286D-01  0.264634D-01
     35 -0.779151D-03 -0.367859D-04  0.467458D-03 -0.189777D-02 -0.133463D-02
     36  0.367859D-04 -0.221214D-04 -0.578170D-03  0.170766D-02  0.104577D-02
               31            32            33            34            35 
     31  0.691585D-01
     32 -0.399125D-01  0.128886D+00
     33  0.655892D-01 -0.121747D+00  0.234569D+00
     34  0.210091D-02 -0.528376D-02 -0.801448D-02  0.691585D-01
     35 -0.528376D-02  0.927884D-02  0.138417D-01 -0.399125D-01  0.128886D+00
     36  0.801448D-02 -0.138417D-01 -0.219979D-01 -0.655892D-01  0.121747D+00
               36 
     36  0.234569D+00
 FormGI is forming the generalized inverse of G from B-inverse, IUseBI=4.
 Leave Link  716 at Fri Jul  9 19:23:17 2021, MaxMem=  4194304000 cpu:         9.1
 (Enter /home/minenky/programs//g09/l103.exe)

 GradGradGradGradGradGradGradGradGradGradGradGradGradGradGradGradGradGrad
 Berny optimization.
 Red2BG is reusing G-inverse.
 Internal  Forces:  Max     0.000007482 RMS     0.000001596
 Search for a local minimum.
 Step number   1 out of a maximum of    2
 All quantities printed in internal units (Hartrees-Bohrs-Radians)
 Second derivative matrix not updated -- analytic derivatives used.
 ITU=  0
     Eigenvalues ---    0.00224   0.00231   0.01742   0.02156   0.03156
     Eigenvalues ---    0.05606   0.05768   0.05789   0.05833   0.11036
     Eigenvalues ---    0.11946   0.12225   0.12419   0.13932   0.14061
     Eigenvalues ---    0.14773   0.14929   0.17890   0.18657   0.32095
     Eigenvalues ---    0.32615   0.33412   0.33451   0.34000   0.34174
     Eigenvalues ---    0.34681   0.34881   0.35014   0.35281   0.64844
 Angle between quadratic step and forces=  37.71 degrees.
 Linear search not attempted -- first point.
 Iteration  1 RMS(Cart)=  0.00000910 RMS(Int)=  0.00000000
 Iteration  2 RMS(Cart)=  0.00000000 RMS(Int)=  0.00000000
 ITry= 1 IFail=0 DXMaxC= 2.70D-05 DCOld= 1.00D+10 DXMaxT= 3.00D-01 DXLimC= 3.00D+00 Rises=F
 ClnCor:  largest displacement from symmetrization is 1.11D-11 for atom    12.
 Variable       Old X    -DE/DX   Delta X   Delta X   Delta X     New X
                                 (Linear)    (Quad)   (Total)
    R1        2.50423  -0.00001   0.00000  -0.00001  -0.00001   2.50422
    R2        2.05659   0.00000   0.00000  -0.00001  -0.00001   2.05658
    R3        2.82581   0.00000   0.00000   0.00001   0.00001   2.82582
    R4        2.05659   0.00000   0.00000  -0.00001  -0.00001   2.05658
    R5        2.82581   0.00000   0.00000   0.00001   0.00001   2.82582
    R6        2.06163   0.00000   0.00000  -0.00001  -0.00001   2.06163
    R7        2.06590   0.00000   0.00000   0.00000   0.00000   2.06590
    R8        2.06590   0.00000   0.00000   0.00000   0.00000   2.06590
    R9        2.06163   0.00000   0.00000  -0.00001  -0.00001   2.06163
   R10        2.06590   0.00000   0.00000   0.00000   0.00000   2.06590
   R11        2.06590   0.00000   0.00000   0.00000   0.00000   2.06590
    A1        2.06982   0.00000   0.00000   0.00001   0.00001   2.06983
    A2        2.18469   0.00000   0.00000   0.00000   0.00000   2.18470
    A3        2.02867   0.00000   0.00000  -0.00002  -0.00002   2.02866
    A4        2.06982   0.00000   0.00000   0.00001   0.00001   2.06983
    A5        2.18469   0.00000   0.00000   0.00000   0.00000   2.18470
    A6        2.02867   0.00000   0.00000  -0.00002  -0.00002   2.02866
    A7        1.94410   0.00000   0.00000   0.00000   0.00000   1.94410
    A8        1.93810   0.00000   0.00000  -0.00001  -0.00001   1.93808
    A9        1.93810   0.00000   0.00000  -0.00001  -0.00001   1.93808
   A10        1.88800   0.00000   0.00000   0.00001   0.00001   1.88801
   A11        1.88800   0.00000   0.00000   0.00001   0.00001   1.88801
   A12        1.86467   0.00000   0.00000   0.00001   0.00001   1.86468
   A13        1.94410   0.00000   0.00000   0.00000   0.00000   1.94410
   A14        1.93810   0.00000   0.00000  -0.00001  -0.00001   1.93808
   A15        1.93810   0.00000   0.00000  -0.00001  -0.00001   1.93808
   A16        1.88800   0.00000   0.00000   0.00001   0.00001   1.88801
   A17        1.88800   0.00000   0.00000   0.00001   0.00001   1.88801
   A18        1.86467   0.00000   0.00000   0.00001   0.00001   1.86468
    D1        3.14159   0.00000   0.00000   0.00000   0.00000   3.14159
    D2        0.00000   0.00000   0.00000   0.00000   0.00000   0.00000
    D3        0.00000   0.00000   0.00000   0.00000   0.00000   0.00000
    D4        3.14159   0.00000   0.00000   0.00000   0.00000   3.14159
    D5        0.00000   0.00000   0.00000   0.00000   0.00000   0.00000
    D6       -2.10553   0.00000   0.00000   0.00000   0.00000  -2.10554
    D7        2.10553   0.00000   0.00000   0.00000   0.00000   2.10554
    D8        3.14159   0.00000   0.00000   0.00000   0.00000   3.14159
    D9        1.03606   0.00000   0.00000   0.00000   0.00000   1.03605
   D10       -1.03606   0.00000   0.00000   0.00000   0.00000  -1.03605
   D11        0.00000   0.00000   0.00000   0.00000   0.00000   0.00000
   D12       -2.10553   0.00000   0.00000   0.00000   0.00000  -2.10554
   D13        2.10553   0.00000   0.00000   0.00000   0.00000   2.10554
   D14        3.14159   0.00000   0.00000   0.00000   0.00000   3.14159
   D15        1.03606   0.00000   0.00000   0.00000   0.00000   1.03605
   D16       -1.03606   0.00000   0.00000   0.00000   0.00000  -1.03605
         Item               Value     Threshold  Converged?
 Maximum Force            0.000007     0.000015     YES
 RMS     Force            0.000002     0.000010     YES
 Maximum Displacement     0.000027     0.000060     YES
 RMS     Displacement     0.000009     0.000040     YES
 Predicted change in Energy=-2.403837D-10
 Optimization completed.
    -- Stationary point found.
                           ----------------------------
                           !   Optimized Parameters   !
                           ! (Angstroms and Degrees)  !
 --------------------------                            --------------------------
 ! Name  Definition              Value          Derivative Info.                !
 --------------------------------------------------------------------------------
 ! R1    R(1,2)                  1.3252         -DE/DX =    0.0                 !
 ! R2    R(1,3)                  1.0883         -DE/DX =    0.0                 !
 ! R3    R(1,5)                  1.4954         -DE/DX =    0.0                 !
 ! R4    R(2,4)                  1.0883         -DE/DX =    0.0                 !
 ! R5    R(2,6)                  1.4954         -DE/DX =    0.0                 !
 ! R6    R(5,7)                  1.091          -DE/DX =    0.0                 !
 ! R7    R(5,8)                  1.0932         -DE/DX =    0.0                 !
 ! R8    R(5,9)                  1.0932         -DE/DX =    0.0                 !
 ! R9    R(6,10)                 1.091          -DE/DX =    0.0                 !
 ! R10   R(6,11)                 1.0932         -DE/DX =    0.0                 !
 ! R11   R(6,12)                 1.0932         -DE/DX =    0.0                 !
 ! A1    A(2,1,3)              118.5918         -DE/DX =    0.0                 !
 ! A2    A(2,1,5)              125.1738         -DE/DX =    0.0                 !
 ! A3    A(3,1,5)              116.2344         -DE/DX =    0.0                 !
 ! A4    A(1,2,4)              118.5918         -DE/DX =    0.0                 !
 ! A5    A(1,2,6)              125.1738         -DE/DX =    0.0                 !
 ! A6    A(4,2,6)              116.2344         -DE/DX =    0.0                 !
 ! A7    A(1,5,7)              111.3885         -DE/DX =    0.0                 !
 ! A8    A(1,5,8)              111.0447         -DE/DX =    0.0                 !
 ! A9    A(1,5,9)              111.0447         -DE/DX =    0.0                 !
 ! A10   A(7,5,8)              108.1743         -DE/DX =    0.0                 !
 ! A11   A(7,5,9)              108.1743         -DE/DX =    0.0                 !
 ! A12   A(8,5,9)              106.8378         -DE/DX =    0.0                 !
 ! A13   A(2,6,10)             111.3885         -DE/DX =    0.0                 !
 ! A14   A(2,6,11)             111.0447         -DE/DX =    0.0                 !
 ! A15   A(2,6,12)             111.0447         -DE/DX =    0.0                 !
 ! A16   A(10,6,11)            108.1743         -DE/DX =    0.0                 !
 ! A17   A(10,6,12)            108.1743         -DE/DX =    0.0                 !
 ! A18   A(11,6,12)            106.8378         -DE/DX =    0.0                 !
 ! D1    D(3,1,2,4)            180.0            -DE/DX =    0.0                 !
 ! D2    D(3,1,2,6)              0.0            -DE/DX =    0.0                 !
 ! D3    D(5,1,2,4)              0.0            -DE/DX =    0.0                 !
 ! D4    D(5,1,2,6)            180.0            -DE/DX =    0.0                 !
 ! D5    D(2,1,5,7)              0.0            -DE/DX =    0.0                 !
 ! D6    D(2,1,5,8)           -120.6382         -DE/DX =    0.0                 !
 ! D7    D(2,1,5,9)            120.6382         -DE/DX =    0.0                 !
 ! D8    D(3,1,5,7)            180.0            -DE/DX =    0.0                 !
 ! D9    D(3,1,5,8)             59.3618         -DE/DX =    0.0                 !
 ! D10   D(3,1,5,9)            -59.3618         -DE/DX =    0.0                 !
 ! D11   D(1,2,6,10)             0.0            -DE/DX =    0.0                 !
 ! D12   D(1,2,6,11)          -120.6382         -DE/DX =    0.0                 !
 ! D13   D(1,2,6,12)           120.6382         -DE/DX =    0.0                 !
 ! D14   D(4,2,6,10)           180.0            -DE/DX =    0.0                 !
 ! D15   D(4,2,6,11)            59.3618         -DE/DX =    0.0                 !
 ! D16   D(4,2,6,12)           -59.3618         -DE/DX =    0.0                 !
 --------------------------------------------------------------------------------
 GradGradGradGradGradGradGradGradGradGradGradGradGradGradGradGradGradGrad

 Leave Link  103 at Fri Jul  9 19:23:20 2021, MaxMem=  4194304000 cpu:        31.5
 (Enter /home/minenky/programs//g09/l9999.exe)
 1\1\GINC-CN506-02-L\Freq\RwB97XD\def2TZVP\C4H8\MINENKY\09-Jul-2021\0\\
 #P Geom=AllCheck Guess=TCheck SCRF=Check GenChk RwB97XD/def2TZVP Freq\
 \The PBEPBE optimization and frequencies\\0,1\C,-0.3231495479,0.578447
 0197,0.\C,0.3231495479,-0.5784470197,0.\H,-1.4113912206,0.5670861561,0
 .\H,1.4113912206,-0.5670861561,0.\C,0.323825232,1.9265959491,0.\C,-0.3
 23825232,-1.9265959491,0.\H,1.4117973389,1.8457887095,0.\H,0.024895568
 5,2.5054919298,0.8778785859\H,0.0248955685,2.5054919298,-0.8778785859\
 H,-1.4117973389,-1.8457887095,0.\H,-0.0248955685,-2.5054919298,0.87787
 85859\H,-0.0248955685,-2.5054919298,-0.8778785859\\Version=AM64L-G09Re
 vD.01\State=1-AG\HF=-157.2302528\RMSD=1.939e-09\RMSF=3.193e-06\ZeroPoi
 nt=0.1084948\Thermal=0.1139528\Dipole=0.,0.,0.\DipoleDeriv=0.1006672,0
 .0978006,0.,0.0046595,0.1481268,0.,0.,0.,-0.2588821,0.1006673,0.097800
 6,0.,0.0046595,0.1481267,0.,0.,0.,-0.2588821,-0.1395768,-0.0249159,0.,
 -0.049105,0.005438,0.,0.,0.,0.1360693,-0.1395769,-0.0249159,0.,-0.0491
 05,0.005438,0.,0.,0.,0.1360693,0.0603367,0.0020868,0.,-0.0341645,-0.05
 08005,0.,0.,0.,0.161445,0.0603367,0.0020867,0.,-0.0341645,-0.0508002,0
 .,0.,0.,0.161445,-0.1368254,-0.0422761,0.,0.0610679,0.0241368,0.,0.,0.
 ,0.0700775,0.0576992,-0.0163477,0.061525,0.008771,-0.0634506,-0.060338
 7,0.0449798,-0.125829,-0.0543548,0.0576991,-0.0163477,-0.061525,0.0087
 71,-0.0634506,0.0603387,-0.0449798,0.1258291,-0.0543548,-0.1368254,-0.
 042276,0.,0.0610679,0.0241368,0.,0.,0.,0.0700775,0.0576992,-0.0163477,
 -0.061525,0.008771,-0.0634506,0.0603387,-0.0449798,0.1258291,-0.054354
 8,0.0576991,-0.0163476,0.061525,0.0087711,-0.0634506,-0.0603387,0.0449
 798,-0.1258291,-0.0543548\Polar=45.7740945,-2.5251683,67.2445913,0.,0.
 0000001,38.1247606\PG=C02H [SGH(C4H4),X(H4)]\NImag=0\\0.68451336,-0.13
 235700,0.77819494,0.,0.,0.15049672,-0.22864877,0.19680468,0.,0.6845133
 6,0.19680468,-0.45327662,0.,-0.13235700,0.77819494,0.,0.,-0.05621778,0
 .,0.,0.15049672,-0.32389464,-0.00119504,0.,-0.01706357,-0.00189083,0.,
 0.34858047,-0.00568246,-0.05684688,0.,0.02937376,0.00168362,0.,0.00228
 443,0.06005361,0.,0.,-0.04118337,0.,0.,0.00755296,0.,0.,0.02578527,-0.
 01706357,-0.00189083,0.,-0.32389464,-0.00119504,0.,-0.00047426,0.00269
 796,0.,0.34858047,0.02937376,0.00168362,0.,-0.00568246,-0.05684688,0.,
 0.00269796,-0.00415899,0.,0.00228443,0.06005361,0.,0.,0.00755296,0.,0.
 ,-0.04118337,0.,0.,0.01083084,0.,0.,0.02578527,-0.12115979,-0.06229499
 ,0.,0.01066660,0.01315437,0.,-0.01029146,-0.02843044,0.,0.00139914,0.0
 0214076,0.,0.57233457,-0.05578994,-0.20088405,0.,-0.01233844,-0.031021
 36,0.,0.00175277,0.00166579,0.,-0.00162128,0.00136210,0.,-0.02922202,0
 .50897221,0.,0.,-0.07178129,0.,0.,0.00545053,0.,0.,0.00254068,0.,0.,-0
 .00782032,0.,0.,0.53930168,0.01066660,0.01315437,0.,-0.12115979,-0.062
 29499,0.,0.00139914,0.00214076,0.,-0.01029146,-0.02843044,0.,-0.002243
 51,0.00215975,0.,0.57233457,-0.01233844,-0.03102136,0.,-0.05578994,-0.
 20088405,0.,-0.00162128,0.00136210,0.,0.00175277,0.00166579,0.,0.00215
 975,0.00046215,0.,-0.02922202,0.50897221,0.,0.,0.00545053,0.,0.,-0.071
 78129,0.,0.,-0.00782032,0.,0.,0.00254068,0.,0.,0.01460214,0.,0.,0.5393
 0168,-0.01561159,0.00123373,0.,0.00165587,0.00203449,0.,0.00025221,-0.
 00248887,0.,0.00071511,-0.00093683,0.,-0.31354436,0.02229590,0.,0.0005
 2807,-0.00014829,0.,0.34058908,-0.03239619,0.00305409,0.,-0.00145242,0
 .00199844,0.,-0.00212336,-0.00507563,0.,0.00105947,-0.00040789,0.,0.02
 503256,-0.04997624,0.,0.00011774,-0.00016044,0.,-0.02301064,0.05429034
 ,0.,0.,-0.00084059,0.,0.,-0.00042781,0.,0.,0.00166205,0.,0.,0.00024098
 ,0.,0.,-0.04763987,0.,0.,-0.00019276,0.,0.,0.04512449,0.00543110,-0.00
 716359,-0.01326643,-0.00065984,-0.00058111,0.00005727,0.00018499,0.000
 66689,0.00019810,0.00020351,-0.00014604,0.00017568,-0.06934416,0.03672
 843,0.05918702,0.00049954,-0.00027265,0.00089750,-0.00728415,0.0162286
 3,0.02646339,0.06915853,0.01045155,-0.01973365,-0.02384317,-0.00353254
 ,-0.00171744,-0.00037534,-0.00039718,0.00081084,0.00064181,-0.00008488
 ,0.00005130,-0.00128632,0.03809806,-0.11447236,-0.11199770,0.00057308,
 -0.00073772,0.00277341,0.00046746,-0.00189777,-0.00133463,-0.03991251,
 0.12888592,-0.00093378,0.00109392,0.00339122,-0.00059854,0.00083085,0.
 00008410,-0.00034087,-0.00054330,0.00014690,-0.00003205,0.00003945,0.0
 0004855,0.06002668,-0.11096101,-0.21697527,0.00011176,-0.00002457,-0.0
 0025513,-0.00057817,0.00170766,0.00104578,-0.06558917,0.12174663,0.234
 56889,0.00543110,-0.00716359,0.01326643,-0.00065984,-0.00058111,-0.000
 05727,0.00018499,0.00066689,-0.00019810,0.00020351,-0.00014604,-0.0001
 7568,-0.06934416,0.03672843,-0.05918702,0.00049954,-0.00027265,-0.0008
 9750,-0.00728415,0.01622862,-0.02646339,0.00210091,-0.00528376,0.00801
 448,0.06915853,0.01045155,-0.01973365,0.02384317,-0.00353254,-0.001717
 44,0.00037534,-0.00039718,0.00081084,-0.00064181,-0.00008488,0.0000513
 0,0.00128632,0.03809806,-0.11447236,0.11199770,0.00057307,-0.00073772,
 -0.00277341,0.00046746,-0.00189777,0.00133463,-0.00528376,0.00927884,-
 0.01384167,-0.03991251,0.12888592,0.00093378,-0.00109392,0.00339122,0.
 00059854,-0.00083085,0.00008410,0.00034087,0.00054330,0.00014690,0.000
 03205,-0.00003945,0.00004855,-0.06002668,0.11096101,-0.21697527,-0.000
 11176,0.00002457,-0.00025513,0.00057817,-0.00170766,0.00104577,-0.0080
 1448,0.01384167,-0.02199792,0.06558917,-0.12174663,0.23456889,0.001655
 87,0.00203449,0.,-0.01561159,0.00123373,0.,0.00071511,-0.00093683,0.,0
 .00025221,-0.00248887,0.,0.00052807,-0.00014829,0.,-0.31354436,0.02229
 590,0.,0.00006677,0.00027568,0.,-0.00004143,-0.00009504,-0.00002001,-0
 .00004143,-0.00009504,0.00002001,0.34058908,-0.00145242,0.00199844,0.,
 -0.03239619,0.00305409,0.,0.00105947,-0.00040789,0.,-0.00212336,-0.005
 07563,0.,0.00011774,-0.00016044,0.,0.02503256,-0.04997624,0.,0.0002756
 8,0.00007807,0.,0.00001995,-0.00000259,-0.00000406,0.00001995,-0.00000
 259,0.00000406,-0.02301064,0.05429034,0.,0.,-0.00042781,0.,0.,-0.00084
 059,0.,0.,0.00024098,0.,0.,0.00166205,0.,0.,-0.00019276,0.,0.,-0.04763
 987,0.,0.,-0.00001576,-0.00005965,-0.00004887,-0.00000114,0.00005965,0
 .00004887,-0.00000114,0.,0.,0.04512449,-0.00065984,-0.00058111,-0.0000
 5727,0.00543110,-0.00716359,0.01326643,0.00020351,-0.00014604,-0.00017
 568,0.00018499,0.00066689,-0.00019810,0.00049954,-0.00027265,-0.000897
 50,-0.06934416,0.03672843,-0.05918702,-0.00004143,0.00001995,0.0000596
 5,-0.00015352,-0.00033094,-0.00000555,-0.00009548,0.00004671,0.0000547
 8,-0.00728415,0.01622863,-0.02646339,0.06915853,-0.00353254,-0.0017174
 4,0.00037534,0.01045155,-0.01973365,0.02384317,-0.00008488,0.00005130,
 0.00128632,-0.00039718,0.00081084,-0.00064181,0.00057308,-0.00073772,-
 0.00277341,0.03809806,-0.11447236,0.11199770,-0.00009504,-0.00000259,0
 .00004887,-0.00033094,-0.00077915,0.00003679,0.00004671,0.00031379,0.0
 0008070,0.00046746,-0.00189777,0.00133463,-0.03991251,0.12888592,0.000
 59854,-0.00083085,0.00008410,0.00093378,-0.00109392,0.00339122,0.00003
 205,-0.00003945,0.00004855,0.00034087,0.00054330,0.00014690,-0.0001117
 6,0.00002457,-0.00025513,-0.06002668,0.11096101,-0.21697527,0.00002001
 ,0.00000406,-0.00000114,0.00000555,-0.00003679,-0.00002212,0.00005478,
 0.00008070,-0.00003386,0.00057817,-0.00170766,0.00104578,0.06558917,-0
 .12174663,0.23456889,-0.00065984,-0.00058111,0.00005727,0.00543110,-0.
 00716359,-0.01326643,0.00020351,-0.00014604,0.00017568,0.00018499,0.00
 066689,0.00019810,0.00049954,-0.00027265,0.00089750,-0.06934416,0.0367
 2843,0.05918702,-0.00004143,0.00001995,-0.00005965,-0.00009548,0.00004
 671,-0.00005478,-0.00015352,-0.00033094,0.00000555,-0.00728415,0.01622
 862,0.02646339,0.00210091,-0.00528376,-0.00801448,0.06915853,-0.003532
 54,-0.00171744,-0.00037534,0.01045155,-0.01973365,-0.02384317,-0.00008
 488,0.00005130,-0.00128632,-0.00039718,0.00081084,0.00064181,0.0005730
 7,-0.00073772,0.00277341,0.03809806,-0.11447236,-0.11199770,-0.0000950
 4,-0.00000259,-0.00004887,0.00004671,0.00031379,-0.00008070,-0.0003309
 4,-0.00077915,-0.00003679,0.00046746,-0.00189777,-0.00133463,-0.005283
 76,0.00927884,0.01384167,-0.03991251,0.12888592,-0.00059854,0.00083085
 ,0.00008410,-0.00093378,0.00109392,0.00339122,-0.00003205,0.00003945,0
 .00004855,-0.00034087,-0.00054330,0.00014690,0.00011176,-0.00002457,-0
 .00025513,0.06002668,-0.11096101,-0.21697527,-0.00002001,-0.00000406,-
 0.00000114,-0.00005478,-0.00008070,-0.00003386,-0.00000555,0.00003679,
 -0.00002212,-0.00057817,0.00170766,0.00104577,0.00801448,-0.01384167,-
 0.02199792,-0.06558917,0.12174663,0.23456889\\0.00000146,0.00001114,0.
 ,-0.00000146,-0.00001114,0.,-0.00000213,-0.00000111,0.,0.00000213,0.00
 000111,0.,-0.00000474,-0.00000427,0.,0.00000474,0.00000427,0.,0.000002
 10,-0.00000012,0.,0.00000152,0.00000076,-0.00000058,0.00000152,0.00000
 076,0.00000058,-0.00000210,0.00000012,0.,-0.00000152,-0.00000076,-0.00
 000058,-0.00000152,-0.00000076,0.00000058\\\@


 HE WHO LOVES TO READ, AND KNOWS HOW TO REFLECT,
 HAS LAID BY A PERPETUAL FEAST FOR HIS OLD AGE.
 -- UNCLE ESEK, "SCRIBNER'S MONTHLY", SEPT. 1880
 Job cpu time:       0 days  0 hours 17 minutes 23.3 seconds.
 File lengths (MBytes):  RWF=     22 Int=      0 D2E=      0 Chk=      3 Scr=      1
 Normal termination of Gaussian 09 at Fri Jul  9 19:23:21 2021.
