 Entering Gaussian System, Link 0=g09
 Initial command:
 /home/minenky/programs//g09/l1.exe "/local/scratch/minenky/m1_00_196-46-3-C32H18_wB97XD/Gau-76949.inp" -scrdir="/local/scratch/minenky/m1_00_196-46-3-C32H18_wB97XD/"
 Entering Link 1 = /home/minenky/programs//g09/l1.exe PID=     76950.
  
 Copyright (c) 1988,1990,1992,1993,1995,1998,2003,2009,2013,
            Gaussian, Inc.  All Rights Reserved.
  
 This is part of the Gaussian(R) 09 program.  It is based on
 the Gaussian(R) 03 system (copyright 2003, Gaussian, Inc.),
 the Gaussian(R) 98 system (copyright 1998, Gaussian, Inc.),
 the Gaussian(R) 94 system (copyright 1995, Gaussian, Inc.),
 the Gaussian 92(TM) system (copyright 1992, Gaussian, Inc.),
 the Gaussian 90(TM) system (copyright 1990, Gaussian, Inc.),
 the Gaussian 88(TM) system (copyright 1988, Gaussian, Inc.),
 the Gaussian 86(TM) system (copyright 1986, Carnegie Mellon
 University), and the Gaussian 82(TM) system (copyright 1983,
 Carnegie Mellon University). Gaussian is a federally registered
 trademark of Gaussian, Inc.
  
 This software contains proprietary and confidential information,
 including trade secrets, belonging to Gaussian, Inc.
  
 This software is provided under written license and may be
 used, copied, transmitted, or stored only in accord with that
 written license.
  
 The following legend is applicable only to US Government
 contracts under FAR:
  
                    RESTRICTED RIGHTS LEGEND
  
 Use, reproduction and disclosure by the US Government is
 subject to restrictions as set forth in subparagraphs (a)
 and (c) of the Commercial Computer Software - Restricted
 Rights clause in FAR 52.227-19.
  
 Gaussian, Inc.
 340 Quinnipiac St., Bldg. 40, Wallingford CT 06492
  
  
 ---------------------------------------------------------------
 Warning -- This program may not be used in any manner that
 competes with the business of Gaussian, Inc. or will provide
 assistance to any competitor of Gaussian, Inc.  The licensee
 of this program is prohibited from giving any competitor of
 Gaussian, Inc. access to this program.  By using this program,
 the user acknowledges that Gaussian, Inc. is engaged in the
 business of creating and licensing software in the field of
 computational chemistry and represents and warrants to the
 licensee that it is not a competitor of Gaussian, Inc. and that
 it will not use this program in any manner prohibited above.
 ---------------------------------------------------------------
  

 Cite this work as:
 Gaussian 09, Revision D.01,
 M. J. Frisch, G. W. Trucks, H. B. Schlegel, G. E. Scuseria, 
 M. A. Robb, J. R. Cheeseman, G. Scalmani, V. Barone, B. Mennucci, 
 G. A. Petersson, H. Nakatsuji, M. Caricato, X. Li, H. P. Hratchian, 
 A. F. Izmaylov, J. Bloino, G. Zheng, J. L. Sonnenberg, M. Hada, 
 M. Ehara, K. Toyota, R. Fukuda, J. Hasegawa, M. Ishida, T. Nakajima, 
 Y. Honda, O. Kitao, H. Nakai, T. Vreven, J. A. Montgomery, Jr., 
 J. E. Peralta, F. Ogliaro, M. Bearpark, J. J. Heyd, E. Brothers, 
 K. N. Kudin, V. N. Staroverov, T. Keith, R. Kobayashi, J. Normand, 
 K. Raghavachari, A. Rendell, J. C. Burant, S. S. Iyengar, J. Tomasi, 
 M. Cossi, N. Rega, J. M. Millam, M. Klene, J. E. Knox, J. B. Cross, 
 V. Bakken, C. Adamo, J. Jaramillo, R. Gomperts, R. E. Stratmann, 
 O. Yazyev, A. J. Austin, R. Cammi, C. Pomelli, J. W. Ochterski, 
 R. L. Martin, K. Morokuma, V. G. Zakrzewski, G. A. Voth, 
 P. Salvador, J. J. Dannenberg, S. Dapprich, A. D. Daniels, 
 O. Farkas, J. B. Foresman, J. V. Ortiz, J. Cioslowski, 
 and D. J. Fox, Gaussian, Inc., Wallingford CT, 2013.
 
 ******************************************
 Gaussian 09:  AM64L-G09RevD.01 24-Apr-2013
                27-Jul-2019 
 ******************************************
 %Mem=32000MB
 %NProcShared=16
 Will use up to   16 processors via shared memory.
 %Chk=m1_00_196-46-3-C32H18_wB97XD
 ----------------------------------------------------------------------
 #P wB97XD/def2tzvp opt=(tight) freq integral(Grid=ultrafine) # SCF(Max
 Cycle=380) 5d 7f GFPrint
 ----------------------------------------------------------------------
 1/7=10,14=-1,18=20,19=15,26=4,38=1/1,3;
 2/9=110,12=2,17=6,18=5,40=1/2;
 3/5=44,7=101,8=11,11=2,16=1,24=100,25=1,30=1,71=1,74=-58,75=-5/1,2,3;
 4//1;
 5/5=2,7=380,38=5/2;
 6/7=2,8=2,9=2,10=2,28=1/1;
 7//1,2,3,16;
 1/7=10,14=-1,18=20,19=15,26=4/3(2);
 2/9=110/2;
 99//99;
 2/9=110/2;
 3/5=44,7=101,8=11,11=2,16=1,25=1,30=1,71=1,74=-58,75=-5/1,2,3;
 4/5=5,16=3,69=1/1;
 5/5=2,7=380,38=5/2;
 7//1,2,3,16;
 1/7=10,14=-1,18=20,19=15,26=4/3(-5);
 2/9=110/2;
 6/7=2,8=2,9=2,10=2,19=2,28=1/1;
 99/9=1/99;
 Leave Link    1 at Sat Jul 27 14:41:05 2019, MaxMem=  4194304000 cpu:         1.3
 (Enter /home/minenky/programs//g09/l101.exe)
 ---------------------------------------
 The PBEPBE optimization and frequencies
 ---------------------------------------
 Symbolic Z-matrix:
 Charge =  0 Multiplicity = 1
 C                     3.7855    1.6543    1.4164 
 C                     3.2596    2.8276    2.0971 
 C                     2.8693    0.8137    0.6987 
 C                     5.1468    1.3835    1.4802 
 C                     1.8504    3.0889    2.0182 
 C                     4.1297    3.6543    2.7976 
 C                     1.0178    2.2593    1.3225 
 C                     1.5355    1.1037    0.6523 
 C                     6.044     2.2162    2.1894 
 C                     5.5168    3.391     2.871 
 C                     7.4195    1.95      2.2584 
 C                     6.4013    4.2218    3.5771 
 C                     8.3001    2.7821    2.9645 
 C                     7.7741    3.9545    3.6453 
 C                     9.687     2.5319    3.0459 
 C                     8.6688    4.7918    4.3582 
 C                     10.5522   3.3642    3.7499 
 C                     10.0304   4.5403    4.4351 
 C                     11.948    3.0836    3.8127 
 C                     10.9628   5.3929    5.1664 
 C                     12.8279   3.8859    4.5005 
 C                     12.3364   5.065     5.1942 
 C                     14.2401   3.5889    4.5557 
 C                     13.2631   5.8884    5.906 
 C                     10.5364   6.5608    5.865 
 C                     15.1066   4.3791    5.2343 
 C                     14.6562   5.5592    5.9366 
 C                     15.5375   6.3809    6.6396 
 C                     12.8057   7.0505    6.5952 
 C                     15.0789   7.5227    7.3152 
 C                     13.736    7.8545    7.295 
 C                     11.4162   7.3563    6.5497 
 H                     3.2638   -0.0632    0.1907 
 H                     5.5397    0.5057    0.9711 
 H                     1.4595    3.9667    2.5275 
 H                     3.7366    4.5322    3.3066 
 H                    -0.0469    2.4703    1.272 
 H                     0.8546    0.4577    0.1047 
 H                     7.8142    1.0728    1.7498 
 H                     6.0071    5.0992    4.0859 
 H                     10.0925   1.6578    2.5406 
 H                     8.2402    5.6571    4.8532 
 H                     12.3197   2.2015    3.2955 
 H                     14.5935   2.7037    4.0323 
 H                     9.4874    6.8348    5.8599 
 H                     16.1665   4.1381    5.264 
 H                     16.5947   6.1275    6.6607 
 H                     15.7853   8.1469    7.8557 
 H                     13.3787   8.7386    7.8173 
 H                     11.0577   8.2401    7.0719 
 
 NAtoms=     50 NQM=       50 NQMF=       0 NMMI=      0 NMMIF=      0
                NMic=       0 NMicF=      0.
                    Isotopes and Nuclear Properties:
 (Nuclear quadrupole moments (NQMom) in fm**2, nuclear magnetic moments (NMagM)
  in nuclear magnetons)

  Atom         1           2           3           4           5           6           7           8           9          10
 IAtWgt=          12          12          12          12          12          12          12          12          12          12
 AtmWgt=  12.0000000  12.0000000  12.0000000  12.0000000  12.0000000  12.0000000  12.0000000  12.0000000  12.0000000  12.0000000
 NucSpn=           0           0           0           0           0           0           0           0           0           0
 AtZEff=   0.0000000   0.0000000   0.0000000   0.0000000   0.0000000   0.0000000   0.0000000   0.0000000   0.0000000   0.0000000
 NQMom=    0.0000000   0.0000000   0.0000000   0.0000000   0.0000000   0.0000000   0.0000000   0.0000000   0.0000000   0.0000000
 NMagM=    0.0000000   0.0000000   0.0000000   0.0000000   0.0000000   0.0000000   0.0000000   0.0000000   0.0000000   0.0000000
 AtZNuc=   6.0000000   6.0000000   6.0000000   6.0000000   6.0000000   6.0000000   6.0000000   6.0000000   6.0000000   6.0000000

  Atom        11          12          13          14          15          16          17          18          19          20
 IAtWgt=          12          12          12          12          12          12          12          12          12          12
 AtmWgt=  12.0000000  12.0000000  12.0000000  12.0000000  12.0000000  12.0000000  12.0000000  12.0000000  12.0000000  12.0000000
 NucSpn=           0           0           0           0           0           0           0           0           0           0
 AtZEff=   0.0000000   0.0000000   0.0000000   0.0000000   0.0000000   0.0000000   0.0000000   0.0000000   0.0000000   0.0000000
 NQMom=    0.0000000   0.0000000   0.0000000   0.0000000   0.0000000   0.0000000   0.0000000   0.0000000   0.0000000   0.0000000
 NMagM=    0.0000000   0.0000000   0.0000000   0.0000000   0.0000000   0.0000000   0.0000000   0.0000000   0.0000000   0.0000000
 AtZNuc=   6.0000000   6.0000000   6.0000000   6.0000000   6.0000000   6.0000000   6.0000000   6.0000000   6.0000000   6.0000000

  Atom        21          22          23          24          25          26          27          28          29          30
 IAtWgt=          12          12          12          12          12          12          12          12          12          12
 AtmWgt=  12.0000000  12.0000000  12.0000000  12.0000000  12.0000000  12.0000000  12.0000000  12.0000000  12.0000000  12.0000000
 NucSpn=           0           0           0           0           0           0           0           0           0           0
 AtZEff=   0.0000000   0.0000000   0.0000000   0.0000000   0.0000000   0.0000000   0.0000000   0.0000000   0.0000000   0.0000000
 NQMom=    0.0000000   0.0000000   0.0000000   0.0000000   0.0000000   0.0000000   0.0000000   0.0000000   0.0000000   0.0000000
 NMagM=    0.0000000   0.0000000   0.0000000   0.0000000   0.0000000   0.0000000   0.0000000   0.0000000   0.0000000   0.0000000
 AtZNuc=   6.0000000   6.0000000   6.0000000   6.0000000   6.0000000   6.0000000   6.0000000   6.0000000   6.0000000   6.0000000

  Atom        31          32          33          34          35          36          37          38          39          40
 IAtWgt=          12          12           1           1           1           1           1           1           1           1
 AtmWgt=  12.0000000  12.0000000   1.0078250   1.0078250   1.0078250   1.0078250   1.0078250   1.0078250   1.0078250   1.0078250
 NucSpn=           0           0           1           1           1           1           1           1           1           1
 AtZEff=   0.0000000   0.0000000   0.0000000   0.0000000   0.0000000   0.0000000   0.0000000   0.0000000   0.0000000   0.0000000
 NQMom=    0.0000000   0.0000000   0.0000000   0.0000000   0.0000000   0.0000000   0.0000000   0.0000000   0.0000000   0.0000000
 NMagM=    0.0000000   0.0000000   2.7928460   2.7928460   2.7928460   2.7928460   2.7928460   2.7928460   2.7928460   2.7928460
 AtZNuc=   6.0000000   6.0000000   1.0000000   1.0000000   1.0000000   1.0000000   1.0000000   1.0000000   1.0000000   1.0000000

  Atom        41          42          43          44          45          46          47          48          49          50
 IAtWgt=           1           1           1           1           1           1           1           1           1           1
 AtmWgt=   1.0078250   1.0078250   1.0078250   1.0078250   1.0078250   1.0078250   1.0078250   1.0078250   1.0078250   1.0078250
 NucSpn=           1           1           1           1           1           1           1           1           1           1
 AtZEff=   0.0000000   0.0000000   0.0000000   0.0000000   0.0000000   0.0000000   0.0000000   0.0000000   0.0000000   0.0000000
 NQMom=    0.0000000   0.0000000   0.0000000   0.0000000   0.0000000   0.0000000   0.0000000   0.0000000   0.0000000   0.0000000
 NMagM=    2.7928460   2.7928460   2.7928460   2.7928460   2.7928460   2.7928460   2.7928460   2.7928460   2.7928460   2.7928460
 AtZNuc=   1.0000000   1.0000000   1.0000000   1.0000000   1.0000000   1.0000000   1.0000000   1.0000000   1.0000000   1.0000000
 Leave Link  101 at Sat Jul 27 14:41:05 2019, MaxMem=  4194304000 cpu:         2.8
 (Enter /home/minenky/programs//g09/l103.exe)

 GradGradGradGradGradGradGradGradGradGradGradGradGradGradGradGradGradGrad
 Berny optimization.
 Initialization pass.
                           ----------------------------
                           !    Initial Parameters    !
                           ! (Angstroms and Degrees)  !
 --------------------------                            --------------------------
 ! Name  Definition              Value          Derivative Info.                !
 --------------------------------------------------------------------------------
 ! R1    R(1,2)                  1.4548         estimate D2E/DX2                !
 ! R2    R(1,3)                  1.4357         estimate D2E/DX2                !
 ! R3    R(1,4)                  1.3894         estimate D2E/DX2                !
 ! R4    R(2,5)                  1.4354         estimate D2E/DX2                !
 ! R5    R(2,6)                  1.3897         estimate D2E/DX2                !
 ! R6    R(3,8)                  1.3658         estimate D2E/DX2                !
 ! R7    R(3,33)                 1.0875         estimate D2E/DX2                !
 ! R8    R(4,9)                  1.4147         estimate D2E/DX2                !
 ! R9    R(4,34)                 1.0882         estimate D2E/DX2                !
 ! R10   R(5,7)                  1.3658         estimate D2E/DX2                !
 ! R11   R(5,35)                 1.0875         estimate D2E/DX2                !
 ! R12   R(6,10)                 1.4138         estimate D2E/DX2                !
 ! R13   R(6,36)                 1.0883         estimate D2E/DX2                !
 ! R14   R(7,8)                  1.4327         estimate D2E/DX2                !
 ! R15   R(7,37)                 1.0866         estimate D2E/DX2                !
 ! R16   R(8,38)                 1.0866         estimate D2E/DX2                !
 ! R17   R(9,10)                 1.4569         estimate D2E/DX2                !
 ! R18   R(9,11)                 1.4027         estimate D2E/DX2                !
 ! R19   R(10,12)                1.404          estimate D2E/DX2                !
 ! R20   R(11,13)                1.4023         estimate D2E/DX2                !
 ! R21   R(11,39)                1.0881         estimate D2E/DX2                !
 ! R22   R(12,14)                1.4002         estimate D2E/DX2                !
 ! R23   R(12,40)                1.0882         estimate D2E/DX2                !
 ! R24   R(13,14)                1.4542         estimate D2E/DX2                !
 ! R25   R(13,15)                1.4116         estimate D2E/DX2                !
 ! R26   R(14,16)                1.4177         estimate D2E/DX2                !
 ! R27   R(15,17)                1.3917         estimate D2E/DX2                !
 ! R28   R(15,41)                1.088          estimate D2E/DX2                !
 ! R29   R(16,18)                1.3868         estimate D2E/DX2                !
 ! R30   R(16,42)                1.0851         estimate D2E/DX2                !
 ! R31   R(17,18)                1.4577         estimate D2E/DX2                !
 ! R32   R(17,19)                1.4251         estimate D2E/DX2                !
 ! R33   R(18,20)                1.4598         estimate D2E/DX2                !
 ! R34   R(19,21)                1.3751         estimate D2E/DX2                !
 ! R35   R(19,43)                1.088          estimate D2E/DX2                !
 ! R36   R(20,22)                1.4125         estimate D2E/DX2                !
 ! R37   R(20,25)                1.4261         estimate D2E/DX2                !
 ! R38   R(21,22)                1.4536         estimate D2E/DX2                !
 ! R39   R(21,23)                1.4441         estimate D2E/DX2                !
 ! R40   R(22,24)                1.4295         estimate D2E/DX2                !
 ! R41   R(23,26)                1.3549         estimate D2E/DX2                !
 ! R42   R(23,44)                1.0874         estimate D2E/DX2                !
 ! R43   R(24,27)                1.4318         estimate D2E/DX2                !
 ! R44   R(24,29)                1.4264         estimate D2E/DX2                !
 ! R45   R(25,32)                1.3696         estimate D2E/DX2                !
 ! R46   R(25,45)                1.0842         estimate D2E/DX2                !
 ! R47   R(26,27)                1.4452         estimate D2E/DX2                !
 ! R48   R(26,46)                1.0874         estimate D2E/DX2                !
 ! R49   R(27,28)                1.395          estimate D2E/DX2                !
 ! R50   R(28,30)                1.4037         estimate D2E/DX2                !
 ! R51   R(28,47)                1.0873         estimate D2E/DX2                !
 ! R52   R(29,31)                1.4148         estimate D2E/DX2                !
 ! R53   R(29,32)                1.4235         estimate D2E/DX2                !
 ! R54   R(30,31)                1.3834         estimate D2E/DX2                !
 ! R55   R(30,48)                1.0866         estimate D2E/DX2                !
 ! R56   R(31,49)                1.0872         estimate D2E/DX2                !
 ! R57   R(32,50)                1.0873         estimate D2E/DX2                !
 ! A1    A(2,1,3)              118.3866         estimate D2E/DX2                !
 ! A2    A(2,1,4)              119.3314         estimate D2E/DX2                !
 ! A3    A(3,1,4)              122.282          estimate D2E/DX2                !
 ! A4    A(1,2,5)              118.4233         estimate D2E/DX2                !
 ! A5    A(1,2,6)              119.2935         estimate D2E/DX2                !
 ! A6    A(5,2,6)              122.2833         estimate D2E/DX2                !
 ! A7    A(1,3,8)              121.0577         estimate D2E/DX2                !
 ! A8    A(1,3,33)             118.3038         estimate D2E/DX2                !
 ! A9    A(8,3,33)             120.6386         estimate D2E/DX2                !
 ! A10   A(1,4,9)              121.9826         estimate D2E/DX2                !
 ! A11   A(1,4,34)             119.3074         estimate D2E/DX2                !
 ! A12   A(9,4,34)             118.7099         estimate D2E/DX2                !
 ! A13   A(2,5,7)              121.0577         estimate D2E/DX2                !
 ! A14   A(2,5,35)             118.299          estimate D2E/DX2                !
 ! A15   A(7,5,35)             120.6433         estimate D2E/DX2                !
 ! A16   A(2,6,10)             121.984          estimate D2E/DX2                !
 ! A17   A(2,6,36)             119.3073         estimate D2E/DX2                !
 ! A18   A(10,6,36)            118.7088         estimate D2E/DX2                !
 ! A19   A(5,7,8)              120.5259         estimate D2E/DX2                !
 ! A20   A(5,7,37)             120.2018         estimate D2E/DX2                !
 ! A21   A(8,7,37)             119.2724         estimate D2E/DX2                !
 ! A22   A(3,8,7)              120.5489         estimate D2E/DX2                !
 ! A23   A(3,8,38)             120.1877         estimate D2E/DX2                !
 ! A24   A(7,8,38)             119.2634         estimate D2E/DX2                !
 ! A25   A(4,9,10)             118.6636         estimate D2E/DX2                !
 ! A26   A(4,9,11)             122.3341         estimate D2E/DX2                !
 ! A27   A(10,9,11)            119.0022         estimate D2E/DX2                !
 ! A28   A(6,10,9)             118.7449         estimate D2E/DX2                !
 ! A29   A(6,10,12)            122.2771         estimate D2E/DX2                !
 ! A30   A(9,10,12)            118.978          estimate D2E/DX2                !
 ! A31   A(9,11,13)            121.8667         estimate D2E/DX2                !
 ! A32   A(9,11,39)            119.0588         estimate D2E/DX2                !
 ! A33   A(13,11,39)           119.0745         estimate D2E/DX2                !
 ! A34   A(10,12,14)           121.9503         estimate D2E/DX2                !
 ! A35   A(10,12,40)           118.9514         estimate D2E/DX2                !
 ! A36   A(14,12,40)           119.0983         estimate D2E/DX2                !
 ! A37   A(11,13,14)           119.1428         estimate D2E/DX2                !
 ! A38   A(11,13,15)           122.7402         estimate D2E/DX2                !
 ! A39   A(14,13,15)           118.1169         estimate D2E/DX2                !
 ! A40   A(12,14,13)           119.0599         estimate D2E/DX2                !
 ! A41   A(12,14,16)           122.0382         estimate D2E/DX2                !
 ! A42   A(13,14,16)           118.9019         estimate D2E/DX2                !
 ! A43   A(13,15,17)           122.2728         estimate D2E/DX2                !
 ! A44   A(13,15,41)           118.8013         estimate D2E/DX2                !
 ! A45   A(17,15,41)           118.9259         estimate D2E/DX2                !
 ! A46   A(14,16,18)           122.7127         estimate D2E/DX2                !
 ! A47   A(14,16,42)           116.814          estimate D2E/DX2                !
 ! A48   A(18,16,42)           120.4734         estimate D2E/DX2                !
 ! A49   A(15,17,18)           119.8502         estimate D2E/DX2                !
 ! A50   A(15,17,19)           120.8924         estimate D2E/DX2                !
 ! A51   A(18,17,19)           119.2574         estimate D2E/DX2                !
 ! A52   A(16,18,17)           118.1454         estimate D2E/DX2                !
 ! A53   A(16,18,20)           123.2966         estimate D2E/DX2                !
 ! A54   A(17,18,20)           118.558          estimate D2E/DX2                !
 ! A55   A(17,19,21)           122.2674         estimate D2E/DX2                !
 ! A56   A(17,19,43)           118.2483         estimate D2E/DX2                !
 ! A57   A(21,19,43)           119.4842         estimate D2E/DX2                !
 ! A58   A(18,20,22)           119.6965         estimate D2E/DX2                !
 ! A59   A(18,20,25)           122.1891         estimate D2E/DX2                !
 ! A60   A(22,20,25)           118.1144         estimate D2E/DX2                !
 ! A61   A(19,21,22)           119.7084         estimate D2E/DX2                !
 ! A62   A(19,21,23)           121.6576         estimate D2E/DX2                !
 ! A63   A(22,21,23)           118.634          estimate D2E/DX2                !
 ! A64   A(20,22,21)           120.5122         estimate D2E/DX2                !
 ! A65   A(20,22,24)           120.4322         estimate D2E/DX2                !
 ! A66   A(21,22,24)           119.0556         estimate D2E/DX2                !
 ! A67   A(21,23,26)           121.6404         estimate D2E/DX2                !
 ! A68   A(21,23,44)           117.8286         estimate D2E/DX2                !
 ! A69   A(26,23,44)           120.531          estimate D2E/DX2                !
 ! A70   A(22,24,27)           120.5947         estimate D2E/DX2                !
 ! A71   A(22,24,29)           120.1314         estimate D2E/DX2                !
 ! A72   A(27,24,29)           119.2739         estimate D2E/DX2                !
 ! A73   A(20,25,32)           121.9042         estimate D2E/DX2                !
 ! A74   A(20,25,45)           119.5997         estimate D2E/DX2                !
 ! A75   A(32,25,45)           118.4961         estimate D2E/DX2                !
 ! A76   A(23,26,27)           121.3524         estimate D2E/DX2                !
 ! A77   A(23,26,46)           120.5174         estimate D2E/DX2                !
 ! A78   A(27,26,46)           118.1302         estimate D2E/DX2                !
 ! A79   A(24,27,26)           118.723          estimate D2E/DX2                !
 ! A80   A(24,27,28)           119.3415         estimate D2E/DX2                !
 ! A81   A(26,27,28)           121.9355         estimate D2E/DX2                !
 ! A82   A(27,28,30)           121.0148         estimate D2E/DX2                !
 ! A83   A(27,28,47)           119.1265         estimate D2E/DX2                !
 ! A84   A(30,28,47)           119.8587         estimate D2E/DX2                !
 ! A85   A(24,29,31)           119.4141         estimate D2E/DX2                !
 ! A86   A(24,29,32)           118.2019         estimate D2E/DX2                !
 ! A87   A(31,29,32)           122.384          estimate D2E/DX2                !
 ! A88   A(28,30,31)           120.3438         estimate D2E/DX2                !
 ! A89   A(28,30,48)           119.6212         estimate D2E/DX2                !
 ! A90   A(31,30,48)           120.0349         estimate D2E/DX2                !
 ! A91   A(29,31,30)           120.6119         estimate D2E/DX2                !
 ! A92   A(29,31,49)           118.9229         estimate D2E/DX2                !
 ! A93   A(30,31,49)           120.4652         estimate D2E/DX2                !
 ! A94   A(25,32,29)           121.2158         estimate D2E/DX2                !
 ! A95   A(25,32,50)           120.0274         estimate D2E/DX2                !
 ! A96   A(29,32,50)           118.7568         estimate D2E/DX2                !
 ! D1    D(3,1,2,5)             -0.0238         estimate D2E/DX2                !
 ! D2    D(3,1,2,6)            179.9932         estimate D2E/DX2                !
 ! D3    D(4,1,2,5)            179.9889         estimate D2E/DX2                !
 ! D4    D(4,1,2,6)              0.006          estimate D2E/DX2                !
 ! D5    D(2,1,3,8)              0.0198         estimate D2E/DX2                !
 ! D6    D(2,1,3,33)          -179.9762         estimate D2E/DX2                !
 ! D7    D(4,1,3,8)           -179.9934         estimate D2E/DX2                !
 ! D8    D(4,1,3,33)             0.0107         estimate D2E/DX2                !
 ! D9    D(2,1,4,9)             -0.0095         estimate D2E/DX2                !
 ! D10   D(2,1,4,34)           179.987          estimate D2E/DX2                !
 ! D11   D(3,1,4,9)           -179.9962         estimate D2E/DX2                !
 ! D12   D(3,1,4,34)             0.0003         estimate D2E/DX2                !
 ! D13   D(1,2,5,7)              0.0187         estimate D2E/DX2                !
 ! D14   D(1,2,5,35)          -179.9794         estimate D2E/DX2                !
 ! D15   D(6,2,5,7)           -179.9989         estimate D2E/DX2                !
 ! D16   D(6,2,5,35)             0.003          estimate D2E/DX2                !
 ! D17   D(1,2,6,10)            -0.0083         estimate D2E/DX2                !
 ! D18   D(1,2,6,36)           179.9805         estimate D2E/DX2                !
 ! D19   D(5,2,6,10)          -179.9905         estimate D2E/DX2                !
 ! D20   D(5,2,6,36)            -0.0018         estimate D2E/DX2                !
 ! D21   D(1,3,8,7)             -0.0095         estimate D2E/DX2                !
 ! D22   D(1,3,8,38)           179.9908         estimate D2E/DX2                !
 ! D23   D(33,3,8,7)           179.9863         estimate D2E/DX2                !
 ! D24   D(33,3,8,38)           -0.0134         estimate D2E/DX2                !
 ! D25   D(1,4,9,10)             0.0147         estimate D2E/DX2                !
 ! D26   D(1,4,9,11)          -179.9855         estimate D2E/DX2                !
 ! D27   D(34,4,9,10)         -179.9818         estimate D2E/DX2                !
 ! D28   D(34,4,9,11)            0.018          estimate D2E/DX2                !
 ! D29   D(2,5,7,8)             -0.0084         estimate D2E/DX2                !
 ! D30   D(2,5,7,37)           179.9922         estimate D2E/DX2                !
 ! D31   D(35,5,7,8)           179.9896         estimate D2E/DX2                !
 ! D32   D(35,5,7,37)           -0.0098         estimate D2E/DX2                !
 ! D33   D(2,6,10,9)             0.0135         estimate D2E/DX2                !
 ! D34   D(2,6,10,12)         -179.9869         estimate D2E/DX2                !
 ! D35   D(36,6,10,9)         -179.9754         estimate D2E/DX2                !
 ! D36   D(36,6,10,12)           0.0243         estimate D2E/DX2                !
 ! D37   D(5,7,8,3)              0.0035         estimate D2E/DX2                !
 ! D38   D(5,7,8,38)          -179.9968         estimate D2E/DX2                !
 ! D39   D(37,7,8,3)          -179.9971         estimate D2E/DX2                !
 ! D40   D(37,7,8,38)            0.0026         estimate D2E/DX2                !
 ! D41   D(4,9,10,6)            -0.0163         estimate D2E/DX2                !
 ! D42   D(4,9,10,12)          179.9841         estimate D2E/DX2                !
 ! D43   D(11,9,10,6)          179.9839         estimate D2E/DX2                !
 ! D44   D(11,9,10,12)          -0.0158         estimate D2E/DX2                !
 ! D45   D(4,9,11,13)         -179.9901         estimate D2E/DX2                !
 ! D46   D(4,9,11,39)           -0.0073         estimate D2E/DX2                !
 ! D47   D(10,9,11,13)           0.0097         estimate D2E/DX2                !
 ! D48   D(10,9,11,39)         179.9925         estimate D2E/DX2                !
 ! D49   D(6,10,12,14)        -179.9996         estimate D2E/DX2                !
 ! D50   D(6,10,12,40)          -0.0081         estimate D2E/DX2                !
 ! D51   D(9,10,12,14)           0.0001         estimate D2E/DX2                !
 ! D52   D(9,10,12,40)         179.9915         estimate D2E/DX2                !
 ! D53   D(9,11,13,14)           0.0115         estimate D2E/DX2                !
 ! D54   D(9,11,13,15)        -179.9923         estimate D2E/DX2                !
 ! D55   D(39,11,13,14)       -179.9713         estimate D2E/DX2                !
 ! D56   D(39,11,13,15)          0.0249         estimate D2E/DX2                !
 ! D57   D(10,12,14,13)          0.0212         estimate D2E/DX2                !
 ! D58   D(10,12,14,16)       -179.9728         estimate D2E/DX2                !
 ! D59   D(40,12,14,13)       -179.9703         estimate D2E/DX2                !
 ! D60   D(40,12,14,16)          0.0358         estimate D2E/DX2                !
 ! D61   D(11,13,14,12)         -0.0269         estimate D2E/DX2                !
 ! D62   D(11,13,14,16)        179.9673         estimate D2E/DX2                !
 ! D63   D(15,13,14,12)        179.9767         estimate D2E/DX2                !
 ! D64   D(15,13,14,16)         -0.0291         estimate D2E/DX2                !
 ! D65   D(11,13,15,17)       -179.9796         estimate D2E/DX2                !
 ! D66   D(11,13,15,41)          0.0083         estimate D2E/DX2                !
 ! D67   D(14,13,15,17)          0.0166         estimate D2E/DX2                !
 ! D68   D(14,13,15,41)       -179.9955         estimate D2E/DX2                !
 ! D69   D(12,14,16,18)        179.9896         estimate D2E/DX2                !
 ! D70   D(12,14,16,42)         -0.0189         estimate D2E/DX2                !
 ! D71   D(13,14,16,18)         -0.0044         estimate D2E/DX2                !
 ! D72   D(13,14,16,42)        179.9871         estimate D2E/DX2                !
 ! D73   D(13,15,17,18)          0.0283         estimate D2E/DX2                !
 ! D74   D(13,15,17,19)       -179.9964         estimate D2E/DX2                !
 ! D75   D(41,15,17,18)       -179.9596         estimate D2E/DX2                !
 ! D76   D(41,15,17,19)          0.0156         estimate D2E/DX2                !
 ! D77   D(14,16,18,17)          0.0487         estimate D2E/DX2                !
 ! D78   D(14,16,18,20)       -179.9395         estimate D2E/DX2                !
 ! D79   D(42,16,18,17)       -179.9425         estimate D2E/DX2                !
 ! D80   D(42,16,18,20)          0.0694         estimate D2E/DX2                !
 ! D81   D(15,17,18,16)         -0.0605         estimate D2E/DX2                !
 ! D82   D(15,17,18,20)        179.9282         estimate D2E/DX2                !
 ! D83   D(19,17,18,16)        179.9638         estimate D2E/DX2                !
 ! D84   D(19,17,18,20)         -0.0474         estimate D2E/DX2                !
 ! D85   D(15,17,19,21)       -179.9588         estimate D2E/DX2                !
 ! D86   D(15,17,19,43)          0.0141         estimate D2E/DX2                !
 ! D87   D(18,17,19,21)          0.0166         estimate D2E/DX2                !
 ! D88   D(18,17,19,43)        179.9894         estimate D2E/DX2                !
 ! D89   D(16,18,20,22)       -179.9748         estimate D2E/DX2                !
 ! D90   D(16,18,20,25)          0.0568         estimate D2E/DX2                !
 ! D91   D(17,18,20,22)          0.0371         estimate D2E/DX2                !
 ! D92   D(17,18,20,25)       -179.9313         estimate D2E/DX2                !
 ! D93   D(17,19,21,22)          0.0251         estimate D2E/DX2                !
 ! D94   D(17,19,21,23)        179.9871         estimate D2E/DX2                !
 ! D95   D(43,19,21,22)       -179.9474         estimate D2E/DX2                !
 ! D96   D(43,19,21,23)          0.0146         estimate D2E/DX2                !
 ! D97   D(18,20,22,21)          0.0038         estimate D2E/DX2                !
 ! D98   D(18,20,22,24)       -179.9668         estimate D2E/DX2                !
 ! D99   D(25,20,22,21)        179.9735         estimate D2E/DX2                !
 ! D100  D(25,20,22,24)          0.0028         estimate D2E/DX2                !
 ! D101  D(18,20,25,32)        179.9746         estimate D2E/DX2                !
 ! D102  D(18,20,25,45)         -0.0069         estimate D2E/DX2                !
 ! D103  D(22,20,25,32)          0.0058         estimate D2E/DX2                !
 ! D104  D(22,20,25,45)       -179.9758         estimate D2E/DX2                !
 ! D105  D(19,21,22,20)         -0.0356         estimate D2E/DX2                !
 ! D106  D(19,21,22,24)        179.9354         estimate D2E/DX2                !
 ! D107  D(23,21,22,20)       -179.9987         estimate D2E/DX2                !
 ! D108  D(23,21,22,24)         -0.0276         estimate D2E/DX2                !
 ! D109  D(19,21,23,26)       -179.951          estimate D2E/DX2                !
 ! D110  D(19,21,23,44)          0.0292         estimate D2E/DX2                !
 ! D111  D(22,21,23,26)          0.0113         estimate D2E/DX2                !
 ! D112  D(22,21,23,44)        179.9915         estimate D2E/DX2                !
 ! D113  D(20,22,24,27)        179.9931         estimate D2E/DX2                !
 ! D114  D(20,22,24,29)         -0.0034         estimate D2E/DX2                !
 ! D115  D(21,22,24,27)          0.022          estimate D2E/DX2                !
 ! D116  D(21,22,24,29)       -179.9745         estimate D2E/DX2                !
 ! D117  D(21,23,26,27)          0.0112         estimate D2E/DX2                !
 ! D118  D(21,23,26,46)        179.9866         estimate D2E/DX2                !
 ! D119  D(44,23,26,27)       -179.9685         estimate D2E/DX2                !
 ! D120  D(44,23,26,46)          0.0069         estimate D2E/DX2                !
 ! D121  D(22,24,27,26)          0.0            estimate D2E/DX2                !
 ! D122  D(22,24,27,28)       -179.9829         estimate D2E/DX2                !
 ! D123  D(29,24,27,26)        179.9965         estimate D2E/DX2                !
 ! D124  D(29,24,27,28)          0.0137         estimate D2E/DX2                !
 ! D125  D(22,24,29,31)        179.9913         estimate D2E/DX2                !
 ! D126  D(22,24,29,32)         -0.0041         estimate D2E/DX2                !
 ! D127  D(27,24,29,31)         -0.0053         estimate D2E/DX2                !
 ! D128  D(27,24,29,32)        179.9993         estimate D2E/DX2                !
 ! D129  D(20,25,32,29)         -0.0138         estimate D2E/DX2                !
 ! D130  D(20,25,32,50)        179.9967         estimate D2E/DX2                !
 ! D131  D(45,25,32,29)        179.968          estimate D2E/DX2                !
 ! D132  D(45,25,32,50)         -0.0216         estimate D2E/DX2                !
 ! D133  D(23,26,27,24)         -0.0171         estimate D2E/DX2                !
 ! D134  D(23,26,27,28)        179.9653         estimate D2E/DX2                !
 ! D135  D(46,26,27,24)       -179.993          estimate D2E/DX2                !
 ! D136  D(46,26,27,28)         -0.0106         estimate D2E/DX2                !
 ! D137  D(24,27,28,30)         -0.0107         estimate D2E/DX2                !
 ! D138  D(24,27,28,47)        179.9875         estimate D2E/DX2                !
 ! D139  D(26,27,28,30)       -179.993          estimate D2E/DX2                !
 ! D140  D(26,27,28,47)          0.0052         estimate D2E/DX2                !
 ! D141  D(27,28,30,31)         -0.0011         estimate D2E/DX2                !
 ! D142  D(27,28,30,48)       -179.9931         estimate D2E/DX2                !
 ! D143  D(47,28,30,31)       -179.9993         estimate D2E/DX2                !
 ! D144  D(47,28,30,48)          0.0088         estimate D2E/DX2                !
 ! D145  D(24,29,31,30)         -0.0065         estimate D2E/DX2                !
 ! D146  D(24,29,31,49)        179.9821         estimate D2E/DX2                !
 ! D147  D(32,29,31,30)        179.9888         estimate D2E/DX2                !
 ! D148  D(32,29,31,49)         -0.0227         estimate D2E/DX2                !
 ! D149  D(24,29,32,25)          0.0127         estimate D2E/DX2                !
 ! D150  D(24,29,32,50)       -179.9976         estimate D2E/DX2                !
 ! D151  D(31,29,32,25)       -179.9826         estimate D2E/DX2                !
 ! D152  D(31,29,32,50)          0.0071         estimate D2E/DX2                !
 ! D153  D(28,30,31,29)          0.0098         estimate D2E/DX2                !
 ! D154  D(28,30,31,49)       -179.9786         estimate D2E/DX2                !
 ! D155  D(48,30,31,29)       -179.9983         estimate D2E/DX2                !
 ! D156  D(48,30,31,49)          0.0134         estimate D2E/DX2                !
 --------------------------------------------------------------------------------
 Trust Radius=3.00D-01 FncErr=1.00D-07 GrdErr=1.00D-06
 Number of steps in this run=    300 maximum allowed number of steps=    300.
 GradGradGradGradGradGradGradGradGradGradGradGradGradGradGradGradGradGrad

 Leave Link  103 at Sat Jul 27 14:41:05 2019, MaxMem=  4194304000 cpu:         0.1
 (Enter /home/minenky/programs//g09/l202.exe)
                          Input orientation:                          
 ---------------------------------------------------------------------
 Center     Atomic      Atomic             Coordinates (Angstroms)
 Number     Number       Type             X           Y           Z
 ---------------------------------------------------------------------
      1          6           0        3.785500    1.654300    1.416400
      2          6           0        3.259600    2.827600    2.097100
      3          6           0        2.869300    0.813700    0.698700
      4          6           0        5.146800    1.383500    1.480200
      5          6           0        1.850400    3.088900    2.018200
      6          6           0        4.129700    3.654300    2.797600
      7          6           0        1.017800    2.259300    1.322500
      8          6           0        1.535500    1.103700    0.652300
      9          6           0        6.044000    2.216200    2.189400
     10          6           0        5.516800    3.391000    2.871000
     11          6           0        7.419500    1.950000    2.258400
     12          6           0        6.401300    4.221800    3.577100
     13          6           0        8.300100    2.782100    2.964500
     14          6           0        7.774100    3.954500    3.645300
     15          6           0        9.687000    2.531900    3.045900
     16          6           0        8.668800    4.791800    4.358200
     17          6           0       10.552200    3.364200    3.749900
     18          6           0       10.030400    4.540300    4.435100
     19          6           0       11.948000    3.083600    3.812700
     20          6           0       10.962800    5.392900    5.166400
     21          6           0       12.827900    3.885900    4.500500
     22          6           0       12.336400    5.065000    5.194200
     23          6           0       14.240100    3.588900    4.555700
     24          6           0       13.263100    5.888400    5.906000
     25          6           0       10.536400    6.560800    5.865000
     26          6           0       15.106600    4.379100    5.234300
     27          6           0       14.656200    5.559200    5.936600
     28          6           0       15.537500    6.380900    6.639600
     29          6           0       12.805700    7.050500    6.595200
     30          6           0       15.078900    7.522700    7.315200
     31          6           0       13.736000    7.854500    7.295000
     32          6           0       11.416200    7.356300    6.549700
     33          1           0        3.263800   -0.063200    0.190700
     34          1           0        5.539700    0.505700    0.971100
     35          1           0        1.459500    3.966700    2.527500
     36          1           0        3.736600    4.532200    3.306600
     37          1           0       -0.046900    2.470300    1.272000
     38          1           0        0.854600    0.457700    0.104700
     39          1           0        7.814200    1.072800    1.749800
     40          1           0        6.007100    5.099200    4.085900
     41          1           0       10.092500    1.657800    2.540600
     42          1           0        8.240200    5.657100    4.853200
     43          1           0       12.319700    2.201500    3.295500
     44          1           0       14.593500    2.703700    4.032300
     45          1           0        9.487400    6.834800    5.859900
     46          1           0       16.166500    4.138100    5.264000
     47          1           0       16.594700    6.127500    6.660700
     48          1           0       15.785300    8.146900    7.855700
     49          1           0       13.378700    8.738600    7.817300
     50          1           0       11.057700    8.240100    7.071900
 ---------------------------------------------------------------------
                    Distance matrix (angstroms):
                    1          2          3          4          5
     1  C    0.000000
     2  C    1.454839   0.000000
     3  C    1.435662   2.482670   0.000000
     4  C    1.389439   2.455100   2.474353   0.000000
     5  C    2.482912   1.435391   2.820598   3.750211   0.000000
     6  C    2.454829   1.389679   3.750066   2.815416   2.474338
     7  C    2.834609   2.438983   2.430419   4.223806   1.365817
     8  C    2.439162   2.834043   1.365751   3.715534   2.430198
     9  C    2.452363   2.852229   3.777289   1.414681   4.286863
    10  C    2.851208   2.451794   4.286096   2.470077   3.776377
    11  C    3.741973   4.254523   4.942485   2.468133   5.689434
    12  C    4.254773   3.742255   5.689935   3.745225   4.942097
    13  C    4.904096   5.114792   6.205001   3.755333   6.525967
    14  C    5.115452   4.903829   6.527185   4.266193   6.203784
    15  C    6.184913   6.503778   7.412327   4.937981   7.923302
    16  C    6.507281   6.183049   7.927889   5.683650   7.407162
    17  C    7.359158   7.496779   8.651117   6.188139   8.876705
    18  C    7.512677   7.365006   8.895481   6.522758   8.652189
    19  C    8.626213   8.859860   9.862669   7.388316  10.255817
    20  C    8.919264   8.679900  10.316693   7.968012   9.912387
    21  C    9.811050   9.922132  11.093503   8.624588  11.282842
    22  C    9.951007   9.848162  11.309689   8.890309  11.133200
    23  C   11.085871  11.278106  12.323688   9.849396  12.656760
    24  C   11.309687  11.133114  12.684622  10.283781  12.377476
    25  C    9.457190   9.004758  10.885965   8.664796  10.114275
    26  C   12.254314  12.353161  13.529052  11.057328  13.701633
    27  C   12.403732  12.332311  13.743594  11.301534  13.617810
    28  C   13.701535  13.564921  15.058928  12.631709  14.816589
    29  C   11.717634  11.366346  13.130058  10.813735  12.516461
    30  C   14.027646  13.746577  15.422811  13.053107  14.923472
    31  C   13.115368  12.729605  14.531662  12.225387  13.850020
    32  C   10.820867  10.337548  12.251094  10.033920  11.412700
    33  H    2.173550   3.462817   1.087496   2.702118   3.908093
    34  H    2.143547   3.443538   2.701870   1.088157   4.623881
    35  H    3.462949   2.173282   3.908127   4.622331   1.087530
    36  H    3.443480   2.143847   4.623915   3.903679   2.702007
    37  H    3.920969   3.426572   3.402531   5.310273   2.130546
    38  H    3.426745   3.920473   2.130396   4.601314   3.402398
    39  H    4.084081   4.893294   5.062013   2.698933   6.301080
    40  H    4.891735   4.082187   6.299557   4.619114   5.059135
    41  H    6.406410   6.946484   7.501981   5.065534   8.381716
    42  H    6.904951   6.356771   8.340561   6.261782   7.447310
    43  H    8.755742   9.160435   9.898455   7.444121  10.584197
    44  H   11.169469  11.498593  12.334580   9.874021  12.907036
    45  H    8.893477   8.306733  10.329128   8.230386   9.333499
    46  H   13.200850  13.354203  14.446769  11.972416  14.716887
    47  H   14.546058  14.475520  15.879815  13.431215  15.753739
    48  H   15.086870  14.776657  16.487011  14.126863  15.932395
    49  H   13.534708  13.040583  14.964157  12.728728  14.087241
    50  H   11.324413  10.717003  12.760054  10.640433  11.698253
                    6          7          8          9         10
     6  C    0.000000
     7  C    3.715625   0.000000
     8  C    4.223476   1.432687   0.000000
     9  C    2.470341   5.100594   4.891514   0.000000
    10  C    1.413775   4.890767   5.099522   1.456940   0.000000
    11  C    3.744083   6.477140   6.157697   1.402720   2.464148
    12  C    2.467761   6.157654   6.477115   2.464915   1.403975
    13  C    4.263898   7.483407   7.343236   2.451736   2.850660
    14  C    3.753714   7.342799   7.483665   2.852118   2.452035
    15  C    5.674947   8.843045   8.614873   3.755623   4.261363
    16  C    4.932830   8.612017   8.844193   4.269307   3.756209
    17  C    6.499195   9.900397   9.798258   4.906825   5.111598
    18  C    6.187460   9.803989   9.913784   5.131861   4.913236
    19  C    7.904552  11.240544  11.060212   6.184230   6.507044
    20  C    7.438091  11.112967  11.298156   6.568755   6.239822
    21  C    8.866352  12.337908  12.250207   7.358694   7.506822
    22  C    8.665085  12.287096  12.368516   7.532515   7.396383
    23  C   10.262328  13.676646  13.521080   8.640587   8.886695
    24  C    9.903148  13.569311  13.712451   8.911429   8.686391
    25  C    7.674796  11.390389  11.745994   7.250327   6.648914
    26  C   11.267439  14.774641  14.693459   9.802054   9.926016
    27  C   11.148505  14.771094  14.829972   9.969310   9.880669
    28  C   12.342334  16.002526  16.116842  11.281647  11.115587
    29  C   10.061258  13.773582  14.060580   9.407556   8.966029
    30  C   12.460265  16.165716  16.401874  11.664570  11.325000
    31  C   11.408299  15.123810  15.445095  10.817784  10.346490
    32  C    8.993116  12.705501  13.095899   8.619361   8.003709
    33  H    4.622285   3.423375   2.135826   4.113390   4.918487
    34  H    3.903573   4.862733   4.061140   2.159718   3.454721
    35  H    2.701947   2.135963   3.423291   4.918964   4.112312
    36  H    1.088263   4.061355   4.862588   3.454864   2.158981
    37  H    4.601445   1.086581   2.180737   6.164840   5.861676
    38  H    5.310013   2.180696   1.086649   5.862437   6.163828
    39  H    4.619260   6.912411   6.373973   2.152724   3.450969
    40  H    2.696680   6.371383   6.910053   3.451052   2.152748
    41  H    6.293413   9.175824   8.780373   4.101890   4.904098
    42  H    5.013273   8.727769   9.128747   4.874312   4.059709
    43  H    8.332745  11.472969  11.157537   6.372447   6.919144
    44  H   10.579189  13.850637  13.582922   8.759446   9.176463
    45  H    6.942493  10.642242  11.099429   6.830889   6.046399
    46  H   12.296412  15.765419  15.637823  10.752296  10.940782
    47  H   13.282187  16.914466  16.974067  12.108182  12.023732
    48  H   13.476678  17.187949  17.451431  12.734720  12.365594
    49  H   11.687236  15.393362  15.807919  11.314273  10.717844
    50  H    9.343254  13.024022  13.520790   9.233816   8.477199
                   11         12         13         14         15
    11  C    0.000000
    12  C    2.817228   0.000000
    13  C    1.402292   2.460377   0.000000
    14  C    2.463179   1.400243   1.454196   0.000000
    15  C    2.469883   3.732795   1.411637   2.458100   0.000000
    16  C    3.747764   2.465071   2.473304   1.417669   2.804641
    17  C    3.746778   4.242088   2.455127   2.842048   1.391729
    18  C    4.273696   3.742723   2.871910   2.461267   2.466064
    19  C    4.920184   5.667176   3.757329   4.267075   2.450403
    20  C    5.732800   4.970375   4.330659   3.814518   3.782791
    21  C    6.166483   6.501283   4.906999   5.126106   3.716777
    22  C    6.519053   6.208978   5.145378   4.944379   4.248660
    23  C    7.381339   7.924961   6.202132   6.540004   4.911972
    24  C    7.934963   7.435431   6.552320   6.243385   5.677566
    25  C    6.631901   5.272993   5.262367   4.398883   4.990074
    26  C    8.593487   8.863030   7.350568   7.514703   6.129707
    27  C    8.883992   8.689031   7.546235   7.428891   6.497203
    28  C   10.233754   9.874754   8.879059   8.667389   7.871330
    29  C    8.592676   7.624094   7.190386   6.603342   6.537703
    30  C   10.737440  10.008500   9.346337   8.919659   8.497505
    31  C   10.006430   8.989834   8.604155   8.004659   7.923340
    32  C    7.976023   6.618962   6.594471   5.768247   6.208187
    33  H    5.059466   6.298638   6.415140   6.958375   7.492944
    34  H    2.697553   4.619847   4.095784   4.902868   5.060670
    35  H    6.297705   5.058470   6.956152   6.412784   8.367744
    36  H    4.618466   2.696321   4.899532   4.092659   6.283027
    37  H    7.549227   7.068276   8.522569   8.306831   9.894409
    38  H    7.068472   7.549297   8.307633   8.523083   9.537518
    39  H    1.088091   3.905319   2.152510   3.449453   2.704853
    40  H    3.905393   1.088164   3.447367   2.150989   4.605898
    41  H    2.703691   4.612308   2.157878   3.445312   1.088030
    42  H    4.598818   2.658960   3.440407   2.138953   3.889272
    43  H    5.015056   6.260061   4.074781   4.884450   2.665065
    44  H    7.428396   8.344098   6.383825   6.943953   5.007618
    45  H    6.411574   4.643593   5.120293   4.016961   5.145229
    46  H    9.504284   9.910185   8.307026   8.549051   7.034470
    47  H   11.000729  10.818765   9.677499   9.571706   8.585537
    48  H   11.820235  11.035048  10.427518   9.974117   9.583927
    49  H   10.606532   9.330857   9.209872   8.467865   8.655520
    50  H    8.716171   7.074067   7.366468   6.394528   7.118359
                   16         17         18         19         20
    16  C    0.000000
    17  C    2.440341   0.000000
    18  C    1.386766   1.457733   0.000000
    19  C    3.737468   1.425110   2.487277   0.000000
    20  C    2.505383   2.508124   1.459827   2.852366   0.000000
    21  C    4.258992   2.452424   2.873765   1.375128   2.488588
    22  C    3.771581   2.856938   2.483783   2.446496   1.412469
    23  C    5.703101   3.781588   4.317555   2.461930   3.790523
    24  C    4.970494   4.285946   3.798851   3.738756   2.466558
    25  C    2.981231   3.833034   2.526474   4.277320   1.426131
    26  C    6.510234   4.896532   5.141256   3.698110   4.266554
    27  C    6.239328   5.142227   4.968972   4.239563   3.776515
    28  C    7.410065   6.504157   6.210940   5.634542   4.906561
    29  C    5.217263   5.173278   4.320813   4.920798   2.861012
    30  C    7.569085   7.106019   6.532766   6.463409   5.108392
    31  C    6.609194   6.547298   5.735366   6.171292   4.275635
    32  C    4.350579   4.951993   3.784419   5.101955   2.444183
    33  H    8.375745   8.805439   9.219220   9.921520  10.667765
    34  H    6.295583   6.404522   6.960149   7.469041   8.419933
    35  H    7.483733   9.194262   8.799334  10.603784   9.965468
    36  H    5.049738   6.929152   6.394177   8.353542   7.511167
    37  H    9.532965  10.921537  10.762996  12.276356  12.038332
    38  H    9.896384  10.760050  10.936878  11.987833  12.335020
    39  H    4.622235   4.092378   4.913851   5.038569   6.344297
    40  H    2.693193   4.876582   4.076917   6.279457   5.080620
    41  H    3.892627   2.141385   3.449898   2.663461   4.647926
    42  H    1.085112   3.438023   2.151015   4.631773   2.753261
    43  H    4.600876   2.163887   3.465482   1.088006   3.940365
    44  H    6.290345   4.104646   4.935304   2.681645   4.658322
    45  H    2.664406   4.198924   2.754929   4.931235   2.176424
    46  H    7.580455   5.866156   6.204882   4.584101   5.353741
    47  H    8.360950   7.253991   7.110734   6.242456   5.872893
    48  H    8.610097   8.192506   7.604403   7.530453   6.170361
    49  H    7.051650   7.308695   6.346346   7.075503   4.904850
    50  H    4.996177   5.921623   4.657959   6.164780   3.427314
                   21         22         23         24         25
    21  C    0.000000
    22  C    1.453640   0.000000
    23  C    1.444148   2.492113   0.000000
    24  C    2.484922   1.429482   2.839989   0.000000
    25  C    3.777290   2.434623   4.925835   2.808682   0.000000
    26  C    2.444214   2.854133   1.354893   2.475411   5.103364
    27  C    2.864437   2.485330   2.441742   1.431795   4.240410
    28  C    4.259426   3.750709   3.717681   2.440004   5.063928
    29  C    3.795122   2.474925   4.266115   1.426425   2.433664
    30  C    5.120142   4.249734   4.877828   2.820268   4.864426
    31  C    4.937982   3.762121   5.094431   2.453264   3.735773
    32  C    4.270339   2.816772   5.113096   2.445428   1.369556
    33  H   11.209004  11.560515  12.364070  12.964266  11.356310
    34  H    8.774980   9.209610   9.902143  10.629092   9.251027
    35  H   11.538621  11.252755  12.946044  12.427074  10.012910
    36  H    9.192107   8.820628  10.619490   9.967465   7.543070
    37  H   13.348693  13.246216  14.702120  14.502188  12.240673
    38  H   13.207404  13.377666  14.449478  14.734940  12.812733
    39  H    6.373152   6.946355   7.449565   8.375829   7.379931
    40  H    6.940267   6.425694   8.383556   7.522309   5.080948
    41  H    4.035846   4.866795   4.999236   6.267104   5.940378
    42  H    4.930369   4.152796   6.353326   5.137257   2.667011
    43  H    2.132486   3.435837   2.683453   4.614970   5.365257
    44  H    2.175811   3.467023   1.087391   3.927217   5.890337
    45  H    4.658639   3.419379   5.901268   3.892776   1.084206
    46  H    3.434063   3.941279   2.124694   3.450427   6.158628
    47  H    4.886718   4.627380   4.052117   3.424368   6.125674
    48  H    6.177354   5.336347   5.835495   3.906872   5.833485
    49  H    5.903663   4.632751   6.156253   3.433667   4.078352
    50  H    5.357683   3.904112   6.171920   3.428353   2.132700
                   26         27         28         29         30
    26  C    0.000000
    27  C    1.445241   0.000000
    28  C    2.483495   1.395023   0.000000
    29  C    3.779228   2.466187   2.813017   0.000000
    30  C    3.770031   2.436092   1.403730   2.430805   0.000000
    31  C    4.266548   2.821422   2.417943   1.414777   1.383430
    32  C    4.920676   3.755404   4.236107   1.423480   3.745537
    33  H   13.617042  13.943225  15.289161  13.515554  15.744871
    34  H   11.167080  11.545762  12.907590  11.280943  13.434368
    35  H   13.919058  13.722642  14.863641  12.441554  14.867927
    36  H   11.533272  11.278710  12.401122   9.970221  12.395956
    37  H   15.778843  15.731527  16.940409  14.645956  17.053939
    38  H   15.646395  15.827840  17.128245  15.113583  17.442369
    39  H    8.732265   9.190759  10.570498   9.172016  11.196015
    40  H    9.199906   8.856840   9.949506   7.505006   9.929717
    41  H    6.308937   6.897905   8.292014   7.272032   9.058589
    42  H    6.994710   6.507565   7.547562   5.081330   7.503981
    43  H    4.033324   4.869167   6.245368   5.885322   7.217087
    44  H    2.124863   3.432808   4.605535   5.353443   5.851137
    45  H    6.164191   5.324428   6.116998   3.405629   5.818589
    46  H    1.087360   2.180120   2.705193   4.642106   4.104365
    47  H    2.702954   2.145942   1.087349   3.900351   2.161620
    48  H    4.639902   3.413796   2.158486   3.415987   1.086631
    49  H    5.353762   3.908660   3.406779   2.161374   2.149697
    50  H    5.888776   4.628751   4.869509   2.167463   4.091932
                   31         32         33         34         35
    31  C    0.000000
    32  C    2.486996   0.000000
    33  H   14.927425  12.725859   0.000000
    34  H   12.695507  10.610596   2.472325   0.000000
    35  H   13.731588  11.260700   4.995621   5.572157   0.000000
    36  H   11.266455   8.801676   5.572259   4.991837   2.472240
    37  H   15.976059  13.532545   4.306805   5.929612   2.466725
    38  H   16.502834  14.166019   2.466369   4.764779   4.306849
    39  H   10.573950   8.688833   4.942411   2.470086   7.025787
    40  H    8.810556   6.357922   7.024860   5.569622   4.938809
    41  H    8.618498   7.092106   7.423949   4.951631   8.936436
    42  H    6.402716   3.981503   8.900859   6.992877   7.365068
    43  H    7.068120   6.162637   9.837580   7.365254  11.029492
    44  H    6.157212   6.170837  12.279077   9.806806  13.280119
    45  H    4.598902   2.113778  10.883723   8.918644   9.153036
    46  H    4.883024   5.880067  14.486855  12.022986  14.960403
    47  H    3.399563   5.323451  16.059220  13.645117  15.837509
    48  H    2.144647   4.628144  16.820997  14.517506  15.845893
    49  H    1.087241   2.714585  15.425560  13.270306  13.885976
    50  H    2.715097   1.087344  13.305660  11.291104  11.447225
                   36         37         38         39         40
    36  H    0.000000
    37  H    4.765071   0.000000
    38  H    5.929556   2.495165   0.000000
    39  H    5.569371   7.998637   7.177795   0.000000
    40  H    2.466570   7.174961   7.996357   4.993483   0.000000
    41  H    7.017578  10.250704   9.628741   2.481580   5.560727
    42  H    4.892830   9.573751  10.204367   5.552331   2.426260
    43  H    8.893924  12.533938  12.027908   4.895169   6.990731
    44  H   11.033691  14.900169  14.464713   7.336794   8.914458
    45  H    6.700224  11.445548  12.178463   7.272769   4.274561
    46  H   12.589247  16.780702  16.571602   9.565907  10.272538
    47  H   13.383785  17.870536  17.968821  11.258957  10.944600
    48  H   13.376529  18.061768  18.496692  12.282644  10.913893
    49  H   11.445973  16.198126  16.879295  11.249120   9.028237
    50  H    9.029093  13.792809  14.601742   9.498170   6.655074
                   41         42         43         44         45
    41  H    0.000000
    42  H    4.977302   0.000000
    43  H    2.413691   5.568655   0.000000
    44  H    4.855726   7.054138   2.442385   0.000000
    45  H    6.179420   1.988952   6.005459   6.817504   0.000000
    46  H    7.103680   8.080987   4.735323   2.459455   7.227563
    47  H    8.901239   8.560724   6.709223   4.757698   7.187160
    48  H   10.137390   8.493683   8.255519   6.757751   6.735605
    49  H    9.422335   6.684737   8.018842   7.226478   4.753744
    50  H    8.049283   4.419596   7.233155   7.238285   2.430978
                   46         47         48         49         50
    46  H    0.000000
    47  H    2.468165   0.000000
    48  H    4.788810   2.482162   0.000000
    49  H    5.954475   4.300956   2.478570   0.000000
    50  H    6.796672   5.940584   4.793040   2.488205   0.000000
 Stoichiometry    C32H18
 Framework group  C1[X(C32H18)]
 Deg. of freedom   144
 Full point group                 C1      NOp   1
 Largest Abelian subgroup         C1      NOp   1
 Largest concise Abelian subgroup C1      NOp   1
                         Standard orientation:                         
 ---------------------------------------------------------------------
 Center     Atomic      Atomic             Coordinates (Angstroms)
 Number     Number       Type             X           Y           Z
 ---------------------------------------------------------------------
      1          6           0        6.237352    0.527308    0.001663
      2          6           0        6.070174   -0.917892   -0.000351
      3          6           0        7.570454    1.060186    0.003338
      4          6           0        5.112274    1.342624    0.002174
      5          6           0        7.245664   -1.741646   -0.001092
      6          6           0        4.788095   -1.454063   -0.001850
      7          6           0        8.494170   -1.187853    0.000441
      8          6           0        8.658974    0.235322    0.002654
      9          6           0        3.801416    0.810676    0.000593
     10          6           0        3.634561   -0.636676   -0.001307
     11          6           0        2.660556    1.626802    0.000795
     12          6           0        2.336538   -1.171729   -0.002541
     13          6           0        1.365521    1.088930   -0.000576
     14          6           0        1.198682   -0.355663   -0.002002
     15          6           0        0.205022    1.892646   -0.000559
     16          6           0       -0.112829   -0.893924   -0.002676
     17          6           0       -1.075861    1.348359   -0.001509
     18          6           0       -1.249170   -0.099035   -0.001943
     19          6           0       -2.227548    2.187736   -0.001540
     20          6           0       -2.605261   -0.639510   -0.001334
     21          6           0       -3.505693    1.680466   -0.001629
     22          6           0       -3.709541    0.241191   -0.001142
     23          6           0       -4.663648    2.543430   -0.001382
     24          6           0       -5.044128   -0.270956    0.000166
     25          6           0       -2.864152   -2.041945   -0.000253
     26          6           0       -5.922834    2.043246   -0.000483
     27          6           0       -6.166044    0.618617    0.000513
     28          6           0       -7.457218    0.090452    0.002161
     29          6           0       -5.270642   -1.679281    0.001216
     30          6           0       -7.671178   -1.296875    0.003255
     31          6           0       -6.597743   -2.169582    0.002691
     32          6           0       -4.138891   -2.542666    0.000828
     33          1           0        7.693858    2.140656    0.005241
     34          1           0        5.237768    2.423520    0.003896
     35          1           0        7.118350   -2.821697   -0.002943
     36          1           0        4.662780   -2.535085   -0.003680
     37          1           0        9.374592   -1.824652   -0.000019
     38          1           0        9.661756    0.653930    0.003793
     39          1           0        2.784102    2.707856    0.002337
     40          1           0        2.212417   -2.252790   -0.004101
     41          1           0        0.316933    2.974905    0.000426
     42          1           0       -0.197967   -1.975690   -0.003957
     43          1           0       -2.079190    3.265580   -0.001036
     44          1           0       -4.496041    3.617826   -0.001610
     45          1           0       -2.034318   -2.739711    0.000024
     46          1           0       -6.781805    2.709971   -0.000092
     47          1           0       -8.306695    0.769213    0.002627
     48          1           0       -8.686625   -1.683700    0.004418
     49          1           0       -6.761188   -3.244467    0.003186
     50          1           0       -4.301155   -3.617835    0.001581
 ---------------------------------------------------------------------
 Rotational constants (GHZ):      0.5823266      0.0495084      0.0456291
 Leave Link  202 at Sat Jul 27 14:41:06 2019, MaxMem=  4194304000 cpu:         0.9
 (Enter /home/minenky/programs//g09/l301.exe)
 Standard basis: def2TZVP (5D, 7F)
 ======================================================================================================
                                       Pseudopotential Parameters
 ======================================================================================================
  Center     Atomic      Valence      Angular      Power
  Number     Number     Electrons     Momentum     of R      Exponent        Coefficient   SO-Coeffient
 ======================================================================================================
    1          6
                                   No pseudopotential on this center.
    2          6
                                   No pseudopotential on this center.
    3          6
                                   No pseudopotential on this center.
    4          6
                                   No pseudopotential on this center.
    5          6
                                   No pseudopotential on this center.
    6          6
                                   No pseudopotential on this center.
    7          6
                                   No pseudopotential on this center.
    8          6
                                   No pseudopotential on this center.
    9          6
                                   No pseudopotential on this center.
   10          6
                                   No pseudopotential on this center.
   11          6
                                   No pseudopotential on this center.
   12          6
                                   No pseudopotential on this center.
   13          6
                                   No pseudopotential on this center.
   14          6
                                   No pseudopotential on this center.
   15          6
                                   No pseudopotential on this center.
   16          6
                                   No pseudopotential on this center.
   17          6
                                   No pseudopotential on this center.
   18          6
                                   No pseudopotential on this center.
   19          6
                                   No pseudopotential on this center.
   20          6
                                   No pseudopotential on this center.
   21          6
                                   No pseudopotential on this center.
   22          6
                                   No pseudopotential on this center.
   23          6
                                   No pseudopotential on this center.
   24          6
                                   No pseudopotential on this center.
   25          6
                                   No pseudopotential on this center.
   26          6
                                   No pseudopotential on this center.
   27          6
                                   No pseudopotential on this center.
   28          6
                                   No pseudopotential on this center.
   29          6
                                   No pseudopotential on this center.
   30          6
                                   No pseudopotential on this center.
   31          6
                                   No pseudopotential on this center.
   32          6
                                   No pseudopotential on this center.
   33          1
                                   No pseudopotential on this center.
   34          1
                                   No pseudopotential on this center.
   35          1
                                   No pseudopotential on this center.
   36          1
                                   No pseudopotential on this center.
   37          1
                                   No pseudopotential on this center.
   38          1
                                   No pseudopotential on this center.
   39          1
                                   No pseudopotential on this center.
   40          1
                                   No pseudopotential on this center.
   41          1
                                   No pseudopotential on this center.
   42          1
                                   No pseudopotential on this center.
   43          1
                                   No pseudopotential on this center.
   44          1
                                   No pseudopotential on this center.
   45          1
                                   No pseudopotential on this center.
   46          1
                                   No pseudopotential on this center.
   47          1
                                   No pseudopotential on this center.
   48          1
                                   No pseudopotential on this center.
   49          1
                                   No pseudopotential on this center.
   50          1
                                   No pseudopotential on this center.
 ======================================================================================================
 Ernie: Thresh=  0.10000D-02 Tol=  0.10000D-05 Strict=F.
 AO basis set (Overlap normalization):
 Atom C1       Shell     1 S   6     bf    1 -     1         11.786886464933          0.996467172125          0.003142370996
      0.1357534968D+05  0.6064550360D-03
      0.2035233368D+04  0.4697908888D-02
      0.4632256236D+03  0.2433247765D-01
      0.1312001960D+03  0.9739996831D-01
      0.4285301589D+02  0.3019558425D+00
      0.1558418577D+02  0.6623360914D+00
 Atom C1       Shell     2 S   2     bf    2 -     2         11.786886464933          0.996467172125          0.003142370996
      0.6206713851D+01  0.6559530854D+00
      0.2576489653D+01  0.3758563329D+00
 Atom C1       Shell     3 S   1     bf    3 -     3         11.786886464933          0.996467172125          0.003142370996
      0.5769633942D+00  0.1000000000D+01
 Atom C1       Shell     4 S   1     bf    4 -     4         11.786886464933          0.996467172125          0.003142370996
      0.2297283136D+00  0.1000000000D+01
 Atom C1       Shell     5 S   1     bf    5 -     5         11.786886464933          0.996467172125          0.003142370996
      0.9516444003D-01  0.1000000000D+01
 Atom C1       Shell     6 P   4     bf    6 -     8         11.786886464933          0.996467172125          0.003142370996
      0.3469723224D+02  0.1132722000D-01
      0.7958262283D+01  0.7616965920D-01
      0.2378082688D+01  0.3019225220D+00
      0.8143320818D+00  0.7278502735D+00
 Atom C1       Shell     7 P   1     bf    9 -    11         11.786886464933          0.996467172125          0.003142370996
      0.2888754725D+00  0.1000000000D+01
 Atom C1       Shell     8 P   1     bf   12 -    14         11.786886464933          0.996467172125          0.003142370996
      0.1005682367D+00  0.1000000000D+01
 Atom C1       Shell     9 D   1     bf   15 -    19         11.786886464933          0.996467172125          0.003142370996
      0.1097000000D+01  0.1000000000D+01
 Atom C1       Shell    10 D   1     bf   20 -    24         11.786886464933          0.996467172125          0.003142370996
      0.3180000000D+00  0.1000000000D+01
 Atom C1       Shell    11 F   1     bf   25 -    31         11.786886464933          0.996467172125          0.003142370996
      0.7610000000D+00  0.1000000000D+01
 Atom C2       Shell    12 S   6     bf   32 -    32         11.470965691560         -1.734565418183         -0.000663448218
      0.1357534968D+05  0.6064550360D-03
      0.2035233368D+04  0.4697908888D-02
      0.4632256236D+03  0.2433247765D-01
      0.1312001960D+03  0.9739996831D-01
      0.4285301589D+02  0.3019558425D+00
      0.1558418577D+02  0.6623360914D+00
 Atom C2       Shell    13 S   2     bf   33 -    33         11.470965691560         -1.734565418183         -0.000663448218
      0.6206713851D+01  0.6559530854D+00
      0.2576489653D+01  0.3758563329D+00
 Atom C2       Shell    14 S   1     bf   34 -    34         11.470965691560         -1.734565418183         -0.000663448218
      0.5769633942D+00  0.1000000000D+01
 Atom C2       Shell    15 S   1     bf   35 -    35         11.470965691560         -1.734565418183         -0.000663448218
      0.2297283136D+00  0.1000000000D+01
 Atom C2       Shell    16 S   1     bf   36 -    36         11.470965691560         -1.734565418183         -0.000663448218
      0.9516444003D-01  0.1000000000D+01
 Atom C2       Shell    17 P   4     bf   37 -    39         11.470965691560         -1.734565418183         -0.000663448218
      0.3469723224D+02  0.1132722000D-01
      0.7958262283D+01  0.7616965920D-01
      0.2378082688D+01  0.3019225220D+00
      0.8143320818D+00  0.7278502735D+00
 Atom C2       Shell    18 P   1     bf   40 -    42         11.470965691560         -1.734565418183         -0.000663448218
      0.2888754725D+00  0.1000000000D+01
 Atom C2       Shell    19 P   1     bf   43 -    45         11.470965691560         -1.734565418183         -0.000663448218
      0.1005682367D+00  0.1000000000D+01
 Atom C2       Shell    20 D   1     bf   46 -    50         11.470965691560         -1.734565418183         -0.000663448218
      0.1097000000D+01  0.1000000000D+01
 Atom C2       Shell    21 D   1     bf   51 -    55         11.470965691560         -1.734565418183         -0.000663448218
      0.3180000000D+00  0.1000000000D+01
 Atom C2       Shell    22 F   1     bf   56 -    62         11.470965691560         -1.734565418183         -0.000663448218
      0.7610000000D+00  0.1000000000D+01
 Atom C3       Shell    23 S   6     bf   63 -    63         14.306084847722          2.003461356556          0.006308603961
      0.1357534968D+05  0.6064550360D-03
      0.2035233368D+04  0.4697908888D-02
      0.4632256236D+03  0.2433247765D-01
      0.1312001960D+03  0.9739996831D-01
      0.4285301589D+02  0.3019558425D+00
      0.1558418577D+02  0.6623360914D+00
 Atom C3       Shell    24 S   2     bf   64 -    64         14.306084847722          2.003461356556          0.006308603961
      0.6206713851D+01  0.6559530854D+00
      0.2576489653D+01  0.3758563329D+00
 Atom C3       Shell    25 S   1     bf   65 -    65         14.306084847722          2.003461356556          0.006308603961
      0.5769633942D+00  0.1000000000D+01
 Atom C3       Shell    26 S   1     bf   66 -    66         14.306084847722          2.003461356556          0.006308603961
      0.2297283136D+00  0.1000000000D+01
 Atom C3       Shell    27 S   1     bf   67 -    67         14.306084847722          2.003461356556          0.006308603961
      0.9516444003D-01  0.1000000000D+01
 Atom C3       Shell    28 P   4     bf   68 -    70         14.306084847722          2.003461356556          0.006308603961
      0.3469723224D+02  0.1132722000D-01
      0.7958262283D+01  0.7616965920D-01
      0.2378082688D+01  0.3019225220D+00
      0.8143320818D+00  0.7278502735D+00
 Atom C3       Shell    29 P   1     bf   71 -    73         14.306084847722          2.003461356556          0.006308603961
      0.2888754725D+00  0.1000000000D+01
 Atom C3       Shell    30 P   1     bf   74 -    76         14.306084847722          2.003461356556          0.006308603961
      0.1005682367D+00  0.1000000000D+01
 Atom C3       Shell    31 D   1     bf   77 -    81         14.306084847722          2.003461356556          0.006308603961
      0.1097000000D+01  0.1000000000D+01
 Atom C3       Shell    32 D   1     bf   82 -    86         14.306084847722          2.003461356556          0.006308603961
      0.3180000000D+00  0.1000000000D+01
 Atom C3       Shell    33 F   1     bf   87 -    93         14.306084847722          2.003461356556          0.006308603961
      0.7610000000D+00  0.1000000000D+01
 Atom C4       Shell    34 S   6     bf   94 -    94          9.660798304417          2.537192488382          0.004108244694
      0.1357534968D+05  0.6064550360D-03
      0.2035233368D+04  0.4697908888D-02
      0.4632256236D+03  0.2433247765D-01
      0.1312001960D+03  0.9739996831D-01
      0.4285301589D+02  0.3019558425D+00
      0.1558418577D+02  0.6623360914D+00
 Atom C4       Shell    35 S   2     bf   95 -    95          9.660798304417          2.537192488382          0.004108244694
      0.6206713851D+01  0.6559530854D+00
      0.2576489653D+01  0.3758563329D+00
 Atom C4       Shell    36 S   1     bf   96 -    96          9.660798304417          2.537192488382          0.004108244694
      0.5769633942D+00  0.1000000000D+01
 Atom C4       Shell    37 S   1     bf   97 -    97          9.660798304417          2.537192488382          0.004108244694
      0.2297283136D+00  0.1000000000D+01
 Atom C4       Shell    38 S   1     bf   98 -    98          9.660798304417          2.537192488382          0.004108244694
      0.9516444003D-01  0.1000000000D+01
 Atom C4       Shell    39 P   4     bf   99 -   101          9.660798304417          2.537192488382          0.004108244694
      0.3469723224D+02  0.1132722000D-01
      0.7958262283D+01  0.7616965920D-01
      0.2378082688D+01  0.3019225220D+00
      0.8143320818D+00  0.7278502735D+00
 Atom C4       Shell    40 P   1     bf  102 -   104          9.660798304417          2.537192488382          0.004108244694
      0.2888754725D+00  0.1000000000D+01
 Atom C4       Shell    41 P   1     bf  105 -   107          9.660798304417          2.537192488382          0.004108244694
      0.1005682367D+00  0.1000000000D+01
 Atom C4       Shell    42 D   1     bf  108 -   112          9.660798304417          2.537192488382          0.004108244694
      0.1097000000D+01  0.1000000000D+01
 Atom C4       Shell    43 D   1     bf  113 -   117          9.660798304417          2.537192488382          0.004108244694
      0.3180000000D+00  0.1000000000D+01
 Atom C4       Shell    44 F   1     bf  118 -   124          9.660798304417          2.537192488382          0.004108244694
      0.7610000000D+00  0.1000000000D+01
 Atom C5       Shell    45 S   6     bf  125 -   125         13.692319943683         -3.291234304218         -0.002063365012
      0.1357534968D+05  0.6064550360D-03
      0.2035233368D+04  0.4697908888D-02
      0.4632256236D+03  0.2433247765D-01
      0.1312001960D+03  0.9739996831D-01
      0.4285301589D+02  0.3019558425D+00
      0.1558418577D+02  0.6623360914D+00
 Atom C5       Shell    46 S   2     bf  126 -   126         13.692319943683         -3.291234304218         -0.002063365012
      0.6206713851D+01  0.6559530854D+00
      0.2576489653D+01  0.3758563329D+00
[...]
 0141895,-0.00211792,-0.00535466,0.00027412,-0.00011017,0.00053471,-0.0
 0000040,0.00000065,0.00000005,-0.00000029,0.00000059,-0.00000016,0.000
 00029,-0.00000055,-0.00000063,0.00000056,-0.00000049,-0.00000075,0.000
 00092,-0.00000008,-0.00000004,0.00000066,0.00000068,0.00000033,-0.0000
 0024,0.00000017,-0.00000072,0.00000079,-0.00000028,-0.00000094,-0.0000
 0090,-0.00000237,-0.00000084,0.00000063,0.00000153,-0.00000095,-0.0000
 0475,-0.00000119,-0.00002170,0.00003993,0.00009498,-0.00012450,0.00001
 108,0.00003249,-0.00003393,0.00052812,-0.00024630,-0.00023310,-0.07037
 796,0.06556544,-0.00000870,0.00000260,-0.00000001,-0.00000189,-0.00000
 616,-0.00000448,0.00000309,0.00000073,0.00000057,0.00000991,0.00000254
 ,0.00000282,0.00000193,0.00000109,0.00000141,0.00000881,0.00000359,-0.
 00000017,0.00000125,-0.00000267,-0.00000200,-0.00000222,0.00000187,0.0
 0000049,-0.00002065,0.00000275,-0.00000101,-0.00000860,-0.00000918,-0.
 00000844,0.00002376,0.00000609,0.00000686,0.00001765,-0.00000628,0.000
 01314,-0.00004178,0.00000323,-0.00000631,-0.00002639,-0.00001182,-0.00
 000728,0.00005375,0.00000780,0.00001349,0.00004485,0.00000528,-0.00005
 527,-0.00008325,0.00002181,-0.00001593,-0.00011674,0.00003594,-0.00002
 296,0.00014321,-0.00000441,0.00000863,-0.00010903,0.00012947,-0.000319
 67,-0.00013590,-0.00003347,0.00019419,-0.00058449,0.00037186,0.0004365
 4,0.00027346,0.00000572,-0.00003988,-0.00246422,-0.00542479,0.00357086
 ,-0.00002066,-0.00022548,-0.00006431,-0.00032615,0.00294474,-0.0027819
 3,-0.01550708,0.00397617,0.00338612,-0.00823650,-0.00960621,-0.0440212
 5,-0.00024881,-0.00007210,-0.00100139,0.01561770,-0.00257772,0.0034753
 7,0.00009421,-0.00524688,0.00289806,0.00034822,0.00048301,-0.00046249,
 -0.00000022,-0.00000018,0.00000031,-0.00000026,-0.00000054,0.00000034,
 0.00000010,-0.00000046,0.00000019,0.00000032,-0.00000066,0.00000041,0.
 00000024,-0.00000017,0.00000016,0.00000011,0.00000006,0.00000042,-0.00
 000040,-0.00000138,0.00000022,0.00000076,-0.00000103,0.00000081,-0.000
 00066,-0.00000216,-0.00000289,0.00000197,-0.00000110,0.00000277,-0.000
 01025,-0.00002509,0.00001188,-0.00003012,-0.00013505,0.00019908,-0.000
 01190,-0.00003380,0.00006225,0.00037010,-0.00048573,-0.00000750,0.0100
 7057,0.01426163,0.03630585,-0.00001366,0.00000374,0.00000003,-0.000011
 53,-0.00000857,-0.00000767,0.00000476,0.00000744,0.00000584,0.00001204
 ,0.00001259,0.00001055,0.00001087,-0.00000447,-0.00000093,0.00002086,-
 0.00000456,0.00000079,-0.00000637,-0.00000659,-0.00000543,-0.00000939,
 0.00000369,0.00000084,-0.00002775,0.00000259,-0.00000319,-0.00002560,-
 0.00001642,-0.00001567,0.00003013,0.00002026,0.00001952,0.00004129,-0.
 00000092,0.00000731,-0.00005307,-0.00000722,-0.00001454,-0.00004277,-0
 .00002928,-0.00002919,0.00006282,0.00003268,0.00003239,0.00006631,0.00
 000495,0.00001642,-0.00010021,-0.00002114,-0.00003140,-0.00008879,-0.0
 0005079,-0.00006399,0.00015993,0.00001030,0.00003270,-0.00003209,0.000
 30954,0.00018278,-0.00018583,-0.00008286,-0.00010091,0.00022172,-0.000
 04855,0.00015681,0.00002087,0.00012527,0.00012599,-0.00054948,0.000562
 41,0.00043126,-0.00058891,-0.00006201,-0.00004505,0.00039722,0.0001205
 3,0.00012223,0.00037280,0.00287592,0.00078262,0.01044360,0.00718654,0.
 00621236,-0.00478992,0.00337895,-0.00021348,-0.17899786,-0.10321627,-0
 .09352586,-0.01457146,-0.01992015,-0.01633395,0.00005296,-0.00114274,-
 0.00077787,0.00000088,-0.00000123,-0.00000073,0.00000092,-0.00000133,-
 0.00000081,-0.00000058,0.00000171,0.00000094,-0.00000078,0.00000204,0.
 00000106,-0.00000195,-0.00000003,-0.00000043,-0.00000149,-0.00000087,-
 0.00000090,0.00000089,-0.00000134,-0.00000091,0.00000068,0.00000231,0.
 00000136,0.00000038,-0.00000176,-0.00000143,0.00001568,-0.00000309,0.0
 0000440,-0.00000346,-0.00000684,-0.00000353,0.00003019,0.00002767,0.00
 002725,-0.00009549,-0.00008653,-0.00007263,-0.00000500,0.00000158,-0.0
 0000619,0.00063195,-0.00068411,0.00022891,0.18686560,0.00001172,-0.000
 00519,-0.00000139,-0.00000002,0.00000970,0.00000663,-0.00000438,0.0000
 0311,0.00000152,-0.00001567,0.00000202,-0.00000117,0.00000040,-0.00000
 515,-0.00000301,-0.00000961,-0.00000750,-0.00000633,-0.00000539,0.0000
 0300,0.00000129,-0.00000001,-0.00000276,-0.00000158,0.00002912,-0.0000
 0746,0.00000041,0.00000891,0.00001608,0.00001135,-0.00003610,-0.000002
 10,-0.00000508,-0.00002760,-0.00000969,-0.00000924,0.00006082,-0.00000
 880,0.00000389,0.00002582,0.00002751,0.00001469,-0.00007345,-0.0000040
 8,-0.00001738,-0.00006555,-0.00000530,-0.00001026,0.00011811,-0.000015
 82,0.00001226,0.00007587,0.00006188,0.00000044,-0.00013178,-0.00001259
 ,-0.00004153,0.00005272,-0.00015292,-0.00015272,0.00017024,0.00007837,
 0.00003411,-0.00024014,-0.00029041,0.00032014,0.00017924,-0.00043936,-
 0.00011266,0.00082027,-0.00035266,0.00049562,0.00006927,0.00000242,0.0
 0038882,-0.00114622,-0.00009569,-0.00037280,0.00333472,-0.00138620,-0.
 00473378,-0.01882061,-0.01003978,-0.01150376,0.00294030,0.00295049,-0.
 00345350,-0.10356739,-0.14693461,-0.09087238,0.00630130,0.00803872,0.0
 0439034,-0.00008227,0.00028820,0.00006117,0.00000079,-0.00000085,-0.00
 000068,0.00000071,-0.00000066,-0.00000068,-0.00000051,0.00000141,0.000
 00051,-0.00000100,0.00000173,0.00000039,-0.00000149,0.00000025,-0.0000
 0034,-0.00000116,-0.00000081,-0.00000096,0.00000078,0.00000021,-0.0000
 0041,-0.00000140,0.00000225,0.00000018,0.00000099,0.00000206,0.0000003
 1,-0.00000548,-0.00000326,0.00001044,0.00000052,0.00000124,0.00000693,
 -0.00008873,-0.00007868,-0.00005466,0.00002475,0.00001878,0.00002300,0
 .00004223,-0.00000687,-0.00002057,-0.00001369,-0.00034346,0.00188424,0
 .11080455,0.14950232,0.00000531,-0.00000281,-0.00000085,-0.00000201,0.
 00000511,0.00000270,-0.00000199,0.00000362,0.00000169,-0.00000815,0.00
 000386,0.00000068,0.00000229,-0.00000388,-0.00000265,-0.00000255,-0.00
 000543,-0.00000458,-0.00000463,0.00000108,-0.00000052,-0.00000161,-0.0
 0000092,-0.00000127,0.00001438,-0.00000432,-0.00000054,0.00000110,0.00
 000683,0.00000606,-0.00001779,0.00000496,-0.00000402,-0.00001035,-0.00
 000449,-0.00000797,0.00003050,-0.00000824,0.00000168,0.00000728,0.0000
 0486,0.00001680,-0.00003785,0.00000153,-0.00000332,-0.00003025,0.00000
 231,-0.00001131,0.00006077,-0.00001255,-0.00000003,0.00001985,-0.00002
 213,0.00007053,-0.00006134,-0.00001621,-0.00000698,0.00001278,-0.00010
 696,0.00002348,0.00006662,-0.00001099,0.00007727,0.00003002,0.00035427
 ,-0.00059889,0.00016172,-0.00012228,-0.00027301,0.00060194,0.00044966,
 -0.00047576,0.00004183,0.00036544,-0.00031705,-0.00071622,-0.00014709,
 -0.00006599,0.00108627,-0.00481553,0.00366978,-0.01100135,-0.00686969,
 -0.00423331,-0.00050383,-0.00337536,0.00663587,-0.09375824,-0.09080983
 ,-0.11433383,0.00102159,-0.00028188,0.00309742,-0.00007596,-0.00012779
 ,0.00007551,0.00000061,-0.00000104,-0.00000019,0.00000054,-0.00000105,
 -0.00000004,-0.00000053,0.00000090,0.00000101,-0.00000095,0.00000093,0
 .00000131,-0.00000140,-0.00000008,0.00000006,-0.00000109,-0.00000091,-
 0.00000047,0.00000049,-0.00000079,0.00000061,-0.00000109,0.00000084,0.
 00000197,0.00000039,-0.00000018,0.00000181,0.00000282,0.00001087,-0.00
 001282,0.00000135,0.00000562,-0.00000513,-0.00004979,-0.00003392,-0.00
 005131,0.00000102,0.00000317,-0.00000703,0.00002072,-0.00002782,0.0000
 2086,0.00067266,0.00176478,-0.00190600,0.10197716,0.10139035,0.1114264
 3,0.00001230,-0.00000507,-0.00000120,0.00001064,0.00000977,0.00000841,
 -0.00000464,-0.00000500,-0.00000406,-0.00001266,-0.00000953,-0.0000083
 9,-0.00000915,0.00000215,-0.00000007,-0.00001966,0.00000005,-0.0000032
 3,0.00000504,0.00000590,0.00000491,0.00000699,-0.00000459,-0.00000170,
 0.00002592,-0.00000449,0.00000157,0.00002525,0.00002006,0.00001766,-0.
 00003004,-0.00001716,-0.00001665,-0.00004243,-0.00000720,-0.00001178,0
 .00004858,0.00000427,0.00001056,0.00004785,0.00003836,0.00003456,-0.00
 006010,-0.00003069,-0.00002950,-0.00008442,-0.00002437,-0.00003198,0.0
 0010418,0.00002331,0.00002434,0.00008492,0.00011197,0.00008819,-0.0000
 4539,-0.00010777,-0.00007887,0.00017577,-0.00026435,-0.00015379,-0.000
 15432,0.00000914,-0.00006460,0.00054316,-0.00084145,-0.00045859,-0.000
 11800,0.00001429,-0.00002866,-0.00246571,-0.00164270,-0.00253539,0.000
 11452,0.00045517,0.00035636,0.00013847,0.00004159,0.00024960,-0.000979
 72,-0.00055514,-0.00034758,-0.00531219,0.00119917,-0.00163951,0.009900
 45,-0.01678336,-0.00984848,-0.00463694,0.02623555,0.01595405,-0.089137
 78,0.07586815,0.04070425,0.00113093,-0.00160560,-0.00029374,-0.0000006
 7,0.00000086,0.00000036,-0.00000070,0.00000084,0.00000031,0.00000028,-
 0.00000097,-0.00000074,0.00000026,-0.00000112,-0.00000096,0.00000123,0
 .00000005,0.00000016,0.00000107,0.00000071,0.00000058,-0.00000069,0.00
 000065,0.00000024,-0.00000087,-0.00000114,-0.00000142,-0.00000075,0.00
 000096,0.00000152,-0.00001100,0.00000138,-0.00000213,-0.00002253,-0.00
 003373,-0.00000052,0.00001931,0.00001621,-0.00000756,0.00000568,0.0000
 2834,-0.00001571,0.00002403,-0.00006282,-0.00004466,-0.00041230,0.0012
 5126,0.00073205,0.00075849,-0.00073959,0.00047081,0.09077651,-0.000004
 35,-0.00000350,-0.00000321,-0.00000161,0.00000080,0.00000039,0.0000003
 8,0.00000625,0.00000451,-0.00000142,0.00000673,0.00000484,0.00000461,-
 0.00000496,-0.00000197,0.00000562,-0.00000941,-0.00000433,-0.00000256,
 -0.00000282,-0.00000191,-0.00000661,-0.00000235,-0.00000241,-0.0000064
 8,-0.00000362,-0.00000383,-0.00000322,0.00000467,0.00000208,-0.0000014
 0,0.00000688,0.00000454,0.00000784,-0.00001775,-0.00000833,-0.00000968
 ,-0.00000365,-0.00000757,-0.00000847,0.00001453,0.00001049,-0.00000143
 ,0.00000203,0.00000674,0.00000525,-0.00004356,-0.00003090,-0.00001026,
 0.00002068,-0.00002401,-0.00005676,0.00007988,0.00003881,0.00007486,-0
 .00006754,-0.00002930,-0.00001319,0.00015873,0.00006504,-0.00023963,0.
 00000397,-0.00020034,0.00086676,-0.00048668,-0.00016184,-0.00005553,0.
 00002035,-0.00005993,-0.00259977,0.00117929,-0.00342981,-0.00030496,-0
 .00004680,0.00004351,-0.00002585,-0.00029232,0.00053519,-0.00058529,-0
 .00003950,0.00059178,0.00190783,0.00365786,-0.00276136,0.00807911,-0.0
 1139650,-0.00797555,0.00000129,-0.00226492,-0.00367054,0.07604702,-0.2
 3807881,-0.12036362,0.00113193,-0.00022346,0.00216178,0.00000057,-0.00
 000112,-0.00000097,0.00000052,-0.00000155,-0.00000138,-0.00000045,0.00
 000173,0.00000051,-0.00000071,0.00000204,0.00000024,-0.00000188,0.0000
 0015,-0.00000058,-0.00000112,-0.00000053,-0.00000083,0.00000061,-0.000
 00210,-0.00000151,-0.00000049,0.00000244,-0.00000036,0.00000133,-0.000
 00437,0.00000115,-0.00000250,0.00000238,-0.00000291,-0.00002975,-0.000
 07042,0.00004401,0.00001477,0.00002026,-0.00006470,-0.00002355,0.00003
 529,-0.00011264,0.00002101,0.00000249,-0.00002196,-0.00001814,-0.00021
 618,-0.00023052,-0.00014100,-0.00083329,0.00248859,-0.08311993,0.24860
 239,-0.00000072,-0.00000334,-0.00000216,0.00000087,0.00000242,0.000001
 53,-0.00000049,0.00000355,0.00000181,-0.00000302,0.00000340,0.00000074
 ,0.00000156,-0.00000240,-0.00000206,0.00000045,-0.00000532,-0.00000479
 ,-0.00000068,-0.00000041,-0.00000101,-0.00000304,-0.00000205,-0.000002
 39,0.00000025,-0.00000348,-0.00000183,0.00000225,0.00000623,0.00000519
 ,-0.00000621,0.00000174,-0.00000032,-0.00000182,-0.00001101,-0.0000106
 7,0.00000133,-0.00000508,0.00000205,0.00000356,0.00001884,0.00000950,-
 0.00001013,0.00000153,-0.00000933,-0.00001237,-0.00003618,-0.00002161,
 0.00000211,-0.00001803,0.00004264,-0.00002350,0.00006888,0.00004736,0.
 00004202,-0.00006184,-0.00003656,0.00001244,0.00002029,0.00007257,-0.0
 0022926,-0.00015600,0.00009802,0.00067206,-0.00046622,-0.00019765,-0.0
 0007487,-0.00004749,0.00005117,-0.00316888,-0.00325925,0.00293938,-0.0
 0014677,0.00017894,-0.00010236,0.00020497,0.00054720,-0.00070916,-0.00
 036752,0.00059717,-0.00076139,-0.00117045,-0.00288764,0.00622359,0.006
 60757,-0.01240570,-0.00420556,-0.00141004,0.00100399,0.00369431,0.0408
 2270,-0.12039545,-0.10817043,0.00151821,0.00167402,-0.00180631,0.00000
 017,-0.00000092,-0.00000007,0.00000010,-0.00000132,-0.00000018,-0.0000
 0040,0.00000042,0.00000104,-0.00000069,0.00000017,0.00000147,-0.000001
 12,-0.00000024,0.00000017,-0.00000063,-0.00000050,-0.00000002,0.000000
 22,-0.00000150,-0.00000061,-0.00000099,-0.00000047,0.00000236,0.000001
 77,0.00000109,-0.00000471,-0.00000470,-0.00000221,0.00000379,0.0000021
 2,0.00004330,-0.00011588,-0.00000852,-0.00006444,0.00007781,-0.0000500
 6,-0.00010340,0.00012178,0.00001082,-0.00003690,0.00001883,-0.00010814
 ,-0.00000434,0.00010507,0.00086702,0.00238193,-0.00290006,-0.04326706,
 0.13329370,0.10535627,0.00001177,-0.00000599,-0.00000175,0.00000284,0.
 00001266,0.00000882,-0.00000494,0.00000081,-0.00000019,-0.00001619,-0.
 00000070,-0.00000343,-0.00000312,-0.00000394,-0.00000304,-0.00001347,-
 0.00001091,-0.00000854,-0.00000104,0.00000455,0.00000303,0.00000202,-0
 .00000460,-0.00000256,0.00002980,-0.00000670,0.00000064,0.00000971,0.0
 0002580,0.00001928,-0.00003804,-0.00000365,-0.00000808,-0.00003523,-0.
 00002767,-0.00002536,0.00006885,0.00000531,0.00000698,0.00001591,0.000
 04896,0.00004514,0.00001154,-0.00008306,-0.00005078,-0.00003779,0.0000
 4406,-0.00002835,-0.00017170,-0.00015096,-0.00005317,0.00084877,-0.000
 64199,-0.00027972,-0.00008023,-0.00000487,-0.00003717,-0.00221886,-0.0
 0158928,-0.00316952,0.00004672,0.00000382,0.00017402,-0.00083173,-0.00
 055888,-0.00032354,0.00001241,-0.00001980,-0.00001739,-0.00533375,0.00
 036850,-0.00155930,0.01037712,-0.01826993,-0.01082861,-0.00049835,-0.0
 0005313,-0.00014182,0.00011577,0.00136939,0.00091558,0.00005510,0.0000
 8617,0.00007773,-0.00539508,0.02534780,0.01531341,0.00016019,-0.000357
 31,-0.00017843,0.00133687,0.00103599,0.00136657,-0.09037330,0.07825708
 ,0.04213234,0.00000007,-0.00000002,-0.00000013,0.00000025,0.00000023,-
 0.00000007,-0.00000096,0.00000086,0.00000012,-0.00000262,0.00000145,-0
 .00000005,-0.00000060,-0.00000004,-0.00000027,-0.00000019,0.00000002,-
 0.00000014,0.00000098,0.00000135,0.00000003,-0.00000543,0.00000319,-0.
 00000017,-0.00001969,-0.00002682,-0.00000903,-0.00002645,-0.00000135,0
 .00000437,0.00001410,0.00001565,-0.00001218,0.00001688,0.00001085,0.00
 000844,0.00082846,-0.00046469,0.00080004,-0.00005436,0.00013435,0.0000
 8295,-0.00000924,-0.00006062,-0.00005006,-0.00002041,0.00000508,-0.000
 02386,-0.00039915,-0.00089335,-0.00070249,0.09162580,-0.00000051,-0.00
 000781,-0.00000484,-0.00000165,0.00000739,0.00000434,-0.00000184,0.000
 00894,0.00000616,-0.00000975,0.00000981,0.00000445,0.00000504,-0.00000
 867,-0.00000438,0.00000120,-0.00001993,-0.00000894,-0.00000429,-0.0000
 0172,-0.00000113,-0.00000810,-0.00000530,-0.00000448,0.00000573,-0.000
 00816,-0.00000527,-0.00000272,0.00001845,0.00001349,-0.00001903,0.0000
 0541,0.00000432,-0.00000620,-0.00003754,-0.00002881,0.00002229,0.00000
 974,-0.00002230,-0.00000256,0.00002628,0.00005371,0.00005255,-0.000080
 58,-0.00003601,0.00001008,0.00004887,-0.00015453,-0.00029740,-0.000204
 97,0.00009865,0.00072741,-0.00046868,-0.00020298,-0.00004876,0.0000441
 7,-0.00005246,-0.00234039,0.00258910,-0.00510089,-0.00001776,-0.000238
 19,0.00044531,-0.00035141,0.00001089,0.00066740,-0.00000887,-0.0000170
 1,-0.00003698,0.00151078,0.00232405,-0.00136059,0.00812482,-0.01092126
 ,-0.00795334,0.00013624,0.00007375,0.00000678,-0.00041157,-0.00033000,
 -0.00033412,0.00001660,0.00024079,0.00020272,0.00042472,-0.00318824,-0
 .00390250,0.00033697,-0.00011028,0.00009675,-0.00156503,-0.00001073,0.
 00135841,0.07744109,-0.23721683,-0.11930160,0.00000081,-0.00000156,-0.
 00000137,0.00000086,-0.00000188,-0.00000206,-0.00000116,0.00000287,0.0
 0000068,-0.00000238,0.00000384,0.00000010,-0.00000283,0.00000015,-0.00
 000092,-0.00000163,-0.00000068,-0.00000119,0.00000146,-0.00000127,-0.0
 0000443,-0.00000324,0.00000621,-0.00000135,-0.00002217,-0.00004441,0.0
 0001210,-0.00000389,-0.00002527,0.00001966,0.00001737,0.00002426,-0.00
 007391,0.00000760,-0.00000992,-0.00001171,-0.00079141,-0.00102755,0.00
 274490,0.00002259,-0.00004057,-0.00000903,0.00002299,0.00002950,-0.000
 00717,0.00005343,0.00003419,-0.00005546,0.00052762,0.00028591,0.000134
 36,-0.08354368,0.24822443,0.00000187,-0.00000581,-0.00000415,-0.000000
 66,0.00000688,0.00000483,-0.00000194,0.00000663,0.00000319,-0.00000942
 ,0.00000607,0.00000279,0.00000290,-0.00000599,-0.00000413,-0.00000052,
 -0.00001110,-0.00001353,-0.00000282,0.00000044,-0.00000137,-0.00000488
 ,-0.00000386,-0.00000413,0.00000886,-0.00000748,-0.00000203,0.00000039
 ,0.00001856,0.00000969,-0.00001825,0.00000706,-0.00000482,-0.00001114,
 -0.00003264,-0.00001926,0.00001820,-0.00002533,0.00003592,0.00001103,0
 .00006288,-0.00001198,0.00003899,-0.00006017,-0.00004490,-0.00005086,-
 0.00014848,0.00017773,-0.00015009,0.00012474,-0.00037826,0.00062662,-0
 .00044700,-0.00015039,-0.00006620,-0.00004463,0.00006896,-0.00366672,-
 0.00496689,0.00572461,0.00015975,0.00044912,-0.00059001,-0.00018613,0.
 00063045,-0.00070791,-0.00001016,-0.00003893,0.00000890,-0.00080329,-0
 .00156413,0.00360792,0.00664191,-0.01265659,-0.00391191,-0.00001647,-0
 .00002696,0.00007940,-0.00026317,-0.00001678,0.00000600,0.00003167,0.0
 0021509,0.00008698,-0.00118323,0.00053839,0.00296759,0.00028107,-0.000
 02694,-0.00013346,-0.00035496,0.00182187,-0.00134170,0.04159247,-0.119
 15623,-0.10758500,0.00000042,-0.00000152,-0.00000020,0.00000035,-0.000
 00217,0.00000009,-0.00000121,0.00000104,0.00000200,-0.00000258,0.00000
 078,0.00000311,-0.00000212,-0.00000043,0.00000013,-0.00000123,-0.00000
 089,-0.00000014,0.00000011,-0.00000445,0.00000289,-0.00000443,-0.00000
 020,0.00000645,-0.00000595,0.00001127,-0.00006225,0.00000270,0.0000201
 1,-0.00004223,-0.00001104,-0.00007421,0.00008951,0.00000629,-0.0000111
 3,0.00000357,0.00058374,0.00280312,-0.00342824,0.00000898,0.00001088,-
 0.00001204,0.00000528,-0.00002207,0.00003286,0.00000814,-0.00006407,0.
 00009140,0.00023803,-0.00011881,0.00018869,-0.04344029,0.13281046,0.10
 524888\\-0.00000041,-0.00000081,-0.00000066,-0.00000110,0.00000153,0.0
 0000087,-0.00000031,0.00000124,0.00000078,-0.00000089,-0.00000037,-0.0
 0000039,0.00000042,0.00000013,0.00000015,-0.00000136,0.00000072,0.0000
 0027,-0.00000018,0.00000044,0.00000025,-0.00000058,0.00000094,0.000000
 51,0.00000075,-0.00000006,0.00000008,0.00000096,0.00000115,0.00000091,
 -0.00000130,-0.00000038,-0.00000045,-0.00000191,-0.00000010,-0.0000003
 3,0.00000082,0.00000045,0.00000041,0.00000199,0.00000028,0.00000050,-0
 .00000016,-0.00000079,-0.00000052,-0.00000146,-0.00000009,-0.00000024,
 -0.00000023,0.00000077,0.00000047,0.00000116,0.00000033,0.00000042,0.0
 0000052,-0.00000121,-0.00000071,0.00000243,-0.00000350,-0.00000186,0.0
 0000064,0.00000092,0.00000071,-0.00000295,-0.00000098,-0.00000122,0.00
 000062,-0.00000047,-0.00000021,0.00000525,-0.00000090,0.00000039,-0.00
 000054,0.00000367,0.00000229,0.00000091,-0.00000128,-0.00000069,-0.000
 00544,-0.00000151,-0.00000196,0.00000195,0.00000299,0.00000232,0.00000
 356,0.00000065,0.00000105,0.00000388,-0.00000358,-0.00000167,-0.000004
 42,-0.00000071,-0.00000125,-0.00000311,-0.00000109,-0.00000129,-0.0000
 0010,0.00000051,0.00000032,-0.00000002,0.00000040,0.00000025,0.0000002
 5,0.00000091,0.00000063,0.00000042,0.00000064,0.00000048,0.00000004,0.
 00000070,0.00000047,-0.00000034,0.00000099,0.00000057,-0.00000024,0.00
 000003,-0.00000003,0.00000012,0.00000053,0.00000035,-0.00000067,-0.000
 00004,-0.00000019,-0.00000005,0.00000034,0.00000005,-0.00000100,-0.000
 00031,-0.00000034,-0.00000095,-0.00000066,-0.00000060,0.00000039,-0.00
 000075,-0.00000026,-0.00000005,-0.00000011,-0.00000009,-0.00000013,-0.
 00000076,-0.00000052,0.00000014,-0.00000040,-0.00000025,0.00000123,-0.
 00000037,-0.00000004,0.00000147,-0.00000003,0.00000025\\\@


 THE MORE POWERFUL THE METHOD, THE MORE CATASTROPHIC THE ERRORS.
     -- M.D. KAMEN
 Job cpu time:       4 days 19 hours 57 minutes 58.5 seconds.
 File lengths (MBytes):  RWF=   4673 Int=      0 D2E=      0 Chk=     87 Scr=      1
 Normal termination of Gaussian 09 at Sun Jul 28 05:46:58 2019.
