 Entering Gaussian System, Link 0=g09
 Initial command:
 /home/minenky/programs//g09/l1.exe "/local/scratch/minenky/m1_00_822-35-50_C4H6_wB97XD/Gau-49006.inp" -scrdir="/local/scratch/minenky/m1_00_822-35-50_C4H6_wB97XD/"
 Entering Link 1 = /home/minenky/programs//g09/l1.exe PID=     49007.
  
 Copyright (c) 1988,1990,1992,1993,1995,1998,2003,2009,2013,
            Gaussian, Inc.  All Rights Reserved.
  
 This is part of the Gaussian(R) 09 program.  It is based on
 the Gaussian(R) 03 system (copyright 2003, Gaussian, Inc.),
 the Gaussian(R) 98 system (copyright 1998, Gaussian, Inc.),
 the Gaussian(R) 94 system (copyright 1995, Gaussian, Inc.),
 the Gaussian 92(TM) system (copyright 1992, Gaussian, Inc.),
 the Gaussian 90(TM) system (copyright 1990, Gaussian, Inc.),
 the Gaussian 88(TM) system (copyright 1988, Gaussian, Inc.),
 the Gaussian 86(TM) system (copyright 1986, Carnegie Mellon
 University), and the Gaussian 82(TM) system (copyright 1983,
 Carnegie Mellon University). Gaussian is a federally registered
 trademark of Gaussian, Inc.
  
 This software contains proprietary and confidential information,
 including trade secrets, belonging to Gaussian, Inc.
  
 This software is provided under written license and may be
 used, copied, transmitted, or stored only in accord with that
 written license.
  
 The following legend is applicable only to US Government
 contracts under FAR:
  
                    RESTRICTED RIGHTS LEGEND
  
 Use, reproduction and disclosure by the US Government is
 subject to restrictions as set forth in subparagraphs (a)
 and (c) of the Commercial Computer Software - Restricted
 Rights clause in FAR 52.227-19.
  
 Gaussian, Inc.
 340 Quinnipiac St., Bldg. 40, Wallingford CT 06492
  
  
 ---------------------------------------------------------------
 Warning -- This program may not be used in any manner that
 competes with the business of Gaussian, Inc. or will provide
 assistance to any competitor of Gaussian, Inc.  The licensee
 of this program is prohibited from giving any competitor of
 Gaussian, Inc. access to this program.  By using this program,
 the user acknowledges that Gaussian, Inc. is engaged in the
 business of creating and licensing software in the field of
 computational chemistry and represents and warrants to the
 licensee that it is not a competitor of Gaussian, Inc. and that
 it will not use this program in any manner prohibited above.
 ---------------------------------------------------------------
  

 Cite this work as:
 Gaussian 09, Revision D.01,
 M. J. Frisch, G. W. Trucks, H. B. Schlegel, G. E. Scuseria, 
 M. A. Robb, J. R. Cheeseman, G. Scalmani, V. Barone, B. Mennucci, 
 G. A. Petersson, H. Nakatsuji, M. Caricato, X. Li, H. P. Hratchian, 
 A. F. Izmaylov, J. Bloino, G. Zheng, J. L. Sonnenberg, M. Hada, 
 M. Ehara, K. Toyota, R. Fukuda, J. Hasegawa, M. Ishida, T. Nakajima, 
 Y. Honda, O. Kitao, H. Nakai, T. Vreven, J. A. Montgomery, Jr., 
 J. E. Peralta, F. Ogliaro, M. Bearpark, J. J. Heyd, E. Brothers, 
 K. N. Kudin, V. N. Staroverov, T. Keith, R. Kobayashi, J. Normand, 
 K. Raghavachari, A. Rendell, J. C. Burant, S. S. Iyengar, J. Tomasi, 
 M. Cossi, N. Rega, J. M. Millam, M. Klene, J. E. Knox, J. B. Cross, 
 V. Bakken, C. Adamo, J. Jaramillo, R. Gomperts, R. E. Stratmann, 
 O. Yazyev, A. J. Austin, R. Cammi, C. Pomelli, J. W. Ochterski, 
 R. L. Martin, K. Morokuma, V. G. Zakrzewski, G. A. Voth, 
 P. Salvador, J. J. Dannenberg, S. Dapprich, A. D. Daniels, 
 O. Farkas, J. B. Foresman, J. V. Ortiz, J. Cioslowski, 
 and D. J. Fox, Gaussian, Inc., Wallingford CT, 2013.
 
 ******************************************
 Gaussian 09:  AM64L-G09RevD.01 24-Apr-2013
                 9-Jul-2021 
 ******************************************
 %Mem=32000MB
 %NProcShared=16
 Will use up to   16 processors via shared memory.
 %Chk=m1_00_822-35-50_C4H6_wB97XD
 ----------------------------------------------------------------------
 #P wB97XD/def2tzvp opt=(tight) freq integral(Grid=ultrafine) # SCF(Max
 Cycle=380) 5d 7f GFPrint
 ----------------------------------------------------------------------
 1/7=10,14=-1,18=20,19=15,26=4,38=1/1,3;
 2/9=110,12=2,17=6,18=5,40=1/2;
 3/5=44,7=101,8=11,11=2,16=1,24=100,25=1,30=1,71=1,74=-58,75=-5/1,2,3;
 4//1;
 5/5=2,7=380,38=5/2;
 6/7=2,8=2,9=2,10=2,28=1/1;
 7//1,2,3,16;
 1/7=10,14=-1,18=20,19=15,26=4/3(2);
 2/9=110/2;
 99//99;
 2/9=110/2;
 3/5=44,7=101,8=11,11=2,16=1,25=1,30=1,71=1,74=-58,75=-5/1,2,3;
 4/5=5,16=3,69=1/1;
 5/5=2,7=380,38=5/2;
 7//1,2,3,16;
 1/7=10,14=-1,18=20,19=15,26=4/3(-5);
 2/9=110/2;
 6/7=2,8=2,9=2,10=2,19=2,28=1/1;
 99/9=1/99;
 Leave Link    1 at Fri Jul  9 19:19:35 2021, MaxMem=  4194304000 cpu:         0.8
 (Enter /home/minenky/programs//g09/l101.exe)
 ---------------------------------------
 The PBEPBE optimization and frequencies
 ---------------------------------------
 Symbolic Z-matrix:
 Charge =  0 Multiplicity = 1
 C                     0.        0.66753   0.81238 
 C                     0.       -0.66753   0.81238 
 H                     0.        1.41184   1.5983 
 H                     0.       -1.41184   1.5983 
 C                     0.        0.78472  -0.69849 
 C                     0.       -0.78472  -0.69849 
 H                    -0.88741   1.24244  -1.14083 
 H                     0.88741  -1.24244  -1.14083 
 H                     0.88741   1.24244  -1.14083 
 H                    -0.88741  -1.24244  -1.14083 
 
 NAtoms=     10 NQM=       10 NQMF=       0 NMMI=      0 NMMIF=      0
                NMic=       0 NMicF=      0.
                    Isotopes and Nuclear Properties:
 (Nuclear quadrupole moments (NQMom) in fm**2, nuclear magnetic moments (NMagM)
  in nuclear magnetons)

  Atom         1           2           3           4           5           6           7           8           9          10
 IAtWgt=          12          12           1           1          12          12           1           1           1           1
 AtmWgt=  12.0000000  12.0000000   1.0078250   1.0078250  12.0000000  12.0000000   1.0078250   1.0078250   1.0078250   1.0078250
 NucSpn=           0           0           1           1           0           0           1           1           1           1
 AtZEff=   0.0000000   0.0000000   0.0000000   0.0000000   0.0000000   0.0000000   0.0000000   0.0000000   0.0000000   0.0000000
 NQMom=    0.0000000   0.0000000   0.0000000   0.0000000   0.0000000   0.0000000   0.0000000   0.0000000   0.0000000   0.0000000
 NMagM=    0.0000000   0.0000000   2.7928460   2.7928460   0.0000000   0.0000000   2.7928460   2.7928460   2.7928460   2.7928460
 AtZNuc=   6.0000000   6.0000000   1.0000000   1.0000000   6.0000000   6.0000000   1.0000000   1.0000000   1.0000000   1.0000000
 Leave Link  101 at Fri Jul  9 19:19:36 2021, MaxMem=  4194304000 cpu:         3.1
 (Enter /home/minenky/programs//g09/l103.exe)

 GradGradGradGradGradGradGradGradGradGradGradGradGradGradGradGradGradGrad
 Berny optimization.
 Initialization pass.
                           ----------------------------
                           !    Initial Parameters    !
                           ! (Angstroms and Degrees)  !
 --------------------------                            --------------------------
 ! Name  Definition              Value          Derivative Info.                !
 --------------------------------------------------------------------------------
 ! R1    R(1,2)                  1.3351         estimate D2E/DX2                !
 ! R2    R(1,3)                  1.0824         estimate D2E/DX2                !
 ! R3    R(1,5)                  1.5154         estimate D2E/DX2                !
 ! R4    R(2,4)                  1.0824         estimate D2E/DX2                !
 ! R5    R(2,6)                  1.5154         estimate D2E/DX2                !
 ! R6    R(5,6)                  1.5694         estimate D2E/DX2                !
 ! R7    R(5,7)                  1.0921         estimate D2E/DX2                !
 ! R8    R(5,9)                  1.0921         estimate D2E/DX2                !
 ! R9    R(6,8)                  1.0921         estimate D2E/DX2                !
 ! R10   R(6,10)                 1.0921         estimate D2E/DX2                !
 ! A1    A(2,1,3)              133.4424         estimate D2E/DX2                !
 ! A2    A(2,1,5)               94.4351         estimate D2E/DX2                !
 ! A3    A(3,1,5)              132.1225         estimate D2E/DX2                !
 ! A4    A(1,2,4)              133.4424         estimate D2E/DX2                !
 ! A5    A(1,2,6)               94.4351         estimate D2E/DX2                !
 ! A6    A(4,2,6)              132.1225         estimate D2E/DX2                !
 ! A7    A(1,5,6)               85.5649         estimate D2E/DX2                !
 ! A8    A(1,5,7)              115.8643         estimate D2E/DX2                !
 ! A9    A(1,5,9)              115.8643         estimate D2E/DX2                !
 ! A10   A(6,5,7)              114.7793         estimate D2E/DX2                !
 ! A11   A(6,5,9)              114.7793         estimate D2E/DX2                !
 ! A12   A(7,5,9)              108.6962         estimate D2E/DX2                !
 ! A13   A(2,6,5)               85.5649         estimate D2E/DX2                !
 ! A14   A(2,6,8)              115.8643         estimate D2E/DX2                !
 ! A15   A(2,6,10)             115.8643         estimate D2E/DX2                !
 ! A16   A(5,6,8)              114.7793         estimate D2E/DX2                !
 ! A17   A(5,6,10)             114.7793         estimate D2E/DX2                !
 ! A18   A(8,6,10)             108.6962         estimate D2E/DX2                !
 ! D1    D(3,1,2,4)              0.0            estimate D2E/DX2                !
 ! D2    D(3,1,2,6)            180.0            estimate D2E/DX2                !
 ! D3    D(5,1,2,4)            180.0            estimate D2E/DX2                !
 ! D4    D(5,1,2,6)              0.0            estimate D2E/DX2                !
 ! D5    D(2,1,5,6)              0.0            estimate D2E/DX2                !
 ! D6    D(2,1,5,7)            115.4408         estimate D2E/DX2                !
 ! D7    D(2,1,5,9)           -115.4408         estimate D2E/DX2                !
 ! D8    D(3,1,5,6)            180.0            estimate D2E/DX2                !
 ! D9    D(3,1,5,7)            -64.5592         estimate D2E/DX2                !
 ! D10   D(3,1,5,9)             64.5592         estimate D2E/DX2                !
 ! D11   D(1,2,6,5)              0.0            estimate D2E/DX2                !
 ! D12   D(1,2,6,8)            115.4408         estimate D2E/DX2                !
 ! D13   D(1,2,6,10)          -115.4408         estimate D2E/DX2                !
 ! D14   D(4,2,6,5)            180.0            estimate D2E/DX2                !
 ! D15   D(4,2,6,8)            -64.5592         estimate D2E/DX2                !
 ! D16   D(4,2,6,10)            64.5592         estimate D2E/DX2                !
 ! D17   D(1,5,6,2)              0.0            estimate D2E/DX2                !
 ! D18   D(1,5,6,8)           -116.4948         estimate D2E/DX2                !
 ! D19   D(1,5,6,10)           116.4948         estimate D2E/DX2                !
 ! D20   D(7,5,6,2)           -116.4948         estimate D2E/DX2                !
 ! D21   D(7,5,6,8)            127.0103         estimate D2E/DX2                !
 ! D22   D(7,5,6,10)             0.0            estimate D2E/DX2                !
 ! D23   D(9,5,6,2)            116.4948         estimate D2E/DX2                !
 ! D24   D(9,5,6,8)              0.0            estimate D2E/DX2                !
 ! D25   D(9,5,6,10)          -127.0103         estimate D2E/DX2                !
 --------------------------------------------------------------------------------
 Trust Radius=3.00D-01 FncErr=1.00D-07 GrdErr=1.00D-06
 Number of steps in this run=     63 maximum allowed number of steps=    100.
 GradGradGradGradGradGradGradGradGradGradGradGradGradGradGradGradGradGrad

 Leave Link  103 at Fri Jul  9 19:19:36 2021, MaxMem=  4194304000 cpu:         0.0
 (Enter /home/minenky/programs//g09/l202.exe)
                          Input orientation:                          
 ---------------------------------------------------------------------
 Center     Atomic      Atomic             Coordinates (Angstroms)
 Number     Number       Type             X           Y           Z
 ---------------------------------------------------------------------
      1          6           0        0.000000    0.667529    0.812381
      2          6           0        0.000000   -0.667529    0.812381
      3          1           0        0.000000    1.411836    1.598299
      4          1           0        0.000000   -1.411836    1.598299
      5          6           0        0.000000    0.784715   -0.698487
      6          6           0        0.000000   -0.784715   -0.698487
      7          1           0       -0.887405    1.242437   -1.140831
      8          1           0        0.887405   -1.242437   -1.140831
      9          1           0        0.887405    1.242437   -1.140831
     10          1           0       -0.887405   -1.242437   -1.140831
 ---------------------------------------------------------------------
                    Distance matrix (angstroms):
                    1          2          3          4          5
     1  C    0.000000
     2  C    1.335058   0.000000
     3  H    1.082432   2.222932   0.000000
     4  H    2.222932   1.082432   2.823672   0.000000
     5  C    1.515406   2.095647   2.380863   3.178060   0.000000
     6  C    2.095647   1.515406   3.178060   2.380863   1.569430
     7  H    2.221046   2.872367   2.884271   3.916055   1.092092
     8  H    2.872367   2.221046   3.916055   2.884271   2.256657
     9  H    2.221046   2.872367   2.884271   3.916055   1.092092
    10  H    2.872367   2.221046   3.916055   2.884271   2.256657
                    6          7          8          9         10
     6  C    0.000000
     7  H    2.256657   0.000000
     8  H    1.092092   3.053613   0.000000
     9  H    2.256657   1.774810   2.484874   0.000000
    10  H    1.092092   2.484874   1.774810   3.053613   0.000000
 Stoichiometry    C4H6
 Framework group  C2V[SGV(C4H2),X(H4)]
 Deg. of freedom     8
 Full point group                 C2V     NOp   4
 Largest Abelian subgroup         C2V     NOp   4
 Largest concise Abelian subgroup C2V     NOp   4
                         Standard orientation:                         
 ---------------------------------------------------------------------
 Center     Atomic      Atomic             Coordinates (Angstroms)
 Number     Number       Type             X           Y           Z
 ---------------------------------------------------------------------
      1          6           0        0.000000    0.667529    0.812381
      2          6           0        0.000000   -0.667529    0.812381
      3          1           0        0.000000    1.411836    1.598299
      4          1           0        0.000000   -1.411836    1.598299
      5          6           0        0.000000    0.784715   -0.698487
      6          6           0        0.000000   -0.784715   -0.698487
      7          1           0       -0.887405    1.242437   -1.140831
      8          1           0        0.887405   -1.242437   -1.140831
      9          1           0        0.887405    1.242437   -1.140831
     10          1           0       -0.887405   -1.242437   -1.140831
 ---------------------------------------------------------------------
 Rotational constants (GHZ):     12.9956859     12.3008992      6.8643488
 Leave Link  202 at Fri Jul  9 19:19:36 2021, MaxMem=  4194304000 cpu:         0.0
 (Enter /home/minenky/programs//g09/l301.exe)
 Standard basis: def2TZVP (5D, 7F)
 ======================================================================================================
                                       Pseudopotential Parameters
 ======================================================================================================
  Center     Atomic      Valence      Angular      Power
  Number     Number     Electrons     Momentum     of R      Exponent        Coefficient   SO-Coeffient
 ======================================================================================================
    1          6
                                   No pseudopotential on this center.
    2          6
                                   No pseudopotential on this center.
    3          1
                                   No pseudopotential on this center.
    4          1
                                   No pseudopotential on this center.
    5          6
                                   No pseudopotential on this center.
    6          6
                                   No pseudopotential on this center.
    7          1
                                   No pseudopotential on this center.
    8          1
                                   No pseudopotential on this center.
    9          1
                                   No pseudopotential on this center.
   10          1
                                   No pseudopotential on this center.
 ======================================================================================================
 Ernie: Thresh=  0.10000D-02 Tol=  0.10000D-05 Strict=F.
 AO basis set (Overlap normalization):
 Atom C1       Shell     1 S   6     bf    1 -     1          0.000000000000          1.261446995759          1.535177479578
      0.1357534968D+05  0.6064550360D-03
      0.2035233368D+04  0.4697908888D-02
      0.4632256236D+03  0.2433247765D-01
      0.1312001960D+03  0.9739996831D-01
      0.4285301589D+02  0.3019558425D+00
      0.1558418577D+02  0.6623360914D+00
 Atom C1       Shell     2 S   2     bf    2 -     2          0.000000000000          1.261446995759          1.535177479578
      0.6206713851D+01  0.6559530854D+00
      0.2576489653D+01  0.3758563329D+00
 Atom C1       Shell     3 S   1     bf    3 -     3          0.000000000000          1.261446995759          1.535177479578
      0.5769633942D+00  0.1000000000D+01
 Atom C1       Shell     4 S   1     bf    4 -     4          0.000000000000          1.261446995759          1.535177479578
      0.2297283136D+00  0.1000000000D+01
 Atom C1       Shell     5 S   1     bf    5 -     5          0.000000000000          1.261446995759          1.535177479578
      0.9516444003D-01  0.1000000000D+01
 Atom C1       Shell     6 P   4     bf    6 -     8          0.000000000000          1.261446995759          1.535177479578
      0.3469723224D+02  0.1132722000D-01
      0.7958262283D+01  0.7616965920D-01
      0.2378082688D+01  0.3019225220D+00
      0.8143320818D+00  0.7278502735D+00
 Atom C1       Shell     7 P   1     bf    9 -    11          0.000000000000          1.261446995759          1.535177479578
      0.2888754725D+00  0.1000000000D+01
 Atom C1       Shell     8 P   1     bf   12 -    14          0.000000000000          1.261446995759          1.535177479578
      0.1005682367D+00  0.1000000000D+01
 Atom C1       Shell     9 D   1     bf   15 -    19          0.000000000000          1.261446995759          1.535177479578
      0.1097000000D+01  0.1000000000D+01
 Atom C1       Shell    10 D   1     bf   20 -    24          0.000000000000          1.261446995759          1.535177479578
      0.3180000000D+00  0.1000000000D+01
 Atom C1       Shell    11 F   1     bf   25 -    31          0.000000000000          1.261446995759          1.535177479578
      0.7610000000D+00  0.1000000000D+01
 Atom C2       Shell    12 S   6     bf   32 -    32          0.000000000000         -1.261446995759          1.535177479578
      0.1357534968D+05  0.6064550360D-03
      0.2035233368D+04  0.4697908888D-02
      0.4632256236D+03  0.2433247765D-01
      0.1312001960D+03  0.9739996831D-01
      0.4285301589D+02  0.3019558425D+00
      0.1558418577D+02  0.6623360914D+00
 Atom C2       Shell    13 S   2     bf   33 -    33          0.000000000000         -1.261446995759          1.535177479578
      0.6206713851D+01  0.6559530854D+00
      0.2576489653D+01  0.3758563329D+00
 Atom C2       Shell    14 S   1     bf   34 -    34          0.000000000000         -1.261446995759          1.535177479578
      0.5769633942D+00  0.1000000000D+01
 Atom C2       Shell    15 S   1     bf   35 -    35          0.000000000000         -1.261446995759          1.535177479578
      0.2297283136D+00  0.1000000000D+01
 Atom C2       Shell    16 S   1     bf   36 -    36          0.000000000000         -1.261446995759          1.535177479578
      0.9516444003D-01  0.1000000000D+01
 Atom C2       Shell    17 P   4     bf   37 -    39          0.000000000000         -1.261446995759          1.535177479578
      0.3469723224D+02  0.1132722000D-01
      0.7958262283D+01  0.7616965920D-01
      0.2378082688D+01  0.3019225220D+00
      0.8143320818D+00  0.7278502735D+00
 Atom C2       Shell    18 P   1     bf   40 -    42          0.000000000000         -1.261446995759          1.535177479578
      0.2888754725D+00  0.1000000000D+01
 Atom C2       Shell    19 P   1     bf   43 -    45          0.000000000000         -1.261446995759          1.535177479578
      0.1005682367D+00  0.1000000000D+01
 Atom C2       Shell    20 D   1     bf   46 -    50          0.000000000000         -1.261446995759          1.535177479578
      0.1097000000D+01  0.1000000000D+01
 Atom C2       Shell    21 D   1     bf   51 -    55          0.000000000000         -1.261446995759          1.535177479578
      0.3180000000D+00  0.1000000000D+01
 Atom C2       Shell    22 F   1     bf   56 -    62          0.000000000000         -1.261446995759          1.535177479578
      0.7610000000D+00  0.1000000000D+01
 Atom H3       Shell    23 S   3     bf   63 -    63          0.000000000000          2.667983384549          3.020347262483
      0.3406134100D+02  0.2543930721D-01
      0.5123574600D+01  0.1900859489D+00
      0.1164662600D+01  0.8524411301D+00
 Atom H3       Shell    24 S   1     bf   64 -    64          0.000000000000          2.667983384549          3.020347262483
      0.3272304100D+00  0.1000000000D+01
 Atom H3       Shell    25 S   1     bf   65 -    65          0.000000000000          2.667983384549          3.020347262483
      0.1030724100D+00  0.1000000000D+01
 Atom H3       Shell    26 P   1     bf   66 -    68          0.000000000000          2.667983384549          3.020347262483
      0.8000000000D+00  0.1000000000D+01
 Atom H4       Shell    27 S   3     bf   69 -    69          0.000000000000         -2.667983384549          3.020347262483
      0.3406134100D+02  0.2543930721D-01
      0.5123574600D+01  0.1900859489D+00
      0.1164662600D+01  0.8524411301D+00
 Atom H4       Shell    28 S   1     bf   70 -    70          0.000000000000         -2.667983384549          3.020347262483
      0.3272304100D+00  0.1000000000D+01
 Atom H4       Shell    29 S   1     bf   71 -    71          0.000000000000         -2.667983384549          3.020347262483
      0.1030724100D+00  0.1000000000D+01
 Atom H4       Shell    30 P   1     bf   72 -    74          0.000000000000         -2.667983384549          3.020347262483
      0.8000000000D+00  0.1000000000D+01
 Atom C5       Shell    31 S   6     bf   75 -    75          0.000000000000          1.482896442367         -1.319949263363
      0.1357534968D+05  0.6064550360D-03
      0.2035233368D+04  0.4697908888D-02
      0.4632256236D+03  0.2433247765D-01
      0.1312001960D+03  0.9739996831D-01
      0.4285301589D+02  0.3019558425D+00
      0.1558418577D+02  0.6623360914D+00
 Atom C5       Shell    32 S   2     bf   76 -    76          0.000000000000          1.482896442367         -1.319949263363
      0.6206713851D+01  0.6559530854D+00
      0.2576489653D+01  0.3758563329D+00
 Atom C5       Shell    33 S   1     bf   77 -    77          0.000000000000          1.482896442367         -1.319949263363
      0.5769633942D+00  0.1000000000D+01
 Atom C5       Shell    34 S   1     bf   78 -    78          0.000000000000          1.482896442367         -1.319949263363
      0.2297283136D+00  0.1000000000D+01
 Atom C5       Shell    35 S   1     bf   79 -    79          0.000000000000          1.482896442367         -1.319949263363
      0.9516444003D-01  0.1000000000D+01
 Atom C5       Shell    36 P   4     bf   80 -    82          0.000000000000          1.482896442367         -1.319949263363
      0.3469723224D+02  0.1132722000D-01
      0.7958262283D+01  0.7616965920D-01
      0.2378082688D+01  0.3019225220D+00
      0.8143320818D+00  0.7278502735D+00
 Atom C5       Shell    37 P   1     bf   83 -    85          0.000000000000          1.482896442367         -1.319949263363
      0.2888754725D+00  0.1000000000D+01
 Atom C5       Shell    38 P   1     bf   86 -    88          0.000000000000          1.482896442367         -1.319949263363
      0.1005682367D+00  0.1000000000D+01
 Atom C5       Shell    39 D   1     bf   89 -    93          0.000000000000          1.482896442367         -1.319949263363
      0.1097000000D+01  0.1000000000D+01
 Atom C5       Shell    40 D   1     bf   94 -    98          0.000000000000          1.482896442367         -1.319949263363
      0.3180000000D+00  0.1000000000D+01
 Atom C5       Shell    41 F   1     bf   99 -   105          0.000000000000          1.482896442367         -1.319949263363
      0.7610000000D+00  0.1000000000D+01
 Atom C6       Shell    42 S   6     bf  106 -   106          0.000000000000         -1.482896442367         -1.319949263363
      0.1357534968D+05  0.6064550360D-03
      0.2035233368D+04  0.4697908888D-02
      0.4632256236D+03  0.2433247765D-01
      0.1312001960D+03  0.9739996831D-01
      0.4285301589D+02  0.3019558425D+00
      0.1558418577D+02  0.6623360914D+00
 Atom C6       Shell    43 S   2     bf  107 -   107          0.000000000000         -1.482896442367         -1.319949263363
      0.6206713851D+01  0.6559530854D+00
      0.2576489653D+01  0.3758563329D+00
 Atom C6       Shell    44 S   1     bf  108 -   108          0.000000000000         -1.482896442367         -1.319949263363
      0.5769633942D+00  0.1000000000D+01
 Atom C6       Shell    45 S   1     bf  109 -   109          0.000000000000         -1.482896442367         -1.319949263363
      0.2297283136D+00  0.1000000000D+01
 Atom C6       Shell    46 S   1     bf  110 -   110          0.000000000000         -1.482896442367         -1.319949263363
      0.9516444003D-01  0.1000000000D+01
 Atom C6       Shell    47 P   4     bf  111 -   113          0.000000000000         -1.482896442367         -1.319949263363
      0.3469723224D+02  0.1132722000D-01
      0.7958262283D+01  0.7616965920D-01
      0.2378082688D+01  0.3019225220D+00
      0.8143320818D+00  0.7278502735D+00
 Atom C6       Shell    48 P   1     bf  114 -   116          0.000000000000         -1.482896442367         -1.319949263363
      0.2888754725D+00  0.1000000000D+01
 Atom C6       Shell    49 P   1     bf  117 -   119          0.000000000000         -1.482896442367         -1.319949263363
      0.1005682367D+00  0.1000000000D+01
 Atom C6       Shell    50 D   1     bf  120 -   124          0.000000000000         -1.482896442367         -1.319949263363
      0.1097000000D+01  0.1000000000D+01
 Atom C6       Shell    51 D   1     bf  125 -   129          0.000000000000         -1.482896442367         -1.319949263363
      0.3180000000D+00  0.1000000000D+01
 Atom C6       Shell    52 F   1     bf  130 -   136          0.000000000000         -1.482896442367         -1.319949263363
      0.7610000000D+00  0.1000000000D+01
 Atom H7       Shell    53 S   3     bf  137 -   137         -1.676952418953          2.347865667364         -2.155858279888
      0.3406134100D+02  0.2543930721D-01
      0.5123574600D+01  0.1900859489D+00
      0.1164662600D+01  0.8524411301D+00
 Atom H7       Shell    54 S   1     bf  138 -   138         -1.676952418953          2.347865667364         -2.155858279888
      0.3272304100D+00  0.1000000000D+01
 Atom H7       Shell    55 S   1     bf  139 -   139         -1.676952418953          2.347865667364         -2.155858279888
      0.1030724100D+00  0.1000000000D+01
 Atom H7       Shell    56 P   1     bf  140 -   142         -1.676952418953          2.347865667364         -2.155858279888
      0.8000000000D+00  0.1000000000D+01
 Atom H8       Shell    57 S   3     bf  143 -   143          1.676952418953         -2.347865667364         -2.155858279888
      0.3406134100D+02  0.2543930721D-01
      0.5123574600D+01  0.1900859489D+00
      0.1164662600D+01  0.8524411301D+00
 Atom H8       Shell    58 S   1     bf  144 -   144          1.676952418953         -2.347865667364         -2.155858279888
      0.3272304100D+00  0.1000000000D+01
 Atom H8       Shell    59 S   1     bf  145 -   145          1.676952418953         -2.347865667364         -2.155858279888
      0.1030724100D+00  0.1000000000D+01
 Atom H8       Shell    60 P   1     bf  146 -   148          1.676952418953         -2.347865667364         -2.155858279888
      0.8000000000D+00  0.1000000000D+01
 Atom H9       Shell    61 S   3     bf  149 -   149          1.676952418953          2.347865667364         -2.155858279888
      0.3406134100D+02  0.2543930721D-01
      0.5123574600D+01  0.1900859489D+00
      0.1164662600D+01  0.8524411301D+00
 Atom H9       Shell    62 S   1     bf  150 -   150          1.676952418953          2.347865667364         -2.155858279888
      0.3272304100D+00  0.1000000000D+01
 Atom H9       Shell    63 S   1     bf  151 -   151          1.676952418953          2.347865667364         -2.155858279888
      0.1030724100D+00  0.1000000000D+01
 Atom H9       Shell    64 P   1     bf  152 -   154          1.676952418953          2.347865667364         -2.155858279888
      0.8000000000D+00  0.1000000000D+01
 Atom H10      Shell    65 S   3     bf  155 -   155         -1.676952418953         -2.347865667364         -2.155858279888
      0.3406134100D+02  0.2543930721D-01
      0.5123574600D+01  0.1900859489D+00
      0.1164662600D+01  0.8524411301D+00
 Atom H10      Shell    66 S   1     bf  156 -   156         -1.676952418953         -2.347865667364         -2.155858279888
      0.3272304100D+00  0.1000000000D+01
 Atom H10      Shell    67 S   1     bf  157 -   157         -1.676952418953         -2.347865667364         -2.155858279888
      0.1030724100D+00  0.1000000000D+01
 Atom H10      Shell    68 P   1     bf  158 -   160         -1.676952418953         -2.347865667364         -2.155858279888
      0.8000000000D+00  0.1000000000D+01
 There are    61 symmetry adapted cartesian basis functions of A1  symmetry.
 There are    29 symmetry adapted cartesian basis functions of A2  symmetry.
 There are    29 symmetry adapted cartesian basis functions of B1  symmetry.
 There are    61 symmetry adapted cartesian basis functions of B2  symmetry.
 There are    53 symmetry adapted basis functions of A1  symmetry.
 There are    27 symmetry adapted basis functions of A2  symmetry.
 There are    27 symmetry adapted basis functions of B1  symmetry.
 There are    53 symmetry adapted basis functions of B2  symmetry.
   160 basis functions,   252 primitive gaussians,   180 cartesian basis functions
    15 alpha electrons       15 beta electrons
       nuclear repulsion energy       113.3468701131 Hartrees.
 IExCor= 4639 DFT=T Ex+Corr=wB97XD ExCW=0 ScaHFX=  1.000000
 ScaDFX=  1.000000  1.000000  1.000000  1.000000 ScalE2=  1.000000  1.000000
 IRadAn=      5 IRanWt=     -1 IRanGd=            0 ICorTp=0 IEmpDi=121
  HFx wShort=  0.000000 wLong=  0.200000 cFull=  0.222036 cShort=  0.000000 cLong=  0.777964
  DFx wShort=  0.000000 wLong=  0.200000 cFull=  0.000000 cShort=  0.000000 cLong=  1.000000
 NAtoms=   10 NActive=   10 NUniq=    4 SFac= 4.00D+00 NAtFMM=   60 NAOKFM=F Big=F
 Integral buffers will be    131072 words long.
 Raffenetti 2 integral format.
 Two-electron integral symmetry is turned on.
 R6Disp:  Grimme-D2 Dispersion energy=       -0.0031347731 Hartrees.
 Nuclear repulsion after empirical dispersion term =      113.3437353400 Hartrees.
 Leave Link  301 at Fri Jul  9 19:19:36 2021, MaxMem=  4194304000 cpu:         0.2
 (Enter /home/minenky/programs//g09/l302.exe)
 NPDir=0 NMtPBC=     1 NCelOv=     1 NCel=       1 NClECP=     1 NCelD=      1
         NCelK=      1 NCelE2=     1 NClLst=     1 CellRange=     0.0.
 One-electron integrals computed using PRISM.
 One-electron integral symmetry used in STVInt
   4 Symmetry operations used in ECPInt.
 ECPInt:  NShTT=    2346 NPrTT=    6892 LenC2=    2342 LenP2D=    6079.
 LDataN:  DoStor=T MaxTD1= 6 Len=  172
 NBasis=   160 RedAO= T EigKep=  4.94D-05  NBF=    53    27    27    53
 NBsUse=   160 1.00D-06 EigRej= -1.00D+00 NBFU=    53    27    27    53
 Precomputing XC quadrature grid using
 IXCGrd= 4 IRadAn=           5 IRanWt=          -1 IRanGd=           0 AccXCQ= 0.00D+00.
 Generated NRdTot=       0 NPtTot=           0 NUsed=           0 NTot=          32
 NSgBfM=   179   179   179   179   179 MxSgAt=    10 MxSgA2=    10.
 Leave Link  302 at Fri Jul  9 19:19:42 2021, MaxMem=  4194304000 cpu:        63.2
 (Enter /home/minenky/programs//g09/l303.exe)
 DipDrv:  MaxL=1.
 Leave Link  303 at Fri Jul  9 19:19:42 2021, MaxMem=  4194304000 cpu:         2.6
 (Enter /home/minenky/programs//g09/l401.exe)
 ExpMin= 9.52D-02 ExpMax= 1.36D+04 ExpMxC= 4.63D+02 IAcc=3 IRadAn=         5 AccDes= 0.00D+00
 Harris functional with IExCor= 4639 and IRadAn=       5 diagonalized for initial guess.
 HarFok:  IExCor= 4639 AccDes= 0.00D+00 IRadAn=         5 IDoV= 1 UseB2=F ITyADJ=14
 ICtDFT=  3500011 ScaDFX=  1.000000  1.000000  1.000000  1.000000
 FoFCou: FMM=F IPFlag=           0 FMFlag=      100000 FMFlg1=           0
         NFxFlg=           0 DoJE=T BraDBF=F KetDBF=T FulRan=T
         wScrn=  0.000000 ICntrl=     500 IOpCl=  0 I1Cent=   200000004 NGrid=           0
         NMat0=    1 NMatS0=      1 NMatT0=    0 NMatD0=    1 NMtDS0=    0 NMtDT0=    0
 Petite list used in FoFCou.
 Harris En= -148.478570942930    
 JPrj=0 DoOrth=F DoCkMO=F.
 Initial guess orbital symmetries:
       Occupied  (A1) (B2) (A1) (B2) (A1) (A1) (B2) (A1) (B2) (B1)
                 (A1) (A2) (A1) (B2) (B1)
       Virtual   (A2) (A1) (B2) (A1) (B1) (A1) (B2) (B2) (A2) (A1)
                 (A1) (B2) (A1) (B1) (B2) (B1) (A2) (A1) (B2) (B2)
                 (A1) (A1) (A1) (B1) (B2) (A2) (B2) (B2) (A2) (B1)
                 (A1) (B2) (B2) (B1) (B2) (A1) (A1) (A1) (B1) (A2)
                 (B2) (A1) (B1) (A1) (A2) (B2) (A1) (A2) (B2) (A2)
                 (B2) (B2) (B2) (A1) (B1) (A1) (B1) (B2) (A2) (A1)
                 (B2) (A2) (A1) (B1) (A1) (B2) (B1) (A1) (B1) (A2)
                 (B2) (A1) (A1) (B2) (B1) (A1) (B2) (A2) (A1) (B1)
                 (B2) (B1) (A2) (A1) (A2) (A1) (B2) (A1) (B2) (B1)
                 (A2) (B2) (B2) (A1) (A1) (B1) (B2) (A2) (A1) (B1)
                 (B2) (A2) (A1) (A1) (B2) (B2) (A1) (A2) (B1) (B2)
                 (B1) (B2) (A1) (B1) (A2) (B1) (B2) (A1) (A2) (B2)
                 (A1) (A2) (B1) (A1) (B2) (A2) (B1) (A1) (A2) (B2)
                 (A1) (A2) (B2) (A2) (B2) (A1) (B2) (A1) (B2) (B2)
                 (B2) (A1) (A1) (B2) (B2)
 The electronic state of the initial guess is 1-A1.
 Leave Link  401 at Fri Jul  9 19:19:45 2021, MaxMem=  4194304000 cpu:        29.5
 (Enter /home/minenky/programs//g09/l502.exe)
 Closed shell SCF:
 Using DIIS extrapolation, IDIIS=  1040.
 Integral symmetry usage will be decided dynamically.
 Keep R1 ints in memory in symmetry-blocked form, NReq=208188314.
 IVT=      249930 IEndB=      249930 NGot=  4194304000 MDV=  4173024295
 LenX=  4173024295 LenY=  4172991454
 Requested convergence on RMS density matrix=1.00D-08 within 380 cycles.
 Requested convergence on MAX density matrix=1.00D-06.
 Requested convergence on             energy=1.00D-06.
 No special actions if energy rises.
 FoFCou: FMM=F IPFlag=           0 FMFlag=           0 FMFlg1=           0
         NFxFlg=           0 DoJE=F BraDBF=F KetDBF=F FulRan=T
         wScrn=  0.000000 ICntrl=     600 IOpCl=  0 I1Cent=           0 NGrid=           0
         NMat0=    1 NMatS0=  12880 NMatT0=    0 NMatD0=    1 NMtDS0=    0 NMtDT0=    0
 Petite list used in FoFCou.
 Integral accuracy reduced to 1.0D-05 until final iterations.

 Cycle   1  Pass 0  IDiag  1:
 E= -155.933436771641    
 DIIS: error= 7.01D-02 at cycle   1 NSaved=   1.
 NSaved= 1 IEnMin= 1 EnMin= -155.933436771641     IErMin= 1 ErrMin= 7.01D-02
 ErrMax= 7.01D-02  0.00D+00 EMaxC= 1.00D-01 BMatC= 3.32D-01 BMatP= 3.32D-01
 IDIUse=3 WtCom= 2.99D-01 WtEn= 7.01D-01
 Coeff-Com:  0.100D+01
 Coeff-En:   0.100D+01
 Coeff:      0.100D+01
 Gap=     0.410 Goal=   None    Shift=    0.000
 GapD=    0.410 DampG=2.000 DampE=0.500 DampFc=1.0000 IDamp=-1.
 RMSDP=1.69D-03 MaxDP=4.66D-02              OVMax= 4.97D-02

 Cycle   2  Pass 0  IDiag  1:
 E= -155.969203717205     Delta-E=       -0.035766945564 Rises=F Damp=F
 DIIS: error= 1.25D-02 at cycle   2 NSaved=   2.
 NSaved= 2 IEnMin= 2 EnMin= -155.969203717205     IErMin= 2 ErrMin= 1.25D-02
 ErrMax= 1.25D-02  0.00D+00 EMaxC= 1.00D-01 BMatC= 8.78D-03 BMatP= 3.32D-01
 IDIUse=3 WtCom= 8.75D-01 WtEn= 1.25D-01
 Coeff-Com:  0.770D-01 0.923D+00
 Coeff-En:   0.000D+00 0.100D+01
 Coeff:      0.673D-01 0.933D+00
 Gap=     0.423 Goal=   None    Shift=    0.000
 RMSDP=8.76D-04 MaxDP=1.30D-02 DE=-3.58D-02 OVMax= 3.31D-02

 Cycle   3  Pass 0  IDiag  1:
 E= -155.973049057575     Delta-E=       -0.003845340370 Rises=F Damp=F
 DIIS: error= 8.11D-03 at cycle   3 NSaved=   3.
 NSaved= 3 IEnMin= 3 EnMin= -155.973049057575     IErMin= 3 ErrMin= 8.11D-03
 ErrMax= 8.11D-03  0.00D+00 EMaxC= 1.00D-01 BMatC= 4.69D-03 BMatP= 8.78D-03
 IDIUse=3 WtCom= 9.19D-01 WtEn= 8.11D-02
 Coeff-Com:  0.247D-01 0.430D+00 0.545D+00
 Coeff-En:   0.000D+00 0.329D+00 0.671D+00
 Coeff:      0.227D-01 0.422D+00 0.555D+00
 Gap=     0.417 Goal=   None    Shift=    0.000
 RMSDP=2.91D-04 MaxDP=5.46D-03 DE=-3.85D-03 OVMax= 1.39D-02

 Cycle   4  Pass 0  IDiag  1:
 E= -155.977455256102     Delta-E=       -0.004406198527 Rises=F Damp=F
 DIIS: error= 3.25D-04 at cycle   4 NSaved=   4.
 NSaved= 4 IEnMin= 4 EnMin= -155.977455256102     IErMin= 4 ErrMin= 3.25D-04
 ErrMax= 3.25D-04  0.00D+00 EMaxC= 1.00D-01 BMatC= 6.07D-06 BMatP= 4.69D-03
 IDIUse=3 WtCom= 9.97D-01 WtEn= 3.25D-03
 Coeff-Com: -0.167D-02-0.242D-01-0.794D-02 0.103D+01
 Coeff-En:   0.000D+00 0.000D+00 0.000D+00 0.100D+01
 Coeff:     -0.166D-02-0.242D-01-0.792D-02 0.103D+01
 Gap=     0.417 Goal=   None    Shift=    0.000
 RMSDP=4.96D-05 MaxDP=7.90D-04 DE=-4.41D-03 OVMax= 1.40D-03

 Cycle   5  Pass 0  IDiag  1:
 E= -155.977464570423     Delta-E=       -0.000009314321 Rises=F Damp=F
 DIIS: error= 9.75D-05 at cycle   5 NSaved=   5.
 NSaved= 5 IEnMin= 5 EnMin= -155.977464570423     IErMin= 5 ErrMin= 9.75D-05
 ErrMax= 9.75D-05  0.00D+00 EMaxC= 1.00D-01 BMatC= 1.21D-06 BMatP= 6.07D-06
 IDIUse=1 WtCom= 1.00D+00 WtEn= 0.00D+00
 Coeff-Com: -0.175D-02-0.287D-01-0.284D-01 0.339D+00 0.719D+00
 Coeff:     -0.175D-02-0.287D-01-0.284D-01 0.339D+00 0.719D+00
 Gap=     0.417 Goal=   None    Shift=    0.000
 RMSDP=1.23D-05 MaxDP=1.86D-04 DE=-9.31D-06 OVMax= 3.76D-04

 Cycle   6  Pass 0  IDiag  1:
 E= -155.977465950514     Delta-E=       -0.000001380091 Rises=F Damp=F
 DIIS: error= 5.35D-05 at cycle   6 NSaved=   6.
 NSaved= 6 IEnMin= 6 EnMin= -155.977465950514     IErMin= 6 ErrMin= 5.35D-05
 ErrMax= 5.35D-05  0.00D+00 EMaxC= 1.00D-01 BMatC= 7.59D-08 BMatP= 1.21D-06
 IDIUse=1 WtCom= 1.00D+00 WtEn= 0.00D+00
 Coeff-Com: -0.228D-03-0.422D-02-0.567D-02-0.391D-01 0.151D+00 0.898D+00
 Coeff:     -0.228D-03-0.422D-02-0.567D-02-0.391D-01 0.151D+00 0.898D+00
 Gap=     0.417 Goal=   None    Shift=    0.000
 RMSDP=4.44D-06 MaxDP=6.79D-05 DE=-1.38D-06 OVMax= 2.19D-04

 Initial convergence to 1.0D-05 achieved.  Increase integral accuracy.
 Cycle   7  Pass 1  IDiag  1:
 E= -155.977400937801     Delta-E=        0.000065012713 Rises=F Damp=F
 DIIS: error= 6.95D-05 at cycle   1 NSaved=   1.
 NSaved= 1 IEnMin= 1 EnMin= -155.977400937801     IErMin= 1 ErrMin= 6.95D-05
 ErrMax= 6.95D-05  0.00D+00 EMaxC= 1.00D-01 BMatC= 4.28D-07 BMatP= 4.28D-07
 IDIUse=1 WtCom= 1.00D+00 WtEn= 0.00D+00
 Coeff-Com:  0.100D+01
 Coeff:      0.100D+01
 Gap=     0.417 Goal=   None    Shift=    0.000
 RMSDP=4.44D-06 MaxDP=6.79D-05 DE= 6.50D-05 OVMax= 1.11D-04

 Cycle   8  Pass 1  IDiag  1:
 E= -155.977401204544     Delta-E=       -0.000000266744 Rises=F Damp=F
 DIIS: error= 1.46D-05 at cycle   2 NSaved=   2.
 NSaved= 2 IEnMin= 2 EnMin= -155.977401204544     IErMin= 2 ErrMin= 1.46D-05
 ErrMax= 1.46D-05  0.00D+00 EMaxC= 1.00D-01 BMatC= 9.88D-09 BMatP= 4.28D-07
 IDIUse=1 WtCom= 1.00D+00 WtEn= 0.00D+00
 Coeff-Com: -0.184D-01 0.102D+01
 Coeff:     -0.184D-01 0.102D+01
 Gap=     0.417 Goal=   None    Shift=    0.000
 RMSDP=1.09D-06 MaxDP=2.63D-05 DE=-2.67D-07 OVMax= 4.26D-05

 Cycle   9  Pass 1  IDiag  1:
 E= -155.977401211157     Delta-E=       -0.000000006613 Rises=F Damp=F
 DIIS: error= 7.98D-06 at cycle   3 NSaved=   3.
 NSaved= 3 IEnMin= 3 EnMin= -155.977401211157     IErMin= 3 ErrMin= 7.98D-06
 ErrMax= 7.98D-06  0.00D+00 EMaxC= 1.00D-01 BMatC= 4.28D-09 BMatP= 9.88D-09
 IDIUse=1 WtCom= 1.00D+00 WtEn= 0.00D+00
 Coeff-Com: -0.326D-01 0.400D+00 0.633D+00
 Coeff:     -0.326D-01 0.400D+00 0.633D+00
 Gap=     0.417 Goal=   None    Shift=    0.000
 RMSDP=3.14D-07 MaxDP=4.56D-06 DE=-6.61D-09 OVMax= 1.50D-05

 Cycle  10  Pass 1  IDiag  1:
 E= -155.977401215081     Delta-E=       -0.000000003924 Rises=F Damp=F
 DIIS: error= 9.85D-07 at cycle   4 NSaved=   4.
 NSaved= 4 IEnMin= 4 EnMin= -155.977401215081     IErMin= 4 ErrMin= 9.85D-07
 ErrMax= 9.85D-07  0.00D+00 EMaxC= 1.00D-01 BMatC= 8.74D-11 BMatP= 4.28D-09
 IDIUse=1 WtCom= 1.00D+00 WtEn= 0.00D+00
 Coeff-Com: -0.666D-02 0.391D-01 0.137D+00 0.831D+00
 Coeff:     -0.666D-02 0.391D-01 0.137D+00 0.831D+00
 Gap=     0.417 Goal=   None    Shift=    0.000
 RMSDP=8.29D-08 MaxDP=1.03D-06 DE=-3.92D-09 OVMax= 3.55D-06

 Cycle  11  Pass 1  IDiag  1:
 E= -155.977401215199     Delta-E=       -0.000000000117 Rises=F Damp=F
 DIIS: error= 2.71D-07 at cycle   5 NSaved=   5.
 NSaved= 5 IEnMin= 5 EnMin= -155.977401215199     IErMin= 5 ErrMin= 2.71D-07
 ErrMax= 2.71D-07  0.00D+00 EMaxC= 1.00D-01 BMatC= 4.10D-12 BMatP= 8.74D-11
 IDIUse=1 WtCom= 1.00D+00 WtEn= 0.00D+00
 Coeff-Com:  0.204D-02-0.258D-01-0.460D-01 0.195D-01 0.105D+01
 Coeff:      0.204D-02-0.258D-01-0.460D-01 0.195D-01 0.105D+01
 Gap=     0.417 Goal=   None    Shift=    0.000
 RMSDP=3.17D-08 MaxDP=4.42D-07 DE=-1.17D-10 OVMax= 1.46D-06

 Cycle  12  Pass 1  IDiag  1:
 E= -155.977401215204     Delta-E=       -0.000000000006 Rises=F Damp=F
 DIIS: error= 6.50D-08 at cycle   6 NSaved=   6.
 NSaved= 6 IEnMin= 6 EnMin= -155.977401215204     IErMin= 6 ErrMin= 6.50D-08
 ErrMax= 6.50D-08  0.00D+00 EMaxC= 1.00D-01 BMatC= 4.72D-13 BMatP= 4.10D-12
 IDIUse=1 WtCom= 1.00D+00 WtEn= 0.00D+00
 Coeff-Com:  0.891D-03-0.937D-02-0.199D-01-0.278D-01 0.313D+00 0.743D+00
 Coeff:      0.891D-03-0.937D-02-0.199D-01-0.278D-01 0.313D+00 0.743D+00
 Gap=     0.417 Goal=   None    Shift=    0.000
 RMSDP=7.05D-09 MaxDP=8.51D-08 DE=-5.63D-12 OVMax= 2.42D-07

 SCF Done:  E(RwB97XD) =  -155.977401215     A.U. after   12 cycles
            NFock= 12  Conv=0.70D-08     -V/T= 2.0056
 KE= 1.551085987835D+02 PE=-5.879923360336D+02 EE= 1.635626006949D+02
 Leave Link  502 at Fri Jul  9 19:20:50 2021, MaxMem=  4194304000 cpu:       899.1
 (Enter /home/minenky/programs//g09/l601.exe)
 Copying SCF densities to generalized density rwf, IOpCl= 0 IROHF=0.

 **********************************************************************

            Population analysis using the SCF density.

 **********************************************************************

 Orbital symmetries:
       Occupied  (A1) (B2) (A1) (B2) (A1) (A1) (B2) (B2) (A1) (B1)
                 (A1) (A2) (A1) (B2) (B1)
       Virtual   (A2) (A1) (B2) (A1) (B1) (B2) (A1) (A2) (B2) (A1)
                 (A1) (B2) (A1) (B1) (B2) (B1) (A2) (B2) (A1) (A1)
                 (B2) (A1) (A1) (B2) (B1) (A2) (B2) (B2) (A2) (A1)
                 (B1) (B2) (B2) (B1) (B2) (A1) (A1) (A1) (B1) (A2)
                 (A1) (B2) (B1) (A2) (A1) (B2) (A1) (A2) (B2) (A2)
                 (B2) (B2) (B2) (A1) (B1) (A1) (B2) (B1) (A2) (B2)
                 (A1) (A2) (A1) (B1) (A1) (B2) (B1) (A1) (B1) (A2)
                 (B2) (A1) (A1) (B2) (B1) (B2) (A1) (A2) (A1) (B2)
                 (B1) (A2) (B1) (A1) (A2) (B2) (A1) (A1) (B2) (B1)
                 (A2) (B2) (B2) (A1) (A1) (B1) (B2) (A2) (A1) (B2)
                 (B1) (A2) (A1) (A1) (B2) (B2) (A1) (A2) (B1) (B2)
                 (B1) (B2) (A1) (B1) (B1) (A2) (B2) (A1) (A2) (B2)
                 (A2) (A1) (B1) (A1) (B2) (A2) (B1) (A1) (A2) (B2)
                 (A1) (A2) (B2) (A2) (B2) (A1) (B2) (A1) (B2) (B2)
                 (B2) (A1) (A1) (B2) (B2)
 The electronic state is 1-A1.
 Alpha  occ. eigenvalues --  -10.28413 -10.28397 -10.28206 -10.28117  -0.95758
 Alpha  occ. eigenvalues --   -0.75305  -0.73935  -0.60500  -0.58840  -0.54723
 Alpha  occ. eigenvalues --   -0.46629  -0.44316  -0.40922  -0.39871  -0.33116
 Alpha virt. eigenvalues --    0.08549   0.12969   0.15018   0.15976   0.16544
 Alpha virt. eigenvalues --    0.18422   0.20092   0.22810   0.23815   0.27448
 Alpha virt. eigenvalues --    0.28144   0.31357   0.31854   0.32117   0.33574
 Alpha virt. eigenvalues --    0.37985   0.41394   0.43798   0.44948   0.46420
 Alpha virt. eigenvalues --    0.46471   0.48694   0.49071   0.49800   0.50307
 Alpha virt. eigenvalues --    0.52357   0.53615   0.57731   0.58708   0.62810
 Alpha virt. eigenvalues --    0.64350   0.68421   0.76395   0.79738   0.81175
 Alpha virt. eigenvalues --    0.93792   0.96529   0.98820   1.02201   1.03088
 Alpha virt. eigenvalues --    1.06843   1.07217   1.09218   1.13438   1.14605
 Alpha virt. eigenvalues --    1.17515   1.23527   1.24097   1.24976   1.27777
 Alpha virt. eigenvalues --    1.30691   1.40491   1.45761   1.50512   1.54704
 Alpha virt. eigenvalues --    1.57304   1.61213   1.62437   1.70367   1.72236
 Alpha virt. eigenvalues --    1.72759   1.73850   1.80983   1.84140   1.85792
 Alpha virt. eigenvalues --    1.89803   1.91200   2.00139   2.10144   2.11732
 Alpha virt. eigenvalues --    2.12941   2.14548   2.18369   2.22393   2.26501
 Alpha virt. eigenvalues --    2.32011   2.32109   2.32810   2.53019   2.53456
 Alpha virt. eigenvalues --    2.54192   2.58929   2.61108   2.62829   2.66711
 Alpha virt. eigenvalues --    2.69501   2.69689   2.70856   2.73115   2.78128
 Alpha virt. eigenvalues --    2.80000   2.84452   2.90691   2.93010   2.96773
 Alpha virt. eigenvalues --    2.99159   3.02503   3.03613   3.08100   3.09796
 Alpha virt. eigenvalues --    3.11436   3.18057   3.20761   3.24053   3.25236
 Alpha virt. eigenvalues --    3.30132   3.30827   3.31692   3.38583   3.40032
 Alpha virt. eigenvalues --    3.42647   3.53498   3.54633   3.59509   3.63158
 Alpha virt. eigenvalues --    3.63300   3.73220   3.74922   3.76099   3.80090
 Alpha virt. eigenvalues --    3.99584   4.00382   4.01507   4.10344   4.14017
 Alpha virt. eigenvalues --    4.14835   4.27155   4.34126   4.34536   4.38557
 Alpha virt. eigenvalues --    4.44521   4.48515   4.56844   4.61738   4.64011
 Alpha virt. eigenvalues --    4.64462   4.82479   4.84259   5.01055   5.19135
 Alpha virt. eigenvalues --    5.45243  22.14097  22.51505  22.58553  22.86342
          Condensed to atoms (all electrons):
               1          2          3          4          5          6
     1  C    5.097898   0.547937   0.411739  -0.036488   0.347764  -0.149585
     2  C    0.547937   5.097898  -0.036488   0.411739  -0.149585   0.347764
     3  H    0.411739  -0.036488   0.533308  -0.002020  -0.037279   0.014994
     4  H   -0.036488   0.411739  -0.002020   0.533308   0.014994  -0.037279
     5  C    0.347764  -0.149585  -0.037279   0.014994   4.817555   0.387013
     6  C   -0.149585   0.347764   0.014994  -0.037279   0.387013   4.817555
     7  H   -0.022813  -0.001332   0.000952  -0.000659   0.396246  -0.020041
     8  H   -0.001332  -0.022813  -0.000659   0.000952  -0.020041   0.396246
     9  H   -0.022813  -0.001332   0.000952  -0.000659   0.396246  -0.020041
    10  H   -0.001332  -0.022813  -0.000659   0.000952  -0.020041   0.396246
               7          8          9         10
     1  C   -0.022813  -0.001332  -0.022813  -0.001332
     2  C   -0.001332  -0.022813  -0.001332  -0.022813
     3  H    0.000952  -0.000659   0.000952  -0.000659
     4  H   -0.000659   0.000952  -0.000659   0.000952
     5  C    0.396246  -0.020041   0.396246  -0.020041
     6  C   -0.020041   0.396246  -0.020041   0.396246
     7  H    0.587120   0.000550  -0.032050  -0.002315
     8  H    0.000550   0.587120  -0.002315  -0.032050
     9  H   -0.032050  -0.002315   0.587120   0.000550
    10  H   -0.002315  -0.032050   0.000550   0.587120
 Mulliken charges:
               1
     1  C   -0.170974
     2  C   -0.170974
     3  H    0.115160
     4  H    0.115160
     5  C   -0.132871
     6  C   -0.132871
     7  H    0.094343
     8  H    0.094343
     9  H    0.094343
    10  H    0.094343
 Sum of Mulliken charges =   0.00000
 Mulliken charges with hydrogens summed into heavy atoms:
               1
     1  C   -0.055814
     2  C   -0.055814
     5  C    0.055814
     6  C    0.055814
 Electronic spatial extent (au):  <R**2>=            234.4768
 Charge=              0.0000 electrons
 Dipole moment (field-independent basis, Debye):
    X=              0.0000    Y=              0.0000    Z=             -0.1463  Tot=              0.1463
 Quadrupole moment (field-independent basis, Debye-Ang):
   XX=            -25.9810   YY=            -24.0041   ZZ=            -24.5767
   XY=              0.0000   XZ=              0.0000   YZ=              0.0000
 Traceless Quadrupole moment (field-independent basis, Debye-Ang):
   XX=             -1.1271   YY=              0.8498   ZZ=              0.2773
   XY=              0.0000   XZ=              0.0000   YZ=              0.0000
 Octapole moment (field-independent basis, Debye-Ang**2):
  XXX=              0.0000  YYY=              0.0000  ZZZ=              2.0838  XYY=              0.0000
  XXY=              0.0000  XXZ=             -3.1082  XZZ=              0.0000  YZZ=              0.0000
  YYZ=              2.0120  XYZ=              0.0000
 Hexadecapole moment (field-independent basis, Debye-Ang**3):
 XXXX=            -43.0491 YYYY=           -138.9744 ZZZZ=           -144.6629 XXXY=              0.0000
 XXXZ=              0.0000 YYYX=              0.0000 YYYZ=              0.0000 ZZZX=              0.0000
 ZZZY=              0.0000 XXYY=            -29.2287 XXZZ=            -32.2000 YYZZ=            -41.7588
 XXYZ=              0.0000 YYXZ=              0.0000 ZZXY=              0.0000
 N-N= 1.133437353400D+02 E-N=-5.879923350498D+02  KE= 1.551085987835D+02
 Symmetry A1   KE= 7.703958999649D+01
 Symmetry A2   KE= 2.110857481981D+00
 Symmetry B1   KE= 4.008522088621D+00
 Symmetry B2   KE= 7.194962921645D+01
 No NMR shielding tensors so no spin-rotation constants.
 Leave Link  601 at Fri Jul  9 19:20:52 2021, MaxMem=  4194304000 cpu:        16.0
 (Enter /home/minenky/programs//g09/l701.exe)
 Compute integral first derivatives.
 ... and contract with generalized density number  0.
 R6Disp: Adding Grimme-D2 dispersion energy 1st derivatives to the gradient.
   4 Symmetry operations used in ECPInt.
 ECPInt:  NShTT=    2346 NPrTT=    6892 LenC2=    2342 LenP2D=    6079.
 LDataN:  DoStor=T MaxTD1= 7 Len=  274
 Leave Link  701 at Fri Jul  9 19:20:53 2021, MaxMem=  4194304000 cpu:        20.8
 (Enter /home/minenky/programs//g09/l702.exe)
 L702 exits ... SP integral derivatives will be done elsewhere.
 Leave Link  702 at Fri Jul  9 19:20:53 2021, MaxMem=  4194304000 cpu:         0.1
 (Enter /home/minenky/programs//g09/l703.exe)
 Compute integral first derivatives, UseDBF=F ICtDFT=           0.
 Integral derivatives from FoFJK, PRISM(SPDF).
 Calling FoFJK, ICntrl=      2127 FMM=F ISym2X=1 I1Cent= 0 IOpClX= 0 NMat=1 NMatS=1 NMatT=0.
 FoFJK:  IHMeth= 1 ICntrl=    2127 DoSepK=T KAlg= 0 I1Cent=   0 FoldK=F
 IRaf=         1 NMat=   1 IRICut=       1 DoRegI=T DoRafI=F ISym2E= 1.
 FoFCou: FMM=F IPFlag=           0 FMFlag=      100000 FMFlg1=         800
         NFxFlg=           0 DoJE=F BraDBF=F KetDBF=F FulRan=T
         wScrn=  0.000000 ICntrl=    2527 IOpCl=  0 I1Cent=           0 NGrid=           0
         NMat0=    1 NMatS0=      1 NMatT0=    0 NMatD0=    1 NMtDS0=    0 NMtDT0=    0
 Petite list used in FoFCou.
 Leave Link  703 at Fri Jul  9 19:20:57 2021, MaxMem=  4194304000 cpu:        49.5
 (Enter /home/minenky/programs//g09/l716.exe)
 Dipole        = 0.00000000D+00-8.88178420D-16-5.75513546D-02
 ***** Axes restored to original set *****
 -------------------------------------------------------------------
 Center     Atomic                   Forces (Hartrees/Bohr)
 Number     Number              X              Y              Z
 -------------------------------------------------------------------
      1        6           0.000000000   -0.004467673   -0.002283348
      2        6           0.000000000    0.004467673   -0.002283348
      3        1           0.000000000   -0.000028147    0.000038052
      4        1           0.000000000    0.000028147    0.000038052
      5        6           0.000000000   -0.003160658    0.001533974
      6        6           0.000000000    0.003160658    0.001533974
      7        1           0.000057281   -0.000318813    0.000355661
      8        1          -0.000057281    0.000318813    0.000355661
      9        1          -0.000057281   -0.000318813    0.000355661
     10        1           0.000057281    0.000318813    0.000355661
 -------------------------------------------------------------------
 Cartesian Forces:  Max     0.004467673 RMS     0.001591261
 Leave Link  716 at Fri Jul  9 19:20:57 2021, MaxMem=  4194304000 cpu:         0.1
 (Enter /home/minenky/programs//g09/l103.exe)

 GradGradGradGradGradGradGradGradGradGradGradGradGradGradGradGradGradGrad
 Berny optimization.
 FormGI is forming the generalized inverse of G from B-inverse, IUseBI=4.
 Internal  Forces:  Max     0.004469393 RMS     0.000927116
 Search for a local minimum.
 Step number   1 out of a maximum of   63
 All quantities printed in internal units (Hartrees-Bohrs-Radians)
 RMS Force = .92712D-03 SwitMx=.10000D-02 MixMth= 2
 Mixed Optimization -- En-DIIS/RFO-DIIS
 Second derivative matrix not updated -- first step.
 ITU=  0
     Eigenvalues ---    0.00608   0.01161   0.01769   0.03868   0.04869
     Eigenvalues ---    0.04906   0.05615   0.07209   0.07307   0.07679
     Eigenvalues ---    0.07901   0.16000   0.16000   0.21634   0.25328
     Eigenvalues ---    0.28127   0.30797   0.34572   0.34572   0.34572
     Eigenvalues ---    0.34572   0.35702   0.35702   0.53429
 RFO step:  Lambda=-1.25274795D-04 EMin= 6.08172472D-03
 Linear search not attempted -- first point.
 Iteration  1 RMS(Cart)=  0.00347072 RMS(Int)=  0.00000094
 Iteration  2 RMS(Cart)=  0.00000079 RMS(Int)=  0.00000049
 ITry= 1 IFail=0 DXMaxC= 8.44D-03 DCOld= 1.00D+10 DXMaxT= 3.00D-01 DXLimC= 3.00D+00 Rises=F
 ClnCor:  largest displacement from symmetrization is 1.18D-11 for atom    10.
 Variable       Old X    -DE/DX   Delta X   Delta X   Delta X     New X
                                 (Linear)    (Quad)   (Total)
    R1        2.52289  -0.00447   0.00000  -0.00837  -0.00837   2.51453
    R2        2.04550   0.00001   0.00000   0.00002   0.00002   2.04552
    R3        2.86370  -0.00224   0.00000  -0.00736  -0.00736   2.85634
    R4        2.04550   0.00001   0.00000   0.00002   0.00002   2.04552
    R5        2.86370  -0.00224   0.00000  -0.00736  -0.00736   2.85634
    R6        2.96579  -0.00382   0.00000  -0.01309  -0.01309   2.95270
    R7        2.06376  -0.00032   0.00000  -0.00094  -0.00094   2.06282
    R8        2.06376  -0.00032   0.00000  -0.00094  -0.00094   2.06282
    R9        2.06376  -0.00032   0.00000  -0.00094  -0.00094   2.06282
   R10        2.06376  -0.00032   0.00000  -0.00094  -0.00094   2.06282
    A1        2.32901  -0.00013   0.00000   0.00002   0.00002   2.32903
    A2        1.64820   0.00017   0.00000  -0.00063  -0.00063   1.64757
    A3        2.30597  -0.00004   0.00000   0.00061   0.00061   2.30659
    A4        2.32901  -0.00013   0.00000   0.00002   0.00002   2.32903
    A5        1.64820   0.00017   0.00000  -0.00063  -0.00063   1.64757
    A6        2.30597  -0.00004   0.00000   0.00061   0.00061   2.30659
    A7        1.49339  -0.00017   0.00000   0.00063   0.00063   1.49402
    A8        2.02221  -0.00003   0.00000  -0.00143  -0.00143   2.02079
    A9        2.02221  -0.00003   0.00000  -0.00143  -0.00143   2.02079
   A10        2.00328  -0.00003   0.00000  -0.00080  -0.00080   2.00247
   A11        2.00328  -0.00003   0.00000  -0.00080  -0.00080   2.00247
   A12        1.89711   0.00020   0.00000   0.00298   0.00298   1.90009
   A13        1.49339  -0.00017   0.00000   0.00063   0.00063   1.49402
   A14        2.02221  -0.00003   0.00000  -0.00143  -0.00143   2.02079
   A15        2.02221  -0.00003   0.00000  -0.00143  -0.00143   2.02079
   A16        2.00328  -0.00003   0.00000  -0.00080  -0.00080   2.00247
   A17        2.00328  -0.00003   0.00000  -0.00080  -0.00080   2.00247
   A18        1.89711   0.00020   0.00000   0.00298   0.00298   1.90009
    D1        0.00000   0.00000   0.00000   0.00000   0.00000   0.00000
    D2        3.14159   0.00000   0.00000   0.00000   0.00000   3.14159
    D3        3.14159   0.00000   0.00000   0.00000   0.00000   3.14159
    D4        0.00000   0.00000   0.00000   0.00000   0.00000   0.00000
    D5        0.00000   0.00000   0.00000   0.00000   0.00000   0.00000
    D6        2.01482  -0.00012   0.00000  -0.00079  -0.00079   2.01403
    D7       -2.01482   0.00012   0.00000   0.00079   0.00079  -2.01403
    D8        3.14159   0.00000   0.00000   0.00000   0.00000   3.14159
    D9       -1.12677  -0.00012   0.00000  -0.00079  -0.00079  -1.12756
   D10        1.12677   0.00012   0.00000   0.00079   0.00079   1.12756
   D11        0.00000   0.00000   0.00000   0.00000   0.00000   0.00000
   D12        2.01482  -0.00012   0.00000  -0.00079  -0.00079   2.01403
   D13       -2.01482   0.00012   0.00000   0.00079   0.00079  -2.01403
   D14        3.14159   0.00000   0.00000   0.00000   0.00000   3.14159
   D15       -1.12677  -0.00012   0.00000  -0.00079  -0.00079  -1.12756
   D16        1.12677   0.00012   0.00000   0.00079   0.00079   1.12756
   D17        0.00000   0.00000   0.00000   0.00000   0.00000   0.00000
   D18       -2.03322   0.00012   0.00000   0.00140   0.00140  -2.03182
   D19        2.03322  -0.00012   0.00000  -0.00140  -0.00140   2.03182
   D20       -2.03322   0.00012   0.00000   0.00140   0.00140  -2.03182
   D21        2.21675   0.00024   0.00000   0.00280   0.00280   2.21955
   D22        0.00000   0.00000   0.00000   0.00000   0.00000   0.00000
   D23        2.03322  -0.00012   0.00000  -0.00140  -0.00140   2.03182
   D24        0.00000   0.00000   0.00000   0.00000   0.00000   0.00000
   D25       -2.21675  -0.00024   0.00000  -0.00280  -0.00280  -2.21955
         Item               Value     Threshold  Converged?
 Maximum Force            0.004469     0.000015     NO 
 RMS     Force            0.000927     0.000010     NO 
 Maximum Displacement     0.008441     0.000060     NO 
 RMS     Displacement     0.003471     0.000040     NO 
 Predicted change in Energy=-6.265907D-05
 Lowest energy point so far.  Saving SCF results.
 GradGradGradGradGradGradGradGradGradGradGradGradGradGradGradGradGradGrad

 Leave Link  103 at Fri Jul  9 19:20:59 2021, MaxMem=  4194304000 cpu:        19.7
 (Enter /home/minenky/programs//g09/l202.exe)
                          Input orientation:                          
 ---------------------------------------------------------------------
 Center     Atomic      Atomic             Coordinates (Angstroms)
 Number     Number       Type             X           Y           Z
 ---------------------------------------------------------------------
      1          6           0        0.000000    0.665315    0.809584
      2          6           0        0.000000   -0.665315    0.809584
      3          1           0        0.000000    1.409644    1.595498
      4          1           0        0.000000   -1.409644    1.595498
      5          6           0        0.000000    0.781251   -0.697475
      6          6           0        0.000000   -0.781251   -0.697475
      7          1           0       -0.887948    1.237970   -1.138538
      8          1           0        0.887948   -1.237970   -1.138538
      9          1           0        0.887948    1.237970   -1.138538
     10          1           0       -0.887948   -1.237970   -1.138538
 ---------------------------------------------------------------------
                    Distance matrix (angstroms):
                    1          2          3          4          5
     1  C    0.000000
     2  C    1.330630   0.000000
     3  H    1.082445   2.218810   0.000000
     4  H    2.218810   1.082445   2.819288   0.000000
     5  C    1.511512   2.088967   2.377520   3.171395   0.000000
     6  C    2.088967   1.511512   3.171395   2.377520   1.562503
     7  H    2.216206   2.864635   2.879736   3.908103   1.091596
     8  H    2.864635   2.216206   3.908103   2.879736   2.249499
     9  H    2.216206   2.864635   2.879736   3.908103   1.091596
    10  H    2.864635   2.216206   3.908103   2.879736   2.249499
                    6          7          8          9         10
     6  C    0.000000
     7  H    2.249499   0.000000
     8  H    1.091596   3.046981   0.000000
     9  H    2.249499   1.775897   2.475941   0.000000
    10  H    1.091596   2.475941   1.775897   3.046981   0.000000
 Stoichiometry    C4H6
 Framework group  C2V[SGV(C4H2),X(H4)]
 Deg. of freedom     8
 Full point group                 C2V     NOp   4
 RotChk:  IX=0 Diff= 5.21D-15
 Largest Abelian subgroup         C2V     NOp   4
 Largest concise Abelian subgroup C2V     NOp   4
                         Standard orientation:                         
 ---------------------------------------------------------------------
 Center     Atomic      Atomic             Coordinates (Angstroms)
 Number     Number       Type             X           Y           Z
 ---------------------------------------------------------------------
      1          6           0        0.000000    0.665315    0.810179
      2          6           0        0.000000   -0.665315    0.810179
      3          1           0        0.000000    1.409644    1.596093
      4          1           0        0.000000   -1.409644    1.596093
      5          6           0        0.000000    0.781251   -0.696880
      6          6           0        0.000000   -0.781251   -0.696880
      7          1           0       -0.887948    1.237970   -1.137944
      8          1           0        0.887948   -1.237970   -1.137944
      9          1           0        0.887948    1.237970   -1.137944
     10          1           0       -0.887948   -1.237970   -1.137944
 ---------------------------------------------------------------------
 Rotational constants (GHZ):     13.0812017     12.3538357      6.9054354
 Leave Link  202 at Fri Jul  9 19:20:59 2021, MaxMem=  4194304000 cpu:         0.1
 (Enter /home/minenky/programs//g09/l301.exe)
 Standard basis: def2TZVP (5D, 7F)
 Ernie: Thresh=  0.10000D-02 Tol=  0.10000D-05 Strict=F.
 There are    61 symmetry adapted cartesian basis functions of A1  symmetry.
 There are    29 symmetry adapted cartesian basis functions of A2  symmetry.
 There are    29 symmetry adapted cartesian basis functions of B1  symmetry.
 There are    61 symmetry adapted cartesian basis functions of B2  symmetry.
 There are    53 symmetry adapted basis functions of A1  symmetry.
 There are    27 symmetry adapted basis functions of A2  symmetry.
 There are    27 symmetry adapted basis functions of B1  symmetry.
 There are    53 symmetry adapted basis functions of B2  symmetry.
   160 basis functions,   252 primitive gaussians,   180 cartesian basis functions
    15 alpha electrons       15 beta electrons
       nuclear repulsion energy       113.6363498560 Hartrees.
 IExCor= 4639 DFT=T Ex+Corr=wB97XD ExCW=0 ScaHFX=  1.000000
 ScaDFX=  1.000000  1.000000  1.000000  1.000000 ScalE2=  1.000000  1.000000
 IRadAn=      5 IRanWt=     -1 IRanGd=            0 ICorTp=0 IEmpDi=121
  HFx wShort=  0.000000 wLong=  0.200000 cFull=  0.222036 cShort=  0.000000 cLong=  0.777964
  DFx wShort=  0.000000 wLong=  0.200000 cFull=  0.000000 cShort=  0.000000 cLong=  1.000000
 NAtoms=   10 NActive=   10 NUniq=    4 SFac= 4.00D+00 NAtFMM=   60 NAOKFM=F Big=F
 Integral buffers will be    131072 words long.
 Raffenetti 2 integral format.
 Two-electron integral symmetry is turned on.
 R6Disp:  Grimme-D2 Dispersion energy=       -0.0031328046 Hartrees.
 Nuclear repulsion after empirical dispersion term =      113.6332170514 Hartrees.
 Leave Link  301 at Fri Jul  9 19:20:59 2021, MaxMem=  4194304000 cpu:         0.5
 (Enter /home/minenky/programs//g09/l302.exe)
 NPDir=0 NMtPBC=     1 NCelOv=     1 NCel=       1 NClECP=     1 NCelD=      1
         NCelK=      1 NCelE2=     1 NClLst=     1 CellRange=     0.0.
 One-electron integrals computed using PRISM.
 One-electron integral symmetry used in STVInt
   4 Symmetry operations used in ECPInt.
 ECPInt:  NShTT=    2346 NPrTT=    6892 LenC2=    2342 LenP2D=    6079.
 LDataN:  DoStor=T MaxTD1= 6 Len=  172
 NBasis=   160 RedAO= T EigKep=  4.78D-05  NBF=    53    27    27    53
 NBsUse=   160 1.00D-06 EigRej= -1.00D+00 NBFU=    53    27    27    53
 Precomputing XC quadrature grid using
 IXCGrd= 4 IRadAn=           5 IRanWt=          -1 IRanGd=           0 AccXCQ= 0.00D+00.
 Generated NRdTot=       0 NPtTot=           0 NUsed=           0 NTot=          32
 NSgBfM=   179   179   179   179   179 MxSgAt=    10 MxSgA2=    10.
 Leave Link  302 at Fri Jul  9 19:21:04 2021, MaxMem=  4194304000 cpu:        63.2
 (Enter /home/minenky/programs//g09/l303.exe)
 DipDrv:  MaxL=1.
 Leave Link  303 at Fri Jul  9 19:21:05 2021, MaxMem=  4194304000 cpu:         2.1
 (Enter /home/minenky/programs//g09/l401.exe)
 Initial guess from the checkpoint file:  "m1_00_822-35-50_C4H6_wB97XD.chk"
 B after Tr=     0.000000    0.000000    0.000000
         Rot=    1.000000    0.000000    0.000000    0.000000 Ang=   0.00 deg.
 Guess basis will be translated and rotated to current coordinates.
 JPrj=2 DoOrth=T DoCkMO=T.
 Initial guess orbital symmetries:
       Occupied  (A1) (B2) (A1) (B2) (A1) (A1) (B2) (B2) (A1) (B1)
                 (A1) (A2) (A1) (B2) (B1)
       Virtual   (A1) (A1) (A1) (A1) (A1) (A1) (A1) (A1) (A1) (A1)
                 (A1) (A1) (A1) (A1) (A1) (A1) (A1) (A1) (A1) (A1)
                 (A1) (A1) (A1) (A1) (A1) (A1) (A1) (A1) (A1) (A1)
                 (A1) (A1) (A1) (A1) (A1) (A1) (A1) (A1) (A1) (A1)
                 (A1) (A1) (A1) (A1) (A1) (A1) (A2) (A2) (A2) (A2)
                 (A2) (A2) (A2) (A2) (A2) (A2) (A2) (A2) (A2) (A2)
                 (A2) (A2) (A2) (A2) (A2) (A2) (A2) (A2) (A2) (A2)
                 (A2) (A2) (B1) (B1) (B1) (B1) (B1) (B1) (B1) (B1)
                 (B1) (B1) (B1) (B1) (B1) (B1) (B1) (B1) (B1) (B1)
                 (B1) (B1) (B1) (B1) (B1) (B1) (B1) (B2) (B2) (B2)
                 (B2) (B2) (B2) (B2) (B2) (B2) (B2) (B2) (B2) (B2)
                 (B2) (B2) (B2) (B2) (B2) (B2) (B2) (B2) (B2) (B2)
                 (B2) (B2) (B2) (B2) (B2) (B2) (B2) (B2) (B2) (B2)
                 (B2) (B2) (B2) (B2) (B2) (B2) (B2) (B2) (B2) (B2)
                 (B2) (B2) (B2) (B2) (B2)
 The electronic state of the initial guess is 1-A1.
 Leave Link  401 at Fri Jul  9 19:21:06 2021, MaxMem=  4194304000 cpu:        14.1
 (Enter /home/minenky/programs//g09/l502.exe)
 Closed shell SCF:
 Using DIIS extrapolation, IDIIS=  1040.
 Integral symmetry usage will be decided dynamically.
 Keep R1 ints in memory in symmetry-blocked form, NReq=208188314.
 IVT=      249930 IEndB=      249930 NGot=  4194304000 MDV=  4173024295
 LenX=  4173024295 LenY=  4172991454
 Requested convergence on RMS density matrix=1.00D-08 within 380 cycles.
 Requested convergence on MAX density matrix=1.00D-06.
 Requested convergence on             energy=1.00D-06.
 No special actions if energy rises.
 FoFCou: FMM=F IPFlag=           0 FMFlag=           0 FMFlg1=           0
         NFxFlg=           0 DoJE=F BraDBF=F KetDBF=F FulRan=T
         wScrn=  0.000000 ICntrl=     600 IOpCl=  0 I1Cent=           0 NGrid=           0
         NMat0=    1 NMatS0=  12880 NMatT0=    0 NMatD0=    1 NMtDS0=    0 NMtDT0=    0
 Petite list used in FoFCou.

 Cycle   1  Pass 1  IDiag  1:
 E= -155.977444017883    
 DIIS: error= 3.75D-04 at cycle   1 NSaved=   1.
 NSaved= 1 IEnMin= 1 EnMin= -155.977444017883     IErMin= 1 ErrMin= 3.75D-04
 ErrMax= 3.75D-04  0.00D+00 EMaxC= 1.00D-01 BMatC= 2.07D-05 BMatP= 2.07D-05
 IDIUse=3 WtCom= 9.96D-01 WtEn= 3.75D-03
 Coeff-Com:  0.100D+01
 Coeff-En:   0.100D+01
 Coeff:      0.100D+01
 Gap=     0.873 Goal=   None    Shift=    0.000
 RMSDP=5.97D-05 MaxDP=1.24D-03              OVMax= 1.14D-03

 Cycle   2  Pass 1  IDiag  1:
 E= -155.977458605091     Delta-E=       -0.000014587208 Rises=F Damp=F
 DIIS: error= 1.86D-04 at cycle   2 NSaved=   2.
 NSaved= 2 IEnMin= 2 EnMin= -155.977458605091     IErMin= 2 ErrMin= 1.86D-04
 ErrMax= 1.86D-04  0.00D+00 EMaxC= 1.00D-01 BMatC= 2.89D-06 BMatP= 2.07D-05
 IDIUse=3 WtCom= 9.98D-01 WtEn= 1.86D-03
 Coeff-Com:  0.180D+00 0.820D+00
 Coeff-En:   0.000D+00 0.100D+01
 Coeff:      0.180D+00 0.820D+00
 Gap=     0.418 Goal=   None    Shift=    0.000
 RMSDP=1.35D-05 MaxDP=1.82D-04 DE=-1.46D-05 OVMax= 6.22D-04

 Cycle   3  Pass 1  IDiag  1:
 E= -155.977460757975     Delta-E=       -0.000002152883 Rises=F Damp=F
 DIIS: error= 1.17D-04 at cycle   3 NSaved=   3.
 NSaved= 3 IEnMin= 3 EnMin= -155.977460757975     IErMin= 3 ErrMin= 1.17D-04
 ErrMax= 1.17D-04  0.00D+00 EMaxC= 1.00D-01 BMatC= 7.39D-07 BMatP= 2.89D-06
 IDIUse=3 WtCom= 9.99D-01 WtEn= 1.17D-03
 Coeff-Com: -0.372D-01 0.314D+00 0.723D+00
 Coeff-En:   0.000D+00 0.823D-01 0.918D+00
 Coeff:     -0.372D-01 0.314D+00 0.723D+00
 Gap=     0.418 Goal=   None    Shift=    0.000
 RMSDP=4.01D-06 MaxDP=5.64D-05 DE=-2.15D-06 OVMax= 2.07D-04

 Cycle   4  Pass 1  IDiag  1:
 E= -155.977461504347     Delta-E=       -0.000000746373 Rises=F Damp=F
 DIIS: error= 7.79D-06 at cycle   4 NSaved=   4.
 NSaved= 4 IEnMin= 4 EnMin= -155.977461504347     IErMin= 4 ErrMin= 7.79D-06
 ErrMax= 7.79D-06  0.00D+00 EMaxC= 1.00D-01 BMatC= 4.46D-09 BMatP= 7.39D-07
 IDIUse=1 WtCom= 1.00D+00 WtEn= 0.00D+00
 Coeff-Com: -0.264D-03-0.473D-01-0.404D-01 0.109D+01
 Coeff:     -0.264D-03-0.473D-01-0.404D-01 0.109D+01
 Gap=     0.418 Goal=   None    Shift=    0.000
 RMSDP=1.05D-06 MaxDP=1.36D-05 DE=-7.46D-07 OVMax= 4.13D-05

 Cycle   5  Pass 1  IDiag  1:
 E= -155.977461513349     Delta-E=       -0.000000009002 Rises=F Damp=F
 DIIS: error= 2.55D-06 at cycle   5 NSaved=   5.
 NSaved= 5 IEnMin= 5 EnMin= -155.977461513349     IErMin= 5 ErrMin= 2.55D-06
 ErrMax= 2.55D-06  0.00D+00 EMaxC= 1.00D-01 BMatC= 8.23D-10 BMatP= 4.46D-09
 IDIUse=1 WtCom= 1.00D+00 WtEn= 0.00D+00
 Coeff-Com:  0.154D-02-0.310D-01-0.477D-01 0.382D+00 0.695D+00
 Coeff:      0.154D-02-0.310D-01-0.477D-01 0.382D+00 0.695D+00
 Gap=     0.418 Goal=   None    Shift=    0.000
 RMSDP=2.72D-07 MaxDP=4.18D-06 DE=-9.00D-09 OVMax= 1.03D-05

 Cycle   6  Pass 1  IDiag  1:
 E= -155.977461514282     Delta-E=       -0.000000000933 Rises=F Damp=F
 DIIS: error= 8.07D-07 at cycle   6 NSaved=   6.
 NSaved= 6 IEnMin= 6 EnMin= -155.977461514282     IErMin= 6 ErrMin= 8.07D-07
 ErrMax= 8.07D-07  0.00D+00 EMaxC= 1.00D-01 BMatC= 4.08D-11 BMatP= 8.23D-10
 IDIUse=1 WtCom= 1.00D+00 WtEn= 0.00D+00
 Coeff-Com:  0.316D-03-0.102D-03-0.495D-02-0.552D-01 0.114D+00 0.946D+00
 Coeff:      0.316D-03-0.102D-03-0.495D-02-0.552D-01 0.114D+00 0.946D+00
 Gap=     0.418 Goal=   None    Shift=    0.000
 RMSDP=1.32D-07 MaxDP=2.22D-06 DE=-9.33D-10 OVMax= 4.71D-06

 Cycle   7  Pass 1  IDiag  1:
 E= -155.977461514360     Delta-E=       -0.000000000078 Rises=F Damp=F
 DIIS: error= 1.66D-07 at cycle   7 NSaved=   7.
 NSaved= 7 IEnMin= 7 EnMin= -155.977461514360     IErMin= 7 ErrMin= 1.66D-07
 ErrMax= 1.66D-07  0.00D+00 EMaxC= 1.00D-01 BMatC= 1.45D-12 BMatP= 4.08D-11
 IDIUse=1 WtCom= 1.00D+00 WtEn= 0.00D+00
 Coeff-Com: -0.702D-04 0.196D-02 0.256D-02-0.275D-01-0.337D-01 0.928D-01
 Coeff-Com:  0.964D+00
 Coeff:     -0.702D-04 0.196D-02 0.256D-02-0.275D-01-0.337D-01 0.928D-01
 Coeff:      0.964D+00
 Gap=     0.418 Goal=   None    Shift=    0.000
 RMSDP=3.18D-08 MaxDP=4.66D-07 DE=-7.78D-11 OVMax= 1.10D-06

 Cycle   8  Pass 1  IDiag  1:
 E= -155.977461514369     Delta-E=       -0.000000000009 Rises=F Damp=F
 DIIS: error= 3.10D-08 at cycle   8 NSaved=   8.
 NSaved= 8 IEnMin= 8 EnMin= -155.977461514369     IErMin= 8 ErrMin= 3.10D-08
 ErrMax= 3.10D-08  0.00D+00 EMaxC= 1.00D-01 BMatC= 3.68D-14 BMatP= 1.45D-12
 IDIUse=1 WtCom= 1.00D+00 WtEn= 0.00D+00
 Coeff-Com: -0.217D-05-0.189D-03-0.199D-04 0.478D-02-0.308D-02-0.475D-01
 Coeff-Com: -0.671D-01 0.111D+01
 Coeff:     -0.217D-05-0.189D-03-0.199D-04 0.478D-02-0.308D-02-0.475D-01
 Coeff:     -0.671D-01 0.111D+01
 Gap=     0.418 Goal=   None    Shift=    0.000
 RMSDP=6.72D-09 MaxDP=9.59D-08 DE=-8.53D-12 OVMax= 2.75D-07

 SCF Done:  E(RwB97XD) =  -155.977461514     A.U. after    8 cycles
            NFock=  8  Conv=0.67D-08     -V/T= 2.0053
 KE= 1.551480694972D+02 PE=-5.886032155415D+02 EE= 1.638444674785D+02
 Leave Link  502 at Fri Jul  9 19:21:15 2021, MaxMem=  4194304000 cpu:       131.0
 (Enter /home/minenky/programs//g09/l701.exe)
 Compute integral first derivatives.
 ... and contract with generalized density number  0.
 R6Disp: Adding Grimme-D2 dispersion energy 1st derivatives to the gradient.
   4 Symmetry operations used in ECPInt.
 ECPInt:  NShTT=    2346 NPrTT=    6892 LenC2=    2342 LenP2D=    6079.
 LDataN:  DoStor=T MaxTD1= 7 Len=  274
 Leave Link  701 at Fri Jul  9 19:21:17 2021, MaxMem=  4194304000 cpu:        24.4
 (Enter /home/minenky/programs//g09/l702.exe)
 L702 exits ... SP integral derivatives will be done elsewhere.
 Leave Link  702 at Fri Jul  9 19:21:17 2021, MaxMem=  4194304000 cpu:         0.1
 (Enter /home/minenky/programs//g09/l703.exe)
 Compute integral first derivatives, UseDBF=F ICtDFT=           0.
 Integral derivatives from FoFJK, PRISM(SPDF).
 Calling FoFJK, ICntrl=      2127 FMM=F ISym2X=1 I1Cent= 0 IOpClX= 0 NMat=1 NMatS=1 NMatT=0.
 FoFJK:  IHMeth= 1 ICntrl=    2127 DoSepK=T KAlg= 0 I1Cent=   0 FoldK=F
 IRaf=         1 NMat=   1 IRICut=       1 DoRegI=T DoRafI=F ISym2E= 1.
 FoFCou: FMM=F IPFlag=           0 FMFlag=      100000 FMFlg1=         800
         NFxFlg=           0 DoJE=F BraDBF=F KetDBF=F FulRan=T
         wScrn=  0.000000 ICntrl=    2527 IOpCl=  0 I1Cent=           0 NGrid=           0
         NMat0=    1 NMatS0=      1 NMatT0=    0 NMatD0=    1 NMtDS0=    0 NMtDT0=    0
 Petite list used in FoFCou.
 Leave Link  703 at Fri Jul  9 19:21:21 2021, MaxMem=  4194304000 cpu:        44.7
 (Enter /home/minenky/programs//g09/l716.exe)
 Dipole        =-4.44089210D-16 0.00000000D+00-5.70658087D-02
 ***** Axes restored to original set *****
 -------------------------------------------------------------------
 Center     Atomic                   Forces (Hartrees/Bohr)
 Number     Number              X              Y              Z
 -------------------------------------------------------------------
      1        6           0.000000000    0.000613279    0.000022681
      2        6           0.000000000   -0.000613279    0.000022681
      3        1           0.000000000    0.000042281    0.000047281
      4        1           0.000000000   -0.000042281    0.000047281
      5        6           0.000000000   -0.000344128   -0.000021809
      6        6           0.000000000    0.000344128   -0.000021809
      7        1          -0.000001504    0.000089262   -0.000024076
      8        1           0.000001504   -0.000089262   -0.000024076
      9        1           0.000001504    0.000089262   -0.000024076
     10        1          -0.000001504   -0.000089262   -0.000024076
 -------------------------------------------------------------------
 Cartesian Forces:  Max     0.000613279 RMS     0.000185589
 Leave Link  716 at Fri Jul  9 19:21:21 2021, MaxMem=  4194304000 cpu:         0.1
 (Enter /home/minenky/programs//g09/l103.exe)

 GradGradGradGradGradGradGradGradGradGradGradGradGradGradGradGradGradGrad
 Berny optimization.
 Using GEDIIS/GDIIS optimizer.
 FormGI is forming the generalized inverse of G from B-inverse, IUseBI=4.
 Internal  Forces:  Max     0.000527168 RMS     0.000085585
 Search for a local minimum.
 Step number   2 out of a maximum of   63
 All quantities printed in internal units (Hartrees-Bohrs-Radians)
 RMS Force = .85585D-04 SwitMx=.10000D-02 MixMth= 2
 Mixed Optimization -- En-DIIS/RFO-DIIS
 Swapping is turned off.
 Update second derivatives using D2CorX and points    1    2
 DE= -6.03D-05 DEPred=-6.27D-05 R= 9.62D-01
 TightC=F SS=  1.41D+00  RLast= 2.03D-02 DXNew= 5.0454D-01 6.0931D-02
 Trust test= 9.62D-01 RLast= 2.03D-02 DXMaxT set to 3.00D-01
 ITU=  1  0
     Eigenvalues ---    0.00608   0.01160   0.01768   0.03868   0.04868
     Eigenvalues ---    0.04887   0.05622   0.07217   0.07316   0.07785
     Eigenvalues ---    0.07901   0.15999   0.16000   0.21638   0.24292
     Eigenvalues ---    0.28114   0.30894   0.34572   0.34572   0.34572
     Eigenvalues ---    0.34655   0.35702   0.35715   0.57180
 En-DIIS/RFO-DIIS IScMMF=        0 using points:     2    1
 RFO step:  Lambda=-5.95248772D-07.
 NNeg= 0 NP= 2 Switch=  2.50D-03 Rises=F DC=  6.03D-05 SmlDif=  1.00D-05
 RMS Error=  0.1411758038D-03 NUsed= 2 EDIIS=F
 DidBck=F Rises=F RFO-DIIS coefs:    0.95996    0.04004
 Iteration  1 RMS(Cart)=  0.00027498 RMS(Int)=  0.00000011
 Iteration  2 RMS(Cart)=  0.00000008 RMS(Int)=  0.00000008
 ITry= 1 IFail=0 DXMaxC= 7.46D-04 DCOld= 1.00D+10 DXMaxT= 3.00D-01 DXLimC= 3.00D+00 Rises=F
 ClnCor:  largest displacement from symmetrization is 2.95D-11 for atom    10.
 Variable       Old X    -DE/DX   Delta X   Delta X   Delta X     New X
                                 (Linear)    (Quad)   (Total)
    R1        2.51453   0.00053   0.00034   0.00059   0.00092   2.51545
    R2        2.04552   0.00006   0.00000   0.00017   0.00017   2.04569
    R3        2.85634   0.00006   0.00029  -0.00014   0.00015   2.85650
    R4        2.04552   0.00006   0.00000   0.00017   0.00017   2.04569
    R5        2.85634   0.00006   0.00029  -0.00014   0.00015   2.85650
    R6        2.95270  -0.00004   0.00052  -0.00100  -0.00048   2.95222
    R7        2.06282   0.00005   0.00004   0.00009   0.00013   2.06295
    R8        2.06282   0.00005   0.00004   0.00009   0.00013   2.06295
    R9        2.06282   0.00005   0.00004   0.00009   0.00013   2.06295
   R10        2.06282   0.00005   0.00004   0.00009   0.00013   2.06295
    A1        2.32903   0.00005   0.00000   0.00011   0.00011   2.32914
    A2        1.64757  -0.00010   0.00003  -0.00028  -0.00025   1.64732
    A3        2.30659   0.00005  -0.00002   0.00016   0.00014   2.30672
    A4        2.32903   0.00005   0.00000   0.00011   0.00011   2.32914
    A5        1.64757  -0.00010   0.00003  -0.00028  -0.00025   1.64732
    A6        2.30659   0.00005  -0.00002   0.00016   0.00014   2.30672
    A7        1.49402   0.00010  -0.00003   0.00028   0.00025   1.49427
    A8        2.02079  -0.00003   0.00006  -0.00026  -0.00021   2.02058
    A9        2.02079  -0.00003   0.00006  -0.00026  -0.00021   2.02058
   A10        2.00247   0.00001   0.00003   0.00045   0.00048   2.00296
   A11        2.00247   0.00001   0.00003   0.00045   0.00048   2.00296
[...]
               16            17            18            19            20 
     16  0.587840D+00
     17  0.000000D+00  0.458716D+00
     18  0.000000D+00  0.125278D+00  0.475793D+00
     19  0.179324D-02 -0.232587D-02  0.224791D-02  0.242713D+00
     20  0.234218D-01 -0.810372D-02  0.108791D-01 -0.975609D-01  0.962936D-01
     21  0.507193D-02 -0.191655D-02  0.649041D-03  0.945367D-01 -0.501704D-01
     22 -0.228112D+00  0.902215D-01  0.849512D-01  0.221154D-03 -0.125888D-03
     23  0.892596D-01 -0.911374D-01 -0.412655D-01 -0.125888D-03 -0.226401D-02
     24  0.878429D-01 -0.425981D-01 -0.870927D-01 -0.162093D-03  0.149460D-02
     25  0.179324D-02  0.232587D-02 -0.224791D-02 -0.209875D-01 -0.112165D-01
     26 -0.234218D-01 -0.810372D-02  0.108791D-01  0.112165D-01  0.621722D-02
     27 -0.507193D-02 -0.191655D-02  0.649041D-03 -0.105719D-01 -0.563835D-02
     28 -0.228112D+00 -0.902215D-01 -0.849512D-01  0.634869D-03 -0.183220D-03
     29 -0.892596D-01 -0.911374D-01 -0.412655D-01  0.183220D-03  0.694845D-03
     30 -0.878429D-01 -0.425981D-01 -0.870927D-01 -0.201353D-03 -0.716199D-03
               21            22            23            24            25 
     21  0.935784D-01
     22  0.162093D-03  0.242713D+00
     23 -0.149460D-02 -0.975609D-01  0.962936D-01
     24  0.511059D-03 -0.945367D-01  0.501704D-01  0.935784D-01
     25  0.105719D-01  0.634869D-03 -0.183220D-03  0.201353D-03  0.242713D+00
     26 -0.563835D-02  0.183220D-03  0.694845D-03 -0.716199D-03  0.975609D-01
     27  0.608314D-02  0.201353D-03  0.716199D-03  0.628541D-03 -0.945367D-01
     28 -0.201353D-03 -0.209875D-01 -0.112165D-01 -0.105719D-01  0.221154D-03
     29  0.716199D-03  0.112165D-01  0.621722D-02  0.563835D-02  0.125888D-03
     30  0.628541D-03  0.105719D-01  0.563835D-02  0.608314D-02  0.162093D-03
               26            27            28            29            30 
     26  0.962936D-01
     27 -0.501704D-01  0.935784D-01
     28  0.125888D-03 -0.162093D-03  0.242713D+00
     29 -0.226401D-02 -0.149460D-02  0.975609D-01  0.962936D-01
     30  0.149460D-02  0.511059D-03  0.945367D-01  0.501704D-01  0.935784D-01
 FormGI is forming the generalized inverse of G from B-inverse, IUseBI=4.
 Leave Link  716 at Fri Jul  9 19:24:24 2021, MaxMem=  4194304000 cpu:        16.3
 (Enter /home/minenky/programs//g09/l103.exe)

 GradGradGradGradGradGradGradGradGradGradGradGradGradGradGradGradGradGrad
 Berny optimization.
 Red2BG is reusing G-inverse.
 Internal  Forces:  Max     0.000012556 RMS     0.000002378
 Search for a local minimum.
 Step number   1 out of a maximum of    2
 All quantities printed in internal units (Hartrees-Bohrs-Radians)
 Second derivative matrix not updated -- analytic derivatives used.
 ITU=  0
     Eigenvalues ---    0.00489   0.01030   0.01086   0.03124   0.04125
     Eigenvalues ---    0.04668   0.04797   0.05493   0.05518   0.07555
     Eigenvalues ---    0.08124   0.09539   0.09665   0.19168   0.21143
     Eigenvalues ---    0.26541   0.28854   0.33472   0.33626   0.34351
     Eigenvalues ---    0.34465   0.36286   0.36707   0.54822
 Angle between quadratic step and forces=  49.94 degrees.
 Linear search not attempted -- first point.
 Iteration  1 RMS(Cart)=  0.00001751 RMS(Int)=  0.00000000
 Iteration  2 RMS(Cart)=  0.00000000 RMS(Int)=  0.00000000
 ITry= 1 IFail=0 DXMaxC= 4.50D-05 DCOld= 1.00D+10 DXMaxT= 3.00D-01 DXLimC= 3.00D+00 Rises=F
 ClnCor:  largest displacement from symmetrization is 1.52D-08 for atom    10.
 Variable       Old X    -DE/DX   Delta X   Delta X   Delta X     New X
                                 (Linear)    (Quad)   (Total)
    R1        2.51561  -0.00001   0.00000  -0.00002  -0.00002   2.51559
    R2        2.04568   0.00000   0.00000  -0.00001  -0.00001   2.04567
    R3        2.85658   0.00000   0.00000  -0.00001  -0.00001   2.85656
    R4        2.04568   0.00000   0.00000  -0.00001  -0.00001   2.04567
    R5        2.85658   0.00000   0.00000  -0.00001  -0.00001   2.85656
    R6        2.95172   0.00000   0.00000  -0.00002  -0.00002   2.95170
    R7        2.06300   0.00000   0.00000   0.00000   0.00000   2.06301
    R8        2.06300   0.00000   0.00000   0.00000   0.00000   2.06301
    R9        2.06300   0.00000   0.00000   0.00000   0.00000   2.06301
   R10        2.06300   0.00000   0.00000   0.00000   0.00000   2.06301
    A1        2.32916   0.00000   0.00000  -0.00002  -0.00002   2.32914
    A2        1.64720   0.00000   0.00000   0.00000   0.00000   1.64721
    A3        2.30682   0.00000   0.00000   0.00002   0.00002   2.30684
    A4        2.32916   0.00000   0.00000  -0.00002  -0.00002   2.32914
    A5        1.64720   0.00000   0.00000   0.00000   0.00000   1.64721
    A6        2.30682   0.00000   0.00000   0.00002   0.00002   2.30684
    A7        1.49439   0.00000   0.00000   0.00000   0.00000   1.49439
    A8        2.02060   0.00000   0.00000   0.00001   0.00001   2.02061
    A9        2.02060   0.00000   0.00000   0.00001   0.00001   2.02061
   A10        2.00311   0.00000   0.00000   0.00003   0.00003   2.00314
   A11        2.00311   0.00000   0.00000   0.00003   0.00003   2.00314
   A12        1.89919   0.00000   0.00000  -0.00005  -0.00005   1.89913
   A13        1.49439   0.00000   0.00000   0.00000   0.00000   1.49439
   A14        2.02060   0.00000   0.00000   0.00001   0.00001   2.02061
   A15        2.02060   0.00000   0.00000   0.00001   0.00001   2.02061
   A16        2.00311   0.00000   0.00000   0.00003   0.00003   2.00314
   A17        2.00311   0.00000   0.00000   0.00003   0.00003   2.00314
   A18        1.89919   0.00000   0.00000  -0.00005  -0.00005   1.89913
    D1        0.00000   0.00000   0.00000   0.00000   0.00000   0.00000
    D2        3.14159   0.00000   0.00000   0.00000   0.00000   3.14159
    D3        3.14159   0.00000   0.00000   0.00000   0.00000   3.14159
    D4        0.00000   0.00000   0.00000   0.00000   0.00000   0.00000
    D5        0.00000   0.00000   0.00000   0.00000   0.00000   0.00000
    D6        2.01490   0.00000   0.00000   0.00003   0.00003   2.01493
    D7       -2.01490   0.00000   0.00000  -0.00003  -0.00003  -2.01493
    D8        3.14159   0.00000   0.00000   0.00000   0.00000   3.14159
    D9       -1.12670   0.00000   0.00000   0.00003   0.00003  -1.12666
   D10        1.12670   0.00000   0.00000  -0.00003  -0.00003   1.12666
   D11        0.00000   0.00000   0.00000   0.00000   0.00000   0.00000
   D12        2.01490   0.00000   0.00000   0.00003   0.00003   2.01493
   D13       -2.01490   0.00000   0.00000  -0.00003  -0.00003  -2.01493
   D14        3.14159   0.00000   0.00000   0.00000   0.00000   3.14159
   D15       -1.12670   0.00000   0.00000   0.00003   0.00003  -1.12666
   D16        1.12670   0.00000   0.00000  -0.00003  -0.00003   1.12666
   D17        0.00000   0.00000   0.00000   0.00000   0.00000   0.00000
   D18       -2.03188   0.00000   0.00000  -0.00001  -0.00001  -2.03189
   D19        2.03188   0.00000   0.00000   0.00001   0.00001   2.03189
   D20       -2.03188   0.00000   0.00000  -0.00001  -0.00001  -2.03189
   D21        2.21943   0.00000   0.00000  -0.00002  -0.00002   2.21941
   D22        0.00000   0.00000   0.00000   0.00000   0.00000   0.00000
   D23        2.03188   0.00000   0.00000   0.00001   0.00001   2.03189
   D24        0.00000   0.00000   0.00000   0.00000   0.00000   0.00000
   D25       -2.21943   0.00000   0.00000   0.00002   0.00002  -2.21941
         Item               Value     Threshold  Converged?
 Maximum Force            0.000013     0.000015     YES
 RMS     Force            0.000002     0.000010     YES
 Maximum Displacement     0.000045     0.000060     YES
 RMS     Displacement     0.000018     0.000040     YES
 Predicted change in Energy=-8.193683D-10
 Optimization completed.
    -- Stationary point found.
                           ----------------------------
                           !   Optimized Parameters   !
                           ! (Angstroms and Degrees)  !
 --------------------------                            --------------------------
 ! Name  Definition              Value          Derivative Info.                !
 --------------------------------------------------------------------------------
 ! R1    R(1,2)                  1.3312         -DE/DX =    0.0                 !
 ! R2    R(1,3)                  1.0825         -DE/DX =    0.0                 !
 ! R3    R(1,5)                  1.5116         -DE/DX =    0.0                 !
 ! R4    R(2,4)                  1.0825         -DE/DX =    0.0                 !
 ! R5    R(2,6)                  1.5116         -DE/DX =    0.0                 !
 ! R6    R(5,6)                  1.562          -DE/DX =    0.0                 !
 ! R7    R(5,7)                  1.0917         -DE/DX =    0.0                 !
 ! R8    R(5,9)                  1.0917         -DE/DX =    0.0                 !
 ! R9    R(6,8)                  1.0917         -DE/DX =    0.0                 !
 ! R10   R(6,10)                 1.0917         -DE/DX =    0.0                 !
 ! A1    A(2,1,3)              133.4511         -DE/DX =    0.0                 !
 ! A2    A(2,1,5)               94.3779         -DE/DX =    0.0                 !
 ! A3    A(3,1,5)              132.171          -DE/DX =    0.0                 !
 ! A4    A(1,2,4)              133.4511         -DE/DX =    0.0                 !
 ! A5    A(1,2,6)               94.3779         -DE/DX =    0.0                 !
 ! A6    A(4,2,6)              132.171          -DE/DX =    0.0                 !
 ! A7    A(1,5,6)               85.6221         -DE/DX =    0.0                 !
 ! A8    A(1,5,7)              115.7717         -DE/DX =    0.0                 !
 ! A9    A(1,5,9)              115.7717         -DE/DX =    0.0                 !
 ! A10   A(6,5,7)              114.7697         -DE/DX =    0.0                 !
 ! A11   A(6,5,9)              114.7697         -DE/DX =    0.0                 !
 ! A12   A(7,5,9)              108.8154         -DE/DX =    0.0                 !
 ! A13   A(2,6,5)               85.6221         -DE/DX =    0.0                 !
 ! A14   A(2,6,8)              115.7717         -DE/DX =    0.0                 !
 ! A15   A(2,6,10)             115.7717         -DE/DX =    0.0                 !
 ! A16   A(5,6,8)              114.7697         -DE/DX =    0.0                 !
 ! A17   A(5,6,10)             114.7697         -DE/DX =    0.0                 !
 ! A18   A(8,6,10)             108.8154         -DE/DX =    0.0                 !
 ! D1    D(3,1,2,4)              0.0            -DE/DX =    0.0                 !
 ! D2    D(3,1,2,6)            180.0            -DE/DX =    0.0                 !
 ! D3    D(5,1,2,4)            180.0            -DE/DX =    0.0                 !
 ! D4    D(5,1,2,6)              0.0            -DE/DX =    0.0                 !
 ! D5    D(2,1,5,6)              0.0            -DE/DX =    0.0                 !
 ! D6    D(2,1,5,7)            115.4451         -DE/DX =    0.0                 !
 ! D7    D(2,1,5,9)           -115.4451         -DE/DX =    0.0                 !
 ! D8    D(3,1,5,6)            180.0            -DE/DX =    0.0                 !
 ! D9    D(3,1,5,7)            -64.5549         -DE/DX =    0.0                 !
 ! D10   D(3,1,5,9)             64.5549         -DE/DX =    0.0                 !
 ! D11   D(1,2,6,5)              0.0            -DE/DX =    0.0                 !
 ! D12   D(1,2,6,8)            115.4451         -DE/DX =    0.0                 !
 ! D13   D(1,2,6,10)          -115.4451         -DE/DX =    0.0                 !
 ! D14   D(4,2,6,5)            180.0            -DE/DX =    0.0                 !
 ! D15   D(4,2,6,8)            -64.5549         -DE/DX =    0.0                 !
 ! D16   D(4,2,6,10)            64.5549         -DE/DX =    0.0                 !
 ! D17   D(1,5,6,2)              0.0            -DE/DX =    0.0                 !
 ! D18   D(1,5,6,8)           -116.418          -DE/DX =    0.0                 !
 ! D19   D(1,5,6,10)           116.418          -DE/DX =    0.0                 !
 ! D20   D(7,5,6,2)           -116.418          -DE/DX =    0.0                 !
 ! D21   D(7,5,6,8)            127.1641         -DE/DX =    0.0                 !
 ! D22   D(7,5,6,10)             0.0            -DE/DX =    0.0                 !
 ! D23   D(9,5,6,2)            116.418          -DE/DX =    0.0                 !
 ! D24   D(9,5,6,8)              0.0            -DE/DX =    0.0                 !
 ! D25   D(9,5,6,10)          -127.1641         -DE/DX =    0.0                 !
 --------------------------------------------------------------------------------
 GradGradGradGradGradGradGradGradGradGradGradGradGradGradGradGradGradGrad

 Leave Link  103 at Fri Jul  9 19:24:27 2021, MaxMem=  4194304000 cpu:        29.2
 (Enter /home/minenky/programs//g09/l9999.exe)
 1\1\GINC-CN514-06-R\Freq\RwB97XD\def2TZVP\C4H6\MINENKY\09-Jul-2021\0\\
 #P Geom=AllCheck Guess=TCheck SCRF=Check GenChk RwB97XD/def2TZVP Freq\
 \The PBEPBE optimization and frequencies\\0,1\C,0.,0.665601385,0.80967
 69505\C,0.,-0.665601385,0.8096769505\H,0.,1.4100934008,1.5955502089\H,
 0.,-1.4100934008,1.5955502089\C,0.,0.7809907295,-0.6975477267\C,0.,-0.
 7809907295,-0.6975477267\H,-0.8877428855,1.2383791255,-1.1385742179\H,
 0.8877428855,-1.2383791255,-1.1385742179\H,0.8877428855,1.2383791255,-
 1.1385742179\H,-0.8877428855,-1.2383791255,-1.1385742179\\Version=AM64
 L-G09RevD.01\State=1-A1\HF=-155.9774622\RMSD=1.490e-09\RMSF=4.294e-06\
 ZeroPoint=0.0871469\Thermal=0.0909484\Dipole=0.,0.,-0.0571438\DipoleDe
 riv=-0.2619676,0.,0.,0.,0.0550891,-0.033557,0.,0.1209016,0.0564897,-0.
 2619676,0.,0.,0.,0.0550892,0.033557,0.,-0.1209016,0.0564897,0.1799365,
 0.,0.,0.,0.0113481,-0.0820128,0.,-0.1086993,-0.070182,0.1799365,0.,0.,
 0.,0.0113481,0.0820128,0.,0.1086993,-0.070182,0.2122634,0.,0.,0.,-0.07
 85908,-0.0719206,0.,-0.0272326,0.0402228,0.2122634,0.,0.,0.,-0.0785908
 ,0.0719206,0.,0.0272326,0.0402228,-0.0651161,0.0956571,-0.0910615,0.05
 26612,0.0060767,0.0550105,-0.0511166,0.0859435,-0.0132652,-0.0651161,0
 .0956571,0.0910615,0.0526613,0.0060768,-0.0550106,0.0511166,-0.0859435
 ,-0.0132652,-0.0651161,-0.0956571,0.0910615,-0.0526613,0.0060767,0.055
 0105,0.0511166,0.0859435,-0.0132652,-0.0651161,-0.0956571,-0.0910615,-
 0.0526613,0.0060767,-0.0550106,-0.0511166,-0.0859435,-0.0132652\Polar=
 34.9412936,0.,51.576911,0.,0.,46.1893826\PG=C02V [SGV(C4H2),X(H4)]\NIm
 ag=0\\0.14131092,0.,0.86812398,0.,0.15139925,0.56640281,-0.05943912,0.
 ,0.,0.14131092,0.,-0.56349738,0.01263612,0.,0.86812398,0.,-0.01263612,
 -0.07427017,0.,-0.15139925,0.56640281,-0.03970795,0.,0.,0.00722509,0.,
 0.,0.02298428,0.,-0.19674577,-0.13673840,0.,-0.00253426,-0.02211088,0.
 ,0.19717135,0.,-0.14216585,-0.21247180,0.,0.00367506,0.00425356,0.,0.1
 5810984,0.21124886,0.00722509,0.,0.,-0.03970795,0.,0.,-0.00421781,0.,0
 .,0.02298428,0.,-0.00253426,0.02211088,0.,-0.19674577,0.13673840,0.,0.
 00024803,-0.00037589,0.,0.19717135,0.,-0.00367506,0.00425356,0.,0.1421
 6585,-0.21247180,0.,0.00037589,0.00050437,0.,-0.15810984,0.21124886,-0
 .07180035,0.,0.,0.01320000,0.,0.,-0.00000469,0.,0.,0.01545839,0.,0.,0.
 58783983,0.,-0.04871919,-0.00580162,0.,-0.05309602,0.04599727,0.,0.005
 53590,-0.01484904,0.,-0.00380554,0.00232866,0.,0.45871643,0.,0.0231764
 8,-0.20691844,0.,0.04444203,-0.04866656,0.,0.00412628,-0.00058844,0.,0
 .00133474,-0.00256106,0.,-0.12527847,0.47579271,0.01320000,0.,0.,-0.07
 180035,0.,0.,0.01545839,0.,0.,-0.00000469,0.,0.,-0.09205626,0.,0.,0.58
 783983,0.,-0.05309602,-0.04599727,0.,-0.04871919,0.00580162,0.,-0.0038
 0554,-0.00232866,0.,0.00553590,0.01484904,0.,-0.16014930,-0.00857384,0
 .,0.45871643,0.,-0.04444203,-0.04866656,0.,-0.02317648,-0.20691844,0.,
 -0.00133474,-0.00256106,0.,-0.00412628,-0.00058844,0.,0.00857384,-0.04
 417081,0.,0.12527847,0.47579271,0.00342268,-0.00085595,0.00001923,0.00
 118303,-0.00088128,-0.00072649,-0.00015235,0.00030472,-0.00047760,-0.0
 0071630,-0.00017596,0.00028685,-0.22811170,0.09022146,-0.08495124,0.00
 179324,-0.00232587,0.00224791,0.24271292,-0.00284399,0.00020361,0.0015
 1895,0.00075143,-0.00196929,0.00032343,0.00022529,0.00006648,0.0000053
 5,-0.00172762,-0.00000133,0.00103808,0.08925965,-0.09113743,0.04126547
 ,0.02342177,-0.00810372,0.01087908,-0.09756093,0.09629363,-0.02541686,
 0.01465111,-0.00978538,0.00027285,0.00047944,-0.00437932,0.00037304,-0
 .00021948,-0.00021059,0.00247250,0.00099451,0.00001784,-0.08784285,0.0
 4259813,-0.08709274,0.00507193,-0.00191655,0.00064904,0.09453673,-0.05
 017041,0.09357839,0.00118303,-0.00088128,0.00072649,0.00342268,-0.0008
 5595,-0.00001923,-0.00071630,-0.00017596,-0.00028685,-0.00015235,0.000
 30472,0.00047760,0.00179324,-0.00232587,-0.00224791,-0.22811170,0.0902
 2146,0.08495124,0.00022115,-0.00012589,0.00016209,0.24271292,0.0007514
 3,-0.00196929,-0.00032343,-0.00284399,0.00020361,-0.00151895,-0.001727
 62,-0.00000133,-0.00103808,0.00022529,0.00006648,-0.00000535,0.0234217
 7,-0.00810372,-0.01087908,0.08925965,-0.09113743,-0.04126547,-0.000125
 89,-0.00226401,-0.00149460,-0.09756093,0.09629363,-0.00027285,-0.00047
 944,-0.00437932,0.02541686,-0.01465111,-0.00978538,-0.00247250,-0.0009
 9451,0.00001784,-0.00037304,0.00021948,-0.00021059,-0.00507193,0.00191
 655,0.00064904,0.08784285,-0.04259813,-0.08709274,-0.00016209,0.001494
 60,0.00051106,-0.09453673,0.05017041,0.09357839,0.00342268,0.00085595,
 -0.00001923,0.00118303,0.00088128,0.00072649,-0.00015236,-0.00030472,0
 .00047760,-0.00071630,0.00017596,-0.00028684,-0.22811170,-0.09022146,0
 .08495124,0.00179324,0.00232587,-0.00224791,-0.02098753,-0.01121649,0.
 01057193,0.00063487,-0.00018322,0.00020135,0.24271292,0.00284399,0.000
 20361,0.00151895,-0.00075143,-0.00196929,0.00032343,-0.00022529,0.0000
 6648,0.00000535,0.00172762,-0.00000133,0.00103808,-0.08925965,-0.09113
 743,0.04126547,-0.02342178,-0.00810372,0.01087908,0.01121649,0.0062172
 2,-0.00563835,0.00018322,0.00069484,-0.00071620,0.09756093,0.09629363,
 0.02541686,0.01465111,-0.00978538,-0.00027285,0.00047944,-0.00437932,-
 0.00037304,-0.00021948,-0.00021059,-0.00247250,0.00099451,0.00001784,0
 .08784286,0.04259813,-0.08709274,-0.00507193,-0.00191655,0.00064904,-0
 .01057193,-0.00563835,0.00608314,0.00020135,0.00071620,0.00062854,-0.0
 9453673,-0.05017041,0.09357839,0.00118303,0.00088128,-0.00072649,0.003
 42268,0.00085595,0.00001923,-0.00071630,0.00017596,0.00028684,-0.00015
 236,-0.00030472,-0.00047760,0.00179324,0.00232587,0.00224791,-0.228111
 70,-0.09022146,-0.08495124,0.00063487,-0.00018322,-0.00020135,-0.02098
 753,-0.01121649,-0.01057193,0.00022115,0.00012589,-0.00016209,0.242712
 92,-0.00075143,-0.00196929,-0.00032343,0.00284399,0.00020361,-0.001518
 95,0.00172762,-0.00000133,-0.00103808,-0.00022529,0.00006648,-0.000005
 35,-0.02342178,-0.00810372,-0.01087908,-0.08925965,-0.09113743,-0.0412
 6547,0.00018322,0.00069484,0.00071620,0.01121649,0.00621722,0.00563835
 ,0.00012589,-0.00226401,-0.00149460,0.09756093,0.09629363,0.00027285,-
 0.00047944,-0.00437932,-0.02541686,-0.01465111,-0.00978538,0.00247250,
 -0.00099451,0.00001784,0.00037304,0.00021948,-0.00021059,0.00507193,0.
 00191655,0.00064904,-0.08784286,-0.04259813,-0.08709274,-0.00020135,-0
 .00071620,0.00062854,0.01057193,0.00563835,0.00608314,0.00016209,0.001
 49460,0.00051106,0.09453673,0.05017041,0.09357839\\0.,0.00000925,0.000
 00295,0.,-0.00000925,0.00000295,0.,0.00000323,0.00000077,0.,-0.0000032
 3,0.00000077,0.,0.00000963,-0.00000649,0.,-0.00000963,-0.00000649,-0.0
 0000212,-0.00000343,0.00000138,0.00000212,0.00000343,0.00000138,0.0000
 0212,-0.00000343,0.00000138,-0.00000212,0.00000343,0.00000138\\\@


 MISERY NO LONGER LOVES COMPANY.  NOWADAYS IT INSISTS ON IT.

                                              -- BAKER'S LAW
 Job cpu time:       0 days  0 hours 19 minutes 45.3 seconds.
 File lengths (MBytes):  RWF=     18 Int=      0 D2E=      0 Chk=      3 Scr=      1
 Normal termination of Gaussian 09 at Fri Jul  9 19:24:27 2021.
