 Entering Gaussian System, Link 0=g09
 Initial command:
 /home/minenky/programs//g09/l1.exe "/local/scratch/minenky/m1_00_78-78-40_C5H12_wB97XD/Gau-48878.inp" -scrdir="/local/scratch/minenky/m1_00_78-78-40_C5H12_wB97XD/"
 Entering Link 1 = /home/minenky/programs//g09/l1.exe PID=     48884.
  
 Copyright (c) 1988,1990,1992,1993,1995,1998,2003,2009,2013,
            Gaussian, Inc.  All Rights Reserved.
  
 This is part of the Gaussian(R) 09 program.  It is based on
 the Gaussian(R) 03 system (copyright 2003, Gaussian, Inc.),
 the Gaussian(R) 98 system (copyright 1998, Gaussian, Inc.),
 the Gaussian(R) 94 system (copyright 1995, Gaussian, Inc.),
 the Gaussian 92(TM) system (copyright 1992, Gaussian, Inc.),
 the Gaussian 90(TM) system (copyright 1990, Gaussian, Inc.),
 the Gaussian 88(TM) system (copyright 1988, Gaussian, Inc.),
 the Gaussian 86(TM) system (copyright 1986, Carnegie Mellon
 University), and the Gaussian 82(TM) system (copyright 1983,
 Carnegie Mellon University). Gaussian is a federally registered
 trademark of Gaussian, Inc.
  
 This software contains proprietary and confidential information,
 including trade secrets, belonging to Gaussian, Inc.
  
 This software is provided under written license and may be
 used, copied, transmitted, or stored only in accord with that
 written license.
  
 The following legend is applicable only to US Government
 contracts under FAR:
  
                    RESTRICTED RIGHTS LEGEND
  
 Use, reproduction and disclosure by the US Government is
 subject to restrictions as set forth in subparagraphs (a)
 and (c) of the Commercial Computer Software - Restricted
 Rights clause in FAR 52.227-19.
  
 Gaussian, Inc.
 340 Quinnipiac St., Bldg. 40, Wallingford CT 06492
  
  
 ---------------------------------------------------------------
 Warning -- This program may not be used in any manner that
 competes with the business of Gaussian, Inc. or will provide
 assistance to any competitor of Gaussian, Inc.  The licensee
 of this program is prohibited from giving any competitor of
 Gaussian, Inc. access to this program.  By using this program,
 the user acknowledges that Gaussian, Inc. is engaged in the
 business of creating and licensing software in the field of
 computational chemistry and represents and warrants to the
 licensee that it is not a competitor of Gaussian, Inc. and that
 it will not use this program in any manner prohibited above.
 ---------------------------------------------------------------
  

 Cite this work as:
 Gaussian 09, Revision D.01,
 M. J. Frisch, G. W. Trucks, H. B. Schlegel, G. E. Scuseria, 
 M. A. Robb, J. R. Cheeseman, G. Scalmani, V. Barone, B. Mennucci, 
 G. A. Petersson, H. Nakatsuji, M. Caricato, X. Li, H. P. Hratchian, 
 A. F. Izmaylov, J. Bloino, G. Zheng, J. L. Sonnenberg, M. Hada, 
 M. Ehara, K. Toyota, R. Fukuda, J. Hasegawa, M. Ishida, T. Nakajima, 
 Y. Honda, O. Kitao, H. Nakai, T. Vreven, J. A. Montgomery, Jr., 
 J. E. Peralta, F. Ogliaro, M. Bearpark, J. J. Heyd, E. Brothers, 
 K. N. Kudin, V. N. Staroverov, T. Keith, R. Kobayashi, J. Normand, 
 K. Raghavachari, A. Rendell, J. C. Burant, S. S. Iyengar, J. Tomasi, 
 M. Cossi, N. Rega, J. M. Millam, M. Klene, J. E. Knox, J. B. Cross, 
 V. Bakken, C. Adamo, J. Jaramillo, R. Gomperts, R. E. Stratmann, 
 O. Yazyev, A. J. Austin, R. Cammi, C. Pomelli, J. W. Ochterski, 
 R. L. Martin, K. Morokuma, V. G. Zakrzewski, G. A. Voth, 
 P. Salvador, J. J. Dannenberg, S. Dapprich, A. D. Daniels, 
 O. Farkas, J. B. Foresman, J. V. Ortiz, J. Cioslowski, 
 and D. J. Fox, Gaussian, Inc., Wallingford CT, 2013.
 
 ******************************************
 Gaussian 09:  AM64L-G09RevD.01 24-Apr-2013
                 9-Jul-2021 
 ******************************************
 %Mem=32000MB
 %NProcShared=16
 Will use up to   16 processors via shared memory.
 %Chk=m1_00_78-78-40_C5H12_wB97XD
 ----------------------------------------------------------------------
 #P wB97XD/def2tzvp opt=(tight) freq integral(Grid=ultrafine) # SCF(Max
 Cycle=380) 5d 7f GFPrint
 ----------------------------------------------------------------------
 1/7=10,14=-1,18=20,19=15,26=4,38=1/1,3;
 2/9=110,12=2,17=6,18=5,40=1/2;
 3/5=44,7=101,8=11,11=2,16=1,24=100,25=1,30=1,71=1,74=-58,75=-5/1,2,3;
 4//1;
 5/5=2,7=380,38=5/2;
 6/7=2,8=2,9=2,10=2,28=1/1;
 7//1,2,3,16;
 1/7=10,14=-1,18=20,19=15,26=4/3(2);
 2/9=110/2;
 99//99;
 2/9=110/2;
 3/5=44,7=101,8=11,11=2,16=1,25=1,30=1,71=1,74=-58,75=-5/1,2,3;
 4/5=5,16=3,69=1/1;
 5/5=2,7=380,38=5/2;
 7//1,2,3,16;
 1/7=10,14=-1,18=20,19=15,26=4/3(-5);
 2/9=110/2;
 6/7=2,8=2,9=2,10=2,19=2,28=1/1;
 99/9=1/99;
 Leave Link    1 at Fri Jul  9 19:19:35 2021, MaxMem=  4194304000 cpu:         1.0
 (Enter /home/minenky/programs//g09/l101.exe)
 ---------------------------------------
 The PBEPBE optimization and frequencies
 ---------------------------------------
 Symbolic Z-matrix:
 Charge =  0 Multiplicity = 1
 C                     2.08728  -0.036    -0.11017 
 C                     0.75597  -0.67072   0.28363 
 C                    -0.48082  -0.00294  -0.33099 
 H                     2.92661  -0.60289   0.29676 
 H                     2.17528   0.98725   0.25786 
 H                     2.20144  -0.0087   -1.19695 
 H                     0.65331  -0.66289   1.37491 
 H                     0.76274  -1.72431  -0.01245 
 H                    -0.34917  -0.00438  -1.42031 
 C                    -0.64122   1.44913   0.12162 
 C                    -1.74013  -0.80761  -0.00828 
 H                    -0.74118   1.50342   1.20976 
 H                    -1.53549   1.89745  -0.31611 
 H                     0.21125   2.06499  -0.1667 
 H                    -1.91384  -0.83641   1.07123 
 H                    -2.62365  -0.36636  -0.47427 
 H                    -1.65374  -1.83838  -0.35864 
 
 NAtoms=     17 NQM=       17 NQMF=       0 NMMI=      0 NMMIF=      0
                NMic=       0 NMicF=      0.
                    Isotopes and Nuclear Properties:
 (Nuclear quadrupole moments (NQMom) in fm**2, nuclear magnetic moments (NMagM)
  in nuclear magnetons)

  Atom         1           2           3           4           5           6           7           8           9          10
 IAtWgt=          12          12          12           1           1           1           1           1           1          12
 AtmWgt=  12.0000000  12.0000000  12.0000000   1.0078250   1.0078250   1.0078250   1.0078250   1.0078250   1.0078250  12.0000000
 NucSpn=           0           0           0           1           1           1           1           1           1           0
 AtZEff=   0.0000000   0.0000000   0.0000000   0.0000000   0.0000000   0.0000000   0.0000000   0.0000000   0.0000000   0.0000000
 NQMom=    0.0000000   0.0000000   0.0000000   0.0000000   0.0000000   0.0000000   0.0000000   0.0000000   0.0000000   0.0000000
 NMagM=    0.0000000   0.0000000   0.0000000   2.7928460   2.7928460   2.7928460   2.7928460   2.7928460   2.7928460   0.0000000
 AtZNuc=   6.0000000   6.0000000   6.0000000   1.0000000   1.0000000   1.0000000   1.0000000   1.0000000   1.0000000   6.0000000

  Atom        11          12          13          14          15          16          17
 IAtWgt=          12           1           1           1           1           1           1
 AtmWgt=  12.0000000   1.0078250   1.0078250   1.0078250   1.0078250   1.0078250   1.0078250
 NucSpn=           0           1           1           1           1           1           1
 AtZEff=   0.0000000   0.0000000   0.0000000   0.0000000   0.0000000   0.0000000   0.0000000
 NQMom=    0.0000000   0.0000000   0.0000000   0.0000000   0.0000000   0.0000000   0.0000000
 NMagM=    0.0000000   2.7928460   2.7928460   2.7928460   2.7928460   2.7928460   2.7928460
 AtZNuc=   6.0000000   1.0000000   1.0000000   1.0000000   1.0000000   1.0000000   1.0000000
 Leave Link  101 at Fri Jul  9 19:19:35 2021, MaxMem=  4194304000 cpu:         1.4
 (Enter /home/minenky/programs//g09/l103.exe)

 GradGradGradGradGradGradGradGradGradGradGradGradGradGradGradGradGradGrad
 Berny optimization.
 Initialization pass.
                           ----------------------------
                           !    Initial Parameters    !
                           ! (Angstroms and Degrees)  !
 --------------------------                            --------------------------
 ! Name  Definition              Value          Derivative Info.                !
 --------------------------------------------------------------------------------
 ! R1    R(1,2)                  1.5265         estimate D2E/DX2                !
 ! R2    R(1,4)                  1.0915         estimate D2E/DX2                !
 ! R3    R(1,5)                  1.091          estimate D2E/DX2                !
 ! R4    R(1,6)                  1.0931         estimate D2E/DX2                !
 ! R5    R(2,3)                  1.5341         estimate D2E/DX2                !
 ! R6    R(2,7)                  1.0961         estimate D2E/DX2                !
 ! R7    R(2,8)                  1.0944         estimate D2E/DX2                !
 ! R8    R(3,9)                  1.0972         estimate D2E/DX2                !
 ! R9    R(3,10)                 1.5294         estimate D2E/DX2                !
 ! R10   R(3,11)                 1.5289         estimate D2E/DX2                !
 ! R11   R(10,12)                1.0941         estimate D2E/DX2                !
 ! R12   R(10,13)                1.0919         estimate D2E/DX2                !
 ! R13   R(10,14)                1.0905         estimate D2E/DX2                !
 ! R14   R(11,15)                1.0938         estimate D2E/DX2                !
 ! R15   R(11,16)                1.092          estimate D2E/DX2                !
 ! R16   R(11,17)                1.0921         estimate D2E/DX2                !
 ! A1    A(2,1,4)              111.0075         estimate D2E/DX2                !
 ! A2    A(2,1,5)              111.9187         estimate D2E/DX2                !
 ! A3    A(2,1,6)              110.9739         estimate D2E/DX2                !
 ! A4    A(4,1,5)              107.4169         estimate D2E/DX2                !
 ! A5    A(4,1,6)              107.6575         estimate D2E/DX2                !
 ! A6    A(5,1,6)              107.6707         estimate D2E/DX2                !
 ! A7    A(1,2,3)              114.7567         estimate D2E/DX2                !
 ! A8    A(1,2,7)              109.6055         estimate D2E/DX2                !
 ! A9    A(1,2,8)              108.9709         estimate D2E/DX2                !
 ! A10   A(3,2,7)              108.6788         estimate D2E/DX2                !
 ! A11   A(3,2,8)              108.4004         estimate D2E/DX2                !
 ! A12   A(7,2,8)              106.0687         estimate D2E/DX2                !
 ! A13   A(2,3,9)              107.4847         estimate D2E/DX2                !
 ! A14   A(2,3,10)             112.2888         estimate D2E/DX2                !
 ! A15   A(2,3,11)             110.5118         estimate D2E/DX2                !
 ! A16   A(9,3,10)             107.9164         estimate D2E/DX2                !
 ! A17   A(9,3,11)             107.9195         estimate D2E/DX2                !
 ! A18   A(10,3,11)            110.5392         estimate D2E/DX2                !
 ! A19   A(3,10,12)            110.5501         estimate D2E/DX2                !
 ! A20   A(3,10,13)            110.9202         estimate D2E/DX2                !
 ! A21   A(3,10,14)            112.0845         estimate D2E/DX2                !
 ! A22   A(12,10,13)           107.6685         estimate D2E/DX2                !
 ! A23   A(12,10,14)           107.84           estimate D2E/DX2                !
 ! A24   A(13,10,14)           107.6001         estimate D2E/DX2                !
 ! A25   A(3,11,15)            110.6702         estimate D2E/DX2                !
 ! A26   A(3,11,16)            111.3269         estimate D2E/DX2                !
 ! A27   A(3,11,17)            111.3387         estimate D2E/DX2                !
 ! A28   A(15,11,16)           107.6564         estimate D2E/DX2                !
 ! A29   A(15,11,17)           107.7182         estimate D2E/DX2                !
 ! A30   A(16,11,17)           107.968          estimate D2E/DX2                !
 ! D1    D(4,1,2,3)           -175.6212         estimate D2E/DX2                !
 ! D2    D(4,1,2,7)             61.7878         estimate D2E/DX2                !
 ! D3    D(4,1,2,8)            -53.8795         estimate D2E/DX2                !
 ! D4    D(5,1,2,3)             64.3699         estimate D2E/DX2                !
 ! D5    D(5,1,2,7)            -58.2211         estimate D2E/DX2                !
 ! D6    D(5,1,2,8)           -173.8884         estimate D2E/DX2                !
 ! D7    D(6,1,2,3)            -55.9391         estimate D2E/DX2                !
 ! D8    D(6,1,2,7)           -178.5301         estimate D2E/DX2                !
 ! D9    D(6,1,2,8)             65.8027         estimate D2E/DX2                !
 ! D10   D(1,2,3,9)             55.8659         estimate D2E/DX2                !
 ! D11   D(1,2,3,10)           -62.6691         estimate D2E/DX2                !
 ! D12   D(1,2,3,11)           173.3996         estimate D2E/DX2                !
 ! D13   D(7,2,3,9)            178.9552         estimate D2E/DX2                !
 ! D14   D(7,2,3,10)            60.4202         estimate D2E/DX2                !
 ! D15   D(7,2,3,11)           -63.5111         estimate D2E/DX2                !
 ! D16   D(8,2,3,9)            -66.1859         estimate D2E/DX2                !
 ! D17   D(8,2,3,10)           175.2791         estimate D2E/DX2                !
 ! D18   D(8,2,3,11)            51.3478         estimate D2E/DX2                !
 ! D19   D(2,3,10,12)          -59.7587         estimate D2E/DX2                !
 ! D20   D(2,3,10,13)         -179.1201         estimate D2E/DX2                !
 ! D21   D(2,3,10,14)           60.5853         estimate D2E/DX2                !
 ! D22   D(9,3,10,12)         -178.039          estimate D2E/DX2                !
 ! D23   D(9,3,10,13)           62.5996         estimate D2E/DX2                !
 ! D24   D(9,3,10,14)          -57.6949         estimate D2E/DX2                !
 ! D25   D(11,3,10,12)          64.1573         estimate D2E/DX2                !
 ! D26   D(11,3,10,13)         -55.2041         estimate D2E/DX2                !
 ! D27   D(11,3,10,14)        -175.4987         estimate D2E/DX2                !
 ! D28   D(2,3,11,15)           62.6547         estimate D2E/DX2                !
 ! D29   D(2,3,11,16)         -177.6555         estimate D2E/DX2                !
 ! D30   D(2,3,11,17)          -57.1207         estimate D2E/DX2                !
 ! D31   D(9,3,11,15)          179.9207         estimate D2E/DX2                !
 ! D32   D(9,3,11,16)          -60.3895         estimate D2E/DX2                !
 ! D33   D(9,3,11,17)           60.1453         estimate D2E/DX2                !
 ! D34   D(10,3,11,15)         -62.2775         estimate D2E/DX2                !
 ! D35   D(10,3,11,16)          57.4123         estimate D2E/DX2                !
 ! D36   D(10,3,11,17)         177.9471         estimate D2E/DX2                !
 --------------------------------------------------------------------------------
 Trust Radius=3.00D-01 FncErr=1.00D-07 GrdErr=1.00D-06
 Number of steps in this run=     92 maximum allowed number of steps=    102.
 GradGradGradGradGradGradGradGradGradGradGradGradGradGradGradGradGradGrad

 Leave Link  103 at Fri Jul  9 19:19:36 2021, MaxMem=  4194304000 cpu:         0.0
 (Enter /home/minenky/programs//g09/l202.exe)
                          Input orientation:                          
 ---------------------------------------------------------------------
 Center     Atomic      Atomic             Coordinates (Angstroms)
 Number     Number       Type             X           Y           Z
 ---------------------------------------------------------------------
      1          6           0        2.087284   -0.035999   -0.110174
      2          6           0        0.755967   -0.670715    0.283633
      3          6           0       -0.480823   -0.002941   -0.330985
      4          1           0        2.926612   -0.602888    0.296764
      5          1           0        2.175281    0.987249    0.257862
      6          1           0        2.201440   -0.008698   -1.196950
      7          1           0        0.653309   -0.662891    1.374907
      8          1           0        0.762735   -1.724307   -0.012447
      9          1           0       -0.349173   -0.004383   -1.420307
     10          6           0       -0.641223    1.449131    0.121622
     11          6           0       -1.740131   -0.807608   -0.008282
     12          1           0       -0.741175    1.503421    1.209757
     13          1           0       -1.535492    1.897445   -0.316107
     14          1           0        0.211254    2.064991   -0.166696
     15          1           0       -1.913839   -0.836410    1.071235
     16          1           0       -2.623654   -0.366356   -0.474267
     17          1           0       -1.653741   -1.838378   -0.358642
 ---------------------------------------------------------------------
                    Distance matrix (angstroms):
                    1          2          3          4          5
     1  C    0.000000
     2  C    1.526549   0.000000
     3  C    2.577794   1.534056   0.000000
     4  H    1.091528   2.171744   3.516336   0.000000
     5  H    1.090977   2.182650   2.895187   1.759133   0.000000
     6  H    1.093096   2.172507   2.818592   1.763553   1.763256
     7  H    2.157485   1.096120   2.152175   2.516724   2.507419
     8  H    2.148107   1.094425   2.147325   2.456737   3.069347
     9  H    2.766545   2.137462   1.097249   3.746640   3.189428
    10  C    3.115139   2.544039   1.529410   4.119576   2.857375
    11  C    3.905748   2.516835   1.528883   4.681181   4.315414
    12  H    3.480260   2.797500   2.170437   4.326980   3.110989
    13  H    4.111584   3.493697   2.173480   5.151470   3.863643
    14  H    2.817240   2.825526   2.186848   3.834781   2.280171
    15  H    4.247984   2.788483   2.171273   4.907576   4.550627
    16  H    4.736522   3.476907   2.178147   5.608555   5.039646
    17  H    4.159997   2.753661   2.178378   4.789115   4.798505
                    6          7          8          9         10
     6  H    0.000000
     7  H    3.072316   0.000000
     8  H    2.533029   1.750237   0.000000
     9  H    2.560378   3.041681   2.485266   0.000000
    10  C    3.456100   2.776180   3.472720   2.139051   0.000000
    11  C    4.193706   2.768160   2.665463   2.138633   2.513433
    12  H    4.091177   2.581621   3.764805   3.056857   1.094064
    13  H    4.286482   3.769045   4.300133   2.498712   1.091929
    14  H    3.053269   3.164379   3.832323   2.483531   1.090471
    15  H    4.771299   2.590864   3.021055   3.057488   2.782987
    16  H    4.892006   3.774369   3.677627   2.489835   2.753381
    17  H    4.348898   3.115998   2.443812   2.488487   3.473264
                   11         12         13         14         15
    11  C    0.000000
    12  H    2.796853   0.000000
    13  H    2.730191   1.764782   0.000000
    14  H    3.476323   1.765532   1.761112   0.000000
    15  H    1.093783   2.620904   3.088985   3.803501   0.000000
    16  H    1.091997   3.142567   2.516725   3.747366   1.764473
    17  H    1.092109   3.802667   3.737936   4.330282   1.765259
                   16         17
    16  H    0.000000
    17  H    1.766621   0.000000
 Stoichiometry    C5H12
 Framework group  C1[X(C5H12)]
 Deg. of freedom    45
 Full point group                 C1      NOp   1
 Largest Abelian subgroup         C1      NOp   1
 Largest concise Abelian subgroup C1      NOp   1
                         Standard orientation:                         
 ---------------------------------------------------------------------
 Center     Atomic      Atomic             Coordinates (Angstroms)
 Number     Number       Type             X           Y           Z
 ---------------------------------------------------------------------
      1          6           0        2.087284   -0.035999   -0.110174
      2          6           0        0.755967   -0.670715    0.283633
      3          6           0       -0.480823   -0.002941   -0.330985
      4          1           0        2.926612   -0.602888    0.296764
      5          1           0        2.175281    0.987249    0.257862
      6          1           0        2.201440   -0.008698   -1.196950
      7          1           0        0.653309   -0.662891    1.374907
      8          1           0        0.762735   -1.724307   -0.012447
      9          1           0       -0.349173   -0.004383   -1.420307
     10          6           0       -0.641223    1.449131    0.121622
     11          6           0       -1.740131   -0.807608   -0.008282
     12          1           0       -0.741175    1.503421    1.209757
     13          1           0       -1.535492    1.897445   -0.316107
     14          1           0        0.211254    2.064991   -0.166696
     15          1           0       -1.913839   -0.836410    1.071235
     16          1           0       -2.623654   -0.366356   -0.474267
     17          1           0       -1.653741   -1.838378   -0.358642
 ---------------------------------------------------------------------
 Rotational constants (GHZ):      7.3320178      3.3640236      2.5699859
 Leave Link  202 at Fri Jul  9 19:19:36 2021, MaxMem=  4194304000 cpu:         0.5
 (Enter /home/minenky/programs//g09/l301.exe)
 Standard basis: def2TZVP (5D, 7F)
 ======================================================================================================
                                       Pseudopotential Parameters
 ======================================================================================================
  Center     Atomic      Valence      Angular      Power
  Number     Number     Electrons     Momentum     of R      Exponent        Coefficient   SO-Coeffient
 ======================================================================================================
    1          6
                                   No pseudopotential on this center.
    2          6
                                   No pseudopotential on this center.
    3          6
                                   No pseudopotential on this center.
    4          1
                                   No pseudopotential on this center.
    5          1
                                   No pseudopotential on this center.
    6          1
                                   No pseudopotential on this center.
    7          1
                                   No pseudopotential on this center.
    8          1
                                   No pseudopotential on this center.
    9          1
                                   No pseudopotential on this center.
   10          6
                                   No pseudopotential on this center.
   11          6
                                   No pseudopotential on this center.
   12          1
                                   No pseudopotential on this center.
   13          1
                                   No pseudopotential on this center.
   14          1
                                   No pseudopotential on this center.
   15          1
                                   No pseudopotential on this center.
   16          1
                                   No pseudopotential on this center.
   17          1
                                   No pseudopotential on this center.
 ======================================================================================================
 Ernie: Thresh=  0.10000D-02 Tol=  0.10000D-05 Strict=F.
 AO basis set (Overlap normalization):
 Atom C1       Shell     1 S   6     bf    1 -     1          3.944395078754         -0.068028258888         -0.208198372010
      0.1357534968D+05  0.6064550360D-03
      0.2035233368D+04  0.4697908888D-02
      0.4632256236D+03  0.2433247765D-01
      0.1312001960D+03  0.9739996831D-01
      0.4285301589D+02  0.3019558425D+00
      0.1558418577D+02  0.6623360914D+00
 Atom C1       Shell     2 S   2     bf    2 -     2          3.944395078754         -0.068028258888         -0.208198372010
      0.6206713851D+01  0.6559530854D+00
      0.2576489653D+01  0.3758563329D+00
 Atom C1       Shell     3 S   1     bf    3 -     3          3.944395078754         -0.068028258888         -0.208198372010
      0.5769633942D+00  0.1000000000D+01
 Atom C1       Shell     4 S   1     bf    4 -     4          3.944395078754         -0.068028258888         -0.208198372010
      0.2297283136D+00  0.1000000000D+01
 Atom C1       Shell     5 S   1     bf    5 -     5          3.944395078754         -0.068028258888         -0.208198372010
      0.9516444003D-01  0.1000000000D+01
 Atom C1       Shell     6 P   4     bf    6 -     8          3.944395078754         -0.068028258888         -0.208198372010
      0.3469723224D+02  0.1132722000D-01
      0.7958262283D+01  0.7616965920D-01
      0.2378082688D+01  0.3019225220D+00
      0.8143320818D+00  0.7278502735D+00
 Atom C1       Shell     7 P   1     bf    9 -    11          3.944395078754         -0.068028258888         -0.208198372010
      0.2888754725D+00  0.1000000000D+01
 Atom C1       Shell     8 P   1     bf   12 -    14          3.944395078754         -0.068028258888         -0.208198372010
      0.1005682367D+00  0.1000000000D+01
 Atom C1       Shell     9 D   1     bf   15 -    19          3.944395078754         -0.068028258888         -0.208198372010
      0.1097000000D+01  0.1000000000D+01
 Atom C1       Shell    10 D   1     bf   20 -    24          3.944395078754         -0.068028258888         -0.208198372010
      0.3180000000D+00  0.1000000000D+01
 Atom C1       Shell    11 F   1     bf   25 -    31          3.944395078754         -0.068028258888         -0.208198372010
      0.7610000000D+00  0.1000000000D+01
 Atom C2       Shell    12 S   6     bf   32 -    32          1.428570591363         -1.267467752148          0.535989007203
      0.1357534968D+05  0.6064550360D-03
      0.2035233368D+04  0.4697908888D-02
      0.4632256236D+03  0.2433247765D-01
      0.1312001960D+03  0.9739996831D-01
      0.4285301589D+02  0.3019558425D+00
      0.1558418577D+02  0.6623360914D+00
 Atom C2       Shell    13 S   2     bf   33 -    33          1.428570591363         -1.267467752148          0.535989007203
      0.6206713851D+01  0.6559530854D+00
      0.2576489653D+01  0.3758563329D+00
 Atom C2       Shell    14 S   1     bf   34 -    34          1.428570591363         -1.267467752148          0.535989007203
      0.5769633942D+00  0.1000000000D+01
 Atom C2       Shell    15 S   1     bf   35 -    35          1.428570591363         -1.267467752148          0.535989007203
      0.2297283136D+00  0.1000000000D+01
 Atom C2       Shell    16 S   1     bf   36 -    36          1.428570591363         -1.267467752148          0.535989007203
      0.9516444003D-01  0.1000000000D+01
 Atom C2       Shell    17 P   4     bf   37 -    39          1.428570591363         -1.267467752148          0.535989007203
      0.3469723224D+02  0.1132722000D-01
      0.7958262283D+01  0.7616965920D-01
      0.2378082688D+01  0.3019225220D+00
      0.8143320818D+00  0.7278502735D+00
 Atom C2       Shell    18 P   1     bf   40 -    42          1.428570591363         -1.267467752148          0.535989007203
      0.2888754725D+00  0.1000000000D+01
 Atom C2       Shell    19 P   1     bf   43 -    45          1.428570591363         -1.267467752148          0.535989007203
      0.1005682367D+00  0.1000000000D+01
 Atom C2       Shell    20 D   1     bf   46 -    50          1.428570591363         -1.267467752148          0.535989007203
      0.1097000000D+01  0.1000000000D+01
 Atom C2       Shell    21 D   1     bf   51 -    55          1.428570591363         -1.267467752148          0.535989007203
      0.3180000000D+00  0.1000000000D+01
 Atom C2       Shell    22 F   1     bf   56 -    62          1.428570591363         -1.267467752148          0.535989007203
      0.7610000000D+00  0.1000000000D+01
 Atom C3       Shell    23 S   6     bf   63 -    63         -0.908623833207         -0.005557848827         -0.625470689139
      0.1357534968D+05  0.6064550360D-03
      0.2035233368D+04  0.4697908888D-02
      0.4632256236D+03  0.2433247765D-01
      0.1312001960D+03  0.9739996831D-01
      0.4285301589D+02  0.3019558425D+00
      0.1558418577D+02  0.6623360914D+00
 Atom C3       Shell    24 S   2     bf   64 -    64         -0.908623833207         -0.005557848827         -0.625470689139
      0.6206713851D+01  0.6559530854D+00
      0.2576489653D+01  0.3758563329D+00
 Atom C3       Shell    25 S   1     bf   65 -    65         -0.908623833207         -0.005557848827         -0.625470689139
      0.5769633942D+00  0.1000000000D+01
 Atom C3       Shell    26 S   1     bf   66 -    66         -0.908623833207         -0.005557848827         -0.625470689139
      0.2297283136D+00  0.1000000000D+01
 Atom C3       Shell    27 S   1     bf   67 -    67         -0.908623833207         -0.005557848827         -0.625470689139
      0.9516444003D-01  0.1000000000D+01
 Atom C3       Shell    28 P   4     bf   68 -    70         -0.908623833207         -0.005557848827         -0.625470689139
      0.3469723224D+02  0.1132722000D-01
      0.7958262283D+01  0.7616965920D-01
      0.2378082688D+01  0.3019225220D+00
      0.8143320818D+00  0.7278502735D+00
 Atom C3       Shell    29 P   1     bf   71 -    73         -0.908623833207         -0.005557848827         -0.625470689139
      0.2888754725D+00  0.1000000000D+01
 Atom C3       Shell    30 P   1     bf   74 -    76         -0.908623833207         -0.005557848827         -0.625470689139
      0.1005682367D+00  0.1000000000D+01
 Atom C3       Shell    31 D   1     bf   77 -    81         -0.908623833207         -0.005557848827         -0.625470689139
      0.1097000000D+01  0.1000000000D+01
 Atom C3       Shell    32 D   1     bf   82 -    86         -0.908623833207         -0.005557848827         -0.625470689139
      0.3180000000D+00  0.1000000000D+01
 Atom C3       Shell    33 F   1     bf   87 -    93         -0.908623833207         -0.005557848827         -0.625470689139
      0.7610000000D+00  0.1000000000D+01
 Atom H4       Shell    34 S   3     bf   94 -    94          5.530495168949         -1.139293165504          0.560803001054
      0.3406134100D+02  0.2543930721D-01
      0.5123574600D+01  0.1900859489D+00
      0.1164662600D+01  0.8524411301D+00
 Atom H4       Shell    35 S   1     bf   95 -    95          5.530495168949         -1.139293165504          0.560803001054
      0.3272304100D+00  0.1000000000D+01
 Atom H4       Shell    36 S   1     bf   96 -    96          5.530495168949         -1.139293165504          0.560803001054
      0.1030724100D+00  0.1000000000D+01
 Atom H4       Shell    37 P   1     bf   97 -    99          5.530495168949         -1.139293165504          0.560803001054
      0.8000000000D+00  0.1000000000D+01
 Atom H5       Shell    38 S   3     bf  100 -   100          4.110685246936          1.865630232496          0.487288875033
      0.3406134100D+02  0.2543930721D-01
      0.5123574600D+01  0.1900859489D+00
      0.1164662600D+01  0.8524411301D+00
 Atom H5       Shell    39 S   1     bf  101 -   101          4.110685246936          1.865630232496          0.487288875033
      0.3272304100D+00  0.1000000000D+01
 Atom H5       Shell    40 S   1     bf  102 -   102          4.110685246936          1.865630232496          0.487288875033
      0.1030724100D+00  0.1000000000D+01
 Atom H5       Shell    41 P   1     bf  103 -   105          4.110685246936          1.865630232496          0.487288875033
      0.8000000000D+00  0.1000000000D+01
 Atom H6       Shell    42 S   3     bf  106 -   106          4.160118653516         -0.016436838780         -2.261907379803
      0.3406134100D+02  0.2543930721D-01
      0.5123574600D+01  0.1900859489D+00
      0.1164662600D+01  0.8524411301D+00
 Atom H6       Shell    43 S   1     bf  107 -   107          4.160118653516         -0.016436838780         -2.261907379803
      0.3272304100D+00  0.1000000000D+01
 Atom H6       Shell    44 S   1     bf  108 -   108          4.160118653516         -0.016436838780         -2.261907379803
      0.1030724100D+00  0.1000000000D+01
 Atom H6       Shell    45 P   1     bf  109 -   111          4.160118653516         -0.016436838780         -2.261907379803
      0.8000000000D+00  0.1000000000D+01
 Atom H7       Shell    46 S   3     bf  112 -   112          1.234575085537         -1.252682541138          2.598198003142
      0.3406134100D+02  0.2543930721D-01
      0.5123574600D+01  0.1900859489D+00
      0.1164662600D+01  0.8524411301D+00
 Atom H7       Shell    47 S   1     bf  113 -   113          1.234575085537         -1.252682541138          2.598198003142
      0.3272304100D+00  0.1000000000D+01
 Atom H7       Shell    48 S   1     bf  114 -   114          1.234575085537         -1.252682541138          2.598198003142
      0.1030724100D+00  0.1000000000D+01
 Atom H7       Shell    49 P   1     bf  115 -   117          1.234575085537         -1.252682541138          2.598198003142
      0.8000000000D+00  0.1000000000D+01
 Atom H8       Shell    50 S   3     bf  118 -   118          1.441360322012         -3.258468087535         -0.023521106222
      0.3406134100D+02  0.2543930721D-01
      0.5123574600D+01  0.1900859489D+00
      0.1164662600D+01  0.8524411301D+00
 Atom H8       Shell    51 S   1     bf  119 -   119          1.441360322012         -3.258468087535         -0.023521106222
      0.3272304100D+00  0.1000000000D+01
 Atom H8       Shell    52 S   1     bf  120 -   120          1.441360322012         -3.258468087535         -0.023521106222
      0.1030724100D+00  0.1000000000D+01
 Atom H8       Shell    53 P   1     bf  121 -   123          1.441360322012         -3.258468087535         -0.023521106222
      0.8000000000D+00  0.1000000000D+01
 Atom H9       Shell    54 S   3     bf  124 -   124         -0.659841387725         -0.008282825891         -2.683990939666
      0.3406134100D+02  0.2543930721D-01
      0.5123574600D+01  0.1900859489D+00
      0.1164662600D+01  0.8524411301D+00
 Atom H9       Shell    55 S   1     bf  125 -   125         -0.659841387725         -0.008282825891         -2.683990939666
      0.3272304100D+00  0.1000000000D+01
 Atom H9       Shell    56 S   1     bf  126 -   126         -0.659841387725         -0.008282825891         -2.683990939666
      0.1030724100D+00  0.1000000000D+01
 Atom H9       Shell    57 P   1     bf  127 -   129         -0.659841387725         -0.008282825891         -2.683990939666
      0.8000000000D+00  0.1000000000D+01
 Atom C10      Shell    58 S   6     bf  130 -   130         -1.211735993377          2.738460546633          0.229832586688
      0.1357534968D+05  0.6064550360D-03
      0.2035233368D+04  0.4697908888D-02
      0.4632256236D+03  0.2433247765D-01
      0.1312001960D+03  0.9739996831D-01
      0.4285301589D+02  0.3019558425D+00
      0.1558418577D+02  0.6623360914D+00
 Atom C10      Shell    59 S   2     bf  131 -   131         -1.211735993377          2.738460546633          0.229832586688
      0.6206713851D+01  0.6559530854D+00
      0.2576489653D+01  0.3758563329D+00
 Atom C10      Shell    60 S   1     bf  132 -   132         -1.211735993377          2.738460546633          0.229832586688
      0.5769633942D+00  0.1000000000D+01
 Atom C10      Shell    61 S   1     bf  133 -   133         -1.211735993377          2.738460546633          0.229832586688
      0.2297283136D+00  0.1000000000D+01
 Atom C10      Shell    62 S   1     bf  134 -   134         -1.211735993377          2.738460546633          0.229832586688
      0.9516444003D-01  0.1000000000D+01
 Atom C10      Shell    63 P   4     bf  135 -   137         -1.211735993377          2.738460546633          0.229832586688
      0.3469723224D+02  0.1132722000D-01
      0.7958262283D+01  0.7616965920D-01
      0.2378082688D+01  0.3019225220D+00
      0.8143320818D+00  0.7278502735D+00
 Atom C10      Shell    64 P   1     bf  138 -   140         -1.211735993377          2.738460546633          0.229832586688
      0.2888754725D+00  0.1000000000D+01
 Atom C10      Shell    65 P   1     bf  141 -   143         -1.211735993377          2.738460546633          0.229832586688
      0.1005682367D+00  0.1000000000D+01
 Atom C10      Shell    66 D   1     bf  144 -   148         -1.211735993377          2.738460546633          0.229832586688
      0.1097000000D+01  0.1000000000D+01
 Atom C10      Shell    67 D   1     bf  149 -   153         -1.211735993377          2.738460546633          0.229832586688
      0.3180000000D+00  0.1000000000D+01
 Atom C10      Shell    68 F   1     bf  154 -   160         -1.211735993377          2.738460546633          0.229832586688
      0.7610000000D+00  0.1000000000D+01
 Atom C11      Shell    69 S   6     bf  161 -   161         -3.288371021141         -1.526158183711         -0.015650396878
      0.1357534968D+05  0.6064550360D-03
      0.2035233368D+04  0.4697908888D-02
      0.4632256236D+03  0.2433247765D-01
      0.1312001960D+03  0.9739996831D-01
      0.4285301589D+02  0.3019558425D+00
      0.1558418577D+02  0.6623360914D+00
 Atom C11      Shell    70 S   2     bf  162 -   162         -3.288371021141         -1.526158183711         -0.015650396878
      0.6206713851D+01  0.6559530854D+00
      0.2576489653D+01  0.3758563329D+00
 Atom C11      Shell    71 S   1     bf  163 -   163         -3.288371021141         -1.526158183711         -0.015650396878
      0.5769633942D+00  0.1000000000D+01
 Atom C11      Shell    72 S   1     bf  164 -   164         -3.288371021141         -1.526158183711         -0.015650396878
      0.2297283136D+00  0.1000000000D+01
 Atom C11      Shell    73 S   1     bf  165 -   165         -3.288371021141         -1.526158183711         -0.015650396878
      0.9516444003D-01  0.1000000000D+01
 Atom C11      Shell    74 P   4     bf  166 -   168         -3.288371021141         -1.526158183711         -0.015650396878
      0.3469723224D+02  0.1132722000D-01
      0.7958262283D+01  0.7616965920D-01
      0.2378082688D+01  0.3019225220D+00
      0.8143320818D+00  0.7278502735D+00
 Atom C11      Shell    75 P   1     bf  169 -   171         -3.288371021141         -1.526158183711         -0.015650396878
      0.2888754725D+00  0.1000000000D+01
 Atom C11      Shell    76 P   1     bf  172 -   174         -3.288371021141         -1.526158183711         -0.015650396878
      0.1005682367D+00  0.1000000000D+01
 Atom C11      Shell    77 D   1     bf  175 -   179         -3.288371021141         -1.526158183711         -0.015650396878
      0.1097000000D+01  0.1000000000D+01
 Atom C11      Shell    78 D   1     bf  180 -   184         -3.288371021141         -1.526158183711         -0.015650396878
      0.3180000000D+00  0.1000000000D+01
 Atom C11      Shell    79 F   1     bf  185 -   191         -3.288371021141         -1.526158183711         -0.015650396878
      0.7610000000D+00  0.1000000000D+01
 Atom H12      Shell    80 S   3     bf  192 -   192         -1.400617903119          2.841053772299          2.286109732296
      0.3406134100D+02  0.2543930721D-01
      0.5123574600D+01  0.1900859489D+00
      0.1164662600D+01  0.8524411301D+00
 Atom H12      Shell    81 S   1     bf  193 -   193         -1.400617903119          2.841053772299          2.286109732296
      0.3272304100D+00  0.1000000000D+01
 Atom H12      Shell    82 S   1     bf  194 -   194         -1.400617903119          2.841053772299          2.286109732296
      0.1030724100D+00  0.1000000000D+01
 Atom H12      Shell    83 P   1     bf  195 -   197         -1.400617903119          2.841053772299          2.286109732296
      0.8000000000D+00  0.1000000000D+01
 Atom H13      Shell    84 S   3     bf  198 -   198         -2.901659519817          3.585651173696         -0.597355343734
      0.3406134100D+02  0.2543930721D-01
      0.5123574600D+01  0.1900859489D+00
      0.1164662600D+01  0.8524411301D+00
 Atom H13      Shell    85 S   1     bf  199 -   199         -2.901659519817          3.585651173696         -0.597355343734
      0.3272304100D+00  0.1000000000D+01
 Atom H13      Shell    86 S   1     bf  200 -   200         -2.901659519817          3.585651173696         -0.597355343734
      0.1030724100D+00  0.1000000000D+01
 Atom H13      Shell    87 P   1     bf  201 -   203         -2.901659519817          3.585651173696         -0.597355343734
      0.8000000000D+00  0.1000000000D+01
 Atom H14      Shell    88 S   3     bf  204 -   204          0.399212033691          3.902267334762         -0.315009472493
      0.3406134100D+02  0.2543930721D-01
      0.5123574600D+01  0.1900859489D+00
      0.1164662600D+01  0.8524411301D+00
 Atom H14      Shell    89 S   1     bf  205 -   205          0.399212033691          3.902267334762         -0.315009472493
      0.3272304100D+00  0.1000000000D+01
 Atom H14      Shell    90 S   1     bf  206 -   206          0.399212033691          3.902267334762         -0.315009472493
      0.1030724100D+00  0.1000000000D+01
 Atom H14      Shell    91 P   1     bf  207 -   209          0.399212033691          3.902267334762         -0.315009472493
      0.8000000000D+00  0.1000000000D+01
 Atom H15      Shell    92 S   3     bf  210 -   210         -3.616631566478         -1.580586086372          2.024341088916
      0.3406134100D+02  0.2543930721D-01
      0.5123574600D+01  0.1900859489D+00
      0.1164662600D+01  0.8524411301D+00
 Atom H15      Shell    93 S   1     bf  211 -   211         -3.616631566478         -1.580586086372          2.024341088916
      0.3272304100D+00  0.1000000000D+01
 Atom H15      Shell    94 S   1     bf  212 -   212         -3.616631566478         -1.580586086372          2.024341088916
      0.1030724100D+00  0.1000000000D+01
 Atom H15      Shell    95 P   1     bf  213 -   215         -3.616631566478         -1.580586086372          2.024341088916
      0.8000000000D+00  0.1000000000D+01
 Atom H16      Shell    96 S   3     bf  216 -   216         -4.957987550126         -0.692312801944         -0.896234428911
      0.3406134100D+02  0.2543930721D-01
      0.5123574600D+01  0.1900859489D+00
      0.1164662600D+01  0.8524411301D+00
 Atom H16      Shell    97 S   1     bf  217 -   217         -4.957987550126         -0.692312801944         -0.896234428911
      0.3272304100D+00  0.1000000000D+01
 Atom H16      Shell    98 S   1     bf  218 -   218         -4.957987550126         -0.692312801944         -0.896234428911
      0.1030724100D+00  0.1000000000D+01
 Atom H16      Shell    99 P   1     bf  219 -   221         -4.957987550126         -0.692312801944         -0.896234428911
      0.8000000000D+00  0.1000000000D+01
 Atom H17      Shell   100 S   3     bf  222 -   222         -3.125117517730         -3.474031184443         -0.677734844796
      0.3406134100D+02  0.2543930721D-01
      0.5123574600D+01  0.1900859489D+00
      0.1164662600D+01  0.8524411301D+00
 Atom H17      Shell   101 S   1     bf  223 -   223         -3.125117517730         -3.474031184443         -0.677734844796
      0.3272304100D+00  0.1000000000D+01
 Atom H17      Shell   102 S   1     bf  224 -   224         -3.125117517730         -3.474031184443         -0.677734844796
      0.1030724100D+00  0.1000000000D+01
 Atom H17      Shell   103 P   1     bf  225 -   227         -3.125117517730         -3.474031184443         -0.677734844796
      0.8000000000D+00  0.1000000000D+01
 There are   252 symmetry adapted cartesian basis functions of A   symmetry.
 There are   227 symmetry adapted basis functions of A   symmetry.
   227 basis functions,   351 primitive gaussians,   252 cartesian basis functions
    21 alpha electrons       21 beta electrons
       nuclear repulsion energy       192.6062482277 Hartrees.
 IExCor= 4639 DFT=T Ex+Corr=wB97XD ExCW=0 ScaHFX=  1.000000
 ScaDFX=  1.000000  1.000000  1.000000  1.000000 ScalE2=  1.000000  1.000000
 IRadAn=      5 IRanWt=     -1 IRanGd=            0 ICorTp=0 IEmpDi=121
  HFx wShort=  0.000000 wLong=  0.200000 cFull=  0.222036 cShort=  0.000000 cLong=  0.777964
  DFx wShort=  0.000000 wLong=  0.200000 cFull=  0.000000 cShort=  0.000000 cLong=  1.000000
 NAtoms=   17 NActive=   17 NUniq=   17 SFac= 1.00D+00 NAtFMM=   60 NAOKFM=F Big=F
 Integral buffers will be    131072 words long.
 Raffenetti 2 integral format.
 Two-electron integral symmetry is turned on.
 R6Disp:  Grimme-D2 Dispersion energy=       -0.0096950327 Hartrees.
 Nuclear repulsion after empirical dispersion term =      192.5965531950 Hartrees.
 Leave Link  301 at Fri Jul  9 19:19:36 2021, MaxMem=  4194304000 cpu:         0.5
 (Enter /home/minenky/programs//g09/l302.exe)
 NPDir=0 NMtPBC=     1 NCelOv=     1 NCel=       1 NClECP=     1 NCelD=      1
         NCelK=      1 NCelE2=     1 NClLst=     1 CellRange=     0.0.
 One-electron integrals computed using PRISM.
   1 Symmetry operations used in ECPInt.
 ECPInt:  NShTT=    5356 NPrTT=   15024 LenC2=    5329 LenP2D=   12652.
 LDataN:  DoStor=T MaxTD1= 6 Len=  172
 NBasis=   227 RedAO= T EigKep=  2.05D-04  NBF=   227
 NBsUse=   227 1.00D-06 EigRej= -1.00D+00 NBFU=   227
 Precomputing XC quadrature grid using
 IXCGrd= 4 IRadAn=           5 IRanWt=          -1 IRanGd=           0 AccXCQ= 0.00D+00.
 Generated NRdTot=       0 NPtTot=           0 NUsed=           0 NTot=          32
 NSgBfM=   251   251   251   251   251 MxSgAt=    17 MxSgA2=    17.
 Leave Link  302 at Fri Jul  9 19:19:37 2021, MaxMem=  4194304000 cpu:         7.0
 (Enter /home/minenky/programs//g09/l303.exe)
 DipDrv:  MaxL=1.
 Leave Link  303 at Fri Jul  9 19:19:37 2021, MaxMem=  4194304000 cpu:         3.9
 (Enter /home/minenky/programs//g09/l401.exe)
 ExpMin= 9.52D-02 ExpMax= 1.36D+04 ExpMxC= 4.63D+02 IAcc=3 IRadAn=         5 AccDes= 0.00D+00
 Harris functional with IExCor= 4639 and IRadAn=       5 diagonalized for initial guess.
 HarFok:  IExCor= 4639 AccDes= 0.00D+00 IRadAn=         5 IDoV= 1 UseB2=F ITyADJ=14
 ICtDFT=  3500011 ScaDFX=  1.000000  1.000000  1.000000  1.000000
 FoFCou: FMM=F IPFlag=           0 FMFlag=      100000 FMFlg1=           0
         NFxFlg=           0 DoJE=T BraDBF=F KetDBF=T FulRan=T
         wScrn=  0.000000 ICntrl=     500 IOpCl=  0 I1Cent=   200000004 NGrid=           0
         NMat0=    1 NMatS0=      1 NMatT0=    0 NMatD0=    1 NMtDS0=    0 NMtDT0=    0
 Petite list used in FoFCou.
 Harris En= -187.706821037719    
 JPrj=0 DoOrth=F DoCkMO=F.
 Leave Link  401 at Fri Jul  9 19:19:40 2021, MaxMem=  4194304000 cpu:        35.8
 (Enter /home/minenky/programs//g09/l502.exe)
 Closed shell SCF:
 Using DIIS extrapolation, IDIIS=  1040.
 Integral symmetry usage will be decided dynamically.
 Keep R1 ints in memory in canonical form, NReq=678138020.
 IVT=      344246 IEndB=      344246 NGot=  4194304000 MDV=  3524262993
 LenX=  3524262993 LenY=  3524199048
 Requested convergence on RMS density matrix=1.00D-08 within 380 cycles.
 Requested convergence on MAX density matrix=1.00D-06.
 Requested convergence on             energy=1.00D-06.
 No special actions if energy rises.
 FoFCou: FMM=F IPFlag=           0 FMFlag=           0 FMFlg1=           0
         NFxFlg=           0 DoJE=F BraDBF=F KetDBF=F FulRan=T
         wScrn=  0.000000 ICntrl=     600 IOpCl=  0 I1Cent=           0 NGrid=           0
         NMat0=    1 NMatS0=  25878 NMatT0=    0 NMatD0=    1 NMtDS0=    0 NMtDT0=    0
 Symmetry not used in FoFCou.
 Integral accuracy reduced to 1.0D-05 until final iterations.

 Cycle   1  Pass 0  IDiag  1:
 E= -197.707271048064    
 DIIS: error= 6.25D-02 at cycle   1 NSaved=   1.
 NSaved= 1 IEnMin= 1 EnMin= -197.707271048064     IErMin= 1 ErrMin= 6.25D-02
 ErrMax= 6.25D-02  0.00D+00 EMaxC= 1.00D-01 BMatC= 4.26D-01 BMatP= 4.26D-01
 IDIUse=3 WtCom= 3.75D-01 WtEn= 6.25D-01
 Coeff-Com:  0.100D+01
 Coeff-En:   0.100D+01
 Coeff:      0.100D+01
 Gap=     0.481 Goal=   None    Shift=    0.000
 GapD=    0.481 DampG=2.000 DampE=0.500 DampFc=1.0000 IDamp=-1.
 RMSDP=1.40D-03 MaxDP=5.11D-02              OVMax= 6.11D-02

 Cycle   2  Pass 0  IDiag  1:
 E= -197.762658526892     Delta-E=       -0.055387478829 Rises=F Damp=F
 DIIS: error= 1.21D-02 at cycle   2 NSaved=   2.
 NSaved= 2 IEnMin= 2 EnMin= -197.762658526892     IErMin= 2 ErrMin= 1.21D-02
 ErrMax= 1.21D-02  0.00D+00 EMaxC= 1.00D-01 BMatC= 2.02D-02 BMatP= 4.26D-01
 IDIUse=3 WtCom= 8.79D-01 WtEn= 1.21D-01
 Coeff-Com:  0.102D+00 0.898D+00
 Coeff-En:   0.000D+00 0.100D+01
 Coeff:      0.900D-01 0.910D+00
 Gap=     0.534 Goal=   None    Shift=    0.000
 RMSDP=6.86D-04 MaxDP=2.00D-02 DE=-5.54D-02 OVMax= 3.77D-02

 Cycle   3  Pass 0  IDiag  1:
 E= -197.774327714198     Delta-E=       -0.011669187306 Rises=F Damp=F
 DIIS: error= 7.43D-03 at cycle   3 NSaved=   3.
 NSaved= 3 IEnMin= 3 EnMin= -197.774327714198     IErMin= 3 ErrMin= 7.43D-03
 ErrMax= 7.43D-03  0.00D+00 EMaxC= 1.00D-01 BMatC= 8.59D-03 BMatP= 2.02D-02
 IDIUse=3 WtCom= 9.26D-01 WtEn= 7.43D-02
 Coeff-Com:  0.245D-01 0.399D+00 0.577D+00
 Coeff-En:   0.000D+00 0.250D+00 0.750D+00
 Coeff:      0.227D-01 0.388D+00 0.590D+00
 Gap=     0.503 Goal=   None    Shift=    0.000
 RMSDP=2.56D-04 MaxDP=7.24D-03 DE=-1.17D-02 OVMax= 1.60D-02

 Cycle   4  Pass 0  IDiag  1:
 E= -197.782434640379     Delta-E=       -0.008106926180 Rises=F Damp=F
 DIIS: error= 3.94D-04 at cycle   4 NSaved=   4.
 NSaved= 4 IEnMin= 4 EnMin= -197.782434640379     IErMin= 4 ErrMin= 3.94D-04
 ErrMax= 3.94D-04  0.00D+00 EMaxC= 1.00D-01 BMatC= 2.28D-05 BMatP= 8.59D-03
 IDIUse=3 WtCom= 9.96D-01 WtEn= 3.94D-03
 Coeff-Com:  0.164D-02 0.306D-01 0.728D-01 0.895D+00
 Coeff-En:   0.000D+00 0.000D+00 0.000D+00 0.100D+01
 Coeff:      0.163D-02 0.305D-01 0.725D-01 0.895D+00
 Gap=     0.503 Goal=   None    Shift=    0.000
 RMSDP=3.17D-05 MaxDP=6.20D-04 DE=-8.11D-03 OVMax= 1.51D-03

 Cycle   5  Pass 0  IDiag  1:
 E= -197.782457056628     Delta-E=       -0.000022416249 Rises=F Damp=F
 DIIS: error= 1.19D-04 at cycle   5 NSaved=   5.
 NSaved= 5 IEnMin= 5 EnMin= -197.782457056628     IErMin= 5 ErrMin= 1.19D-04
 ErrMax= 1.19D-04  0.00D+00 EMaxC= 1.00D-01 BMatC= 5.76D-06 BMatP= 2.28D-05
 IDIUse=3 WtCom= 9.99D-01 WtEn= 1.19D-03
 Coeff-Com: -0.218D-02-0.355D-01-0.389D-01 0.365D+00 0.712D+00
 Coeff-En:   0.000D+00 0.000D+00 0.000D+00 0.000D+00 0.100D+01
 Coeff:     -0.218D-02-0.355D-01-0.389D-01 0.365D+00 0.712D+00
 Gap=     0.502 Goal=   None    Shift=    0.000
 RMSDP=9.59D-06 MaxDP=2.48D-04 DE=-2.24D-05 OVMax= 5.10D-04

 Initial convergence to 1.0D-05 achieved.  Increase integral accuracy.
 Cycle   6  Pass 1  IDiag  1:
 E= -197.782497009379     Delta-E=       -0.000039952752 Rises=F Damp=F
 DIIS: error= 3.43D-05 at cycle   1 NSaved=   1.
 NSaved= 1 IEnMin= 1 EnMin= -197.782497009379     IErMin= 1 ErrMin= 3.43D-05
 ErrMax= 3.43D-05  0.00D+00 EMaxC= 1.00D-01 BMatC= 3.93D-07 BMatP= 3.93D-07
 IDIUse=1 WtCom= 1.00D+00 WtEn= 0.00D+00
 Coeff-Com:  0.100D+01
 Coeff:      0.100D+01
 Gap=     0.502 Goal=   None    Shift=    0.000
 RMSDP=9.59D-06 MaxDP=2.48D-04 DE=-4.00D-05 OVMax= 1.22D-04

 Cycle   7  Pass 1  IDiag  1:
 E= -197.782497291007     Delta-E=       -0.000000281627 Rises=F Damp=F
 DIIS: error= 1.25D-05 at cycle   2 NSaved=   2.
 NSaved= 2 IEnMin= 2 EnMin= -197.782497291007     IErMin= 2 ErrMin= 1.25D-05
 ErrMax= 1.25D-05  0.00D+00 EMaxC= 1.00D-01 BMatC= 3.58D-08 BMatP= 3.93D-07
 IDIUse=1 WtCom= 1.00D+00 WtEn= 0.00D+00
 Coeff-Com:  0.104D+00 0.896D+00
 Coeff:      0.104D+00 0.896D+00
 Gap=     0.502 Goal=   None    Shift=    0.000
 RMSDP=1.15D-06 MaxDP=3.00D-05 DE=-2.82D-07 OVMax= 6.16D-05

 Cycle   8  Pass 1  IDiag  1:
 E= -197.782497314662     Delta-E=       -0.000000023656 Rises=F Damp=F
 DIIS: error= 9.58D-06 at cycle   3 NSaved=   3.
 NSaved= 3 IEnMin= 3 EnMin= -197.782497314662     IErMin= 3 ErrMin= 9.58D-06
 ErrMax= 9.58D-06  0.00D+00 EMaxC= 1.00D-01 BMatC= 1.61D-08 BMatP= 3.58D-08
 IDIUse=1 WtCom= 1.00D+00 WtEn= 0.00D+00
 Coeff-Com: -0.403D-01 0.391D+00 0.649D+00
 Coeff:     -0.403D-01 0.391D+00 0.649D+00
 Gap=     0.502 Goal=   None    Shift=    0.000
 RMSDP=4.43D-07 MaxDP=1.37D-05 DE=-2.37D-08 OVMax= 2.67D-05

 Cycle   9  Pass 1  IDiag  1:
 E= -197.782497330272     Delta-E=       -0.000000015610 Rises=F Damp=F
 DIIS: error= 8.12D-07 at cycle   4 NSaved=   4.
 NSaved= 4 IEnMin= 4 EnMin= -197.782497330272     IErMin= 4 ErrMin= 8.12D-07
 ErrMax= 8.12D-07  0.00D+00 EMaxC= 1.00D-01 BMatC= 1.47D-10 BMatP= 1.61D-08
 IDIUse=1 WtCom= 1.00D+00 WtEn= 0.00D+00
 Coeff-Com: -0.102D-01 0.415D-01 0.105D+00 0.863D+00
 Coeff:     -0.102D-01 0.415D-01 0.105D+00 0.863D+00
 Gap=     0.502 Goal=   None    Shift=    0.000
 RMSDP=1.29D-07 MaxDP=2.31D-06 DE=-1.56D-08 OVMax= 4.13D-06

 Cycle  10  Pass 1  IDiag  1:
 E= -197.782497330492     Delta-E=       -0.000000000220 Rises=F Damp=F
 DIIS: error= 2.05D-07 at cycle   5 NSaved=   5.
 NSaved= 5 IEnMin= 5 EnMin= -197.782497330492     IErMin= 5 ErrMin= 2.05D-07
 ErrMax= 2.05D-07  0.00D+00 EMaxC= 1.00D-01 BMatC= 1.17D-11 BMatP= 1.47D-10
 IDIUse=1 WtCom= 1.00D+00 WtEn= 0.00D+00
 Coeff-Com:  0.335D-02-0.366D-01-0.603D-01 0.662D-01 0.103D+01
 Coeff:      0.335D-02-0.366D-01-0.603D-01 0.662D-01 0.103D+01
 Gap=     0.502 Goal=   None    Shift=    0.000
 RMSDP=6.58D-08 MaxDP=1.18D-06 DE=-2.20D-10 OVMax= 1.98D-06

 Cycle  11  Pass 1  IDiag  1:
 E= -197.782497330518     Delta-E=       -0.000000000027 Rises=F Damp=F
 DIIS: error= 3.44D-08 at cycle   6 NSaved=   6.
 NSaved= 6 IEnMin= 6 EnMin= -197.782497330518     IErMin= 6 ErrMin= 3.44D-08
 ErrMax= 3.44D-08  0.00D+00 EMaxC= 1.00D-01 BMatC= 3.72D-13 BMatP= 1.17D-11
 IDIUse=1 WtCom= 1.00D+00 WtEn= 0.00D+00
 Coeff-Com:  0.889D-03-0.776D-02-0.142D-01-0.119D-01 0.188D+00 0.845D+00
 Coeff:      0.889D-03-0.776D-02-0.142D-01-0.119D-01 0.188D+00 0.845D+00
 Gap=     0.502 Goal=   None    Shift=    0.000
 RMSDP=8.15D-09 MaxDP=2.00D-07 DE=-2.66D-11 OVMax= 2.82D-07

 SCF Done:  E(RwB97XD) =  -197.782497331     A.U. after   11 cycles
            NFock= 11  Conv=0.82D-08     -V/T= 2.0060
 KE= 1.965992693458D+02 PE=-8.423171504355D+02 EE= 2.553388305642D+02
 Leave Link  502 at Fri Jul  9 19:20:04 2021, MaxMem=  4194304000 cpu:       260.2
 (Enter /home/minenky/programs//g09/l601.exe)
 Copying SCF densities to generalized density rwf, IOpCl= 0 IROHF=0.

 **********************************************************************

            Population analysis using the SCF density.

 **********************************************************************

 Orbital symmetries:
       Occupied  (A) (A) (A) (A) (A) (A) (A) (A) (A) (A) (A) (A)
                 (A) (A) (A) (A) (A) (A) (A) (A) (A)
       Virtual   (A) (A) (A) (A) (A) (A) (A) (A) (A) (A) (A) (A)
                 (A) (A) (A) (A) (A) (A) (A) (A) (A) (A) (A) (A)
                 (A) (A) (A) (A) (A) (A) (A) (A) (A) (A) (A) (A)
                 (A) (A) (A) (A) (A) (A) (A) (A) (A) (A) (A) (A)
                 (A) (A) (A) (A) (A) (A) (A) (A) (A) (A) (A) (A)
                 (A) (A) (A) (A) (A) (A) (A) (A) (A) (A) (A) (A)
                 (A) (A) (A) (A) (A) (A) (A) (A) (A) (A) (A) (A)
                 (A) (A) (A) (A) (A) (A) (A) (A) (A) (A) (A) (A)
                 (A) (A) (A) (A) (A) (A) (A) (A) (A) (A) (A) (A)
                 (A) (A) (A) (A) (A) (A) (A) (A) (A) (A) (A) (A)
                 (A) (A) (A) (A) (A) (A) (A) (A) (A) (A) (A) (A)
                 (A) (A) (A) (A) (A) (A) (A) (A) (A) (A) (A) (A)
                 (A) (A) (A) (A) (A) (A) (A) (A) (A) (A) (A) (A)
                 (A) (A) (A) (A) (A) (A) (A) (A) (A) (A) (A) (A)
                 (A) (A) (A) (A) (A) (A) (A) (A) (A) (A) (A) (A)
                 (A) (A) (A) (A) (A) (A) (A) (A) (A) (A) (A) (A)
                 (A) (A) (A) (A) (A) (A) (A) (A) (A) (A) (A) (A)
                 (A) (A)
 The electronic state is 1-A.
 Alpha  occ. eigenvalues --  -10.28171 -10.27267 -10.26665 -10.26515 -10.26500
 Alpha  occ. eigenvalues --   -0.90999  -0.83010  -0.77799  -0.71873  -0.64712
 Alpha  occ. eigenvalues --   -0.55421  -0.53174  -0.51485  -0.49612  -0.46680
 Alpha  occ. eigenvalues --   -0.46260  -0.44102  -0.42921  -0.40111  -0.39855
 Alpha  occ. eigenvalues --   -0.39283
 Alpha virt. eigenvalues --    0.10940   0.13621   0.14663   0.15405   0.17645
 Alpha virt. eigenvalues --    0.17842   0.18674   0.19728   0.20768   0.21456
 Alpha virt. eigenvalues --    0.22901   0.23362   0.23516   0.25677   0.27115
 Alpha virt. eigenvalues --    0.28180   0.28963   0.31672   0.32530   0.34860
 Alpha virt. eigenvalues --    0.35531   0.36441   0.39446   0.40080   0.42839
 Alpha virt. eigenvalues --    0.43319   0.46911   0.47900   0.49509   0.49850
 Alpha virt. eigenvalues --    0.50582   0.51040   0.52055   0.53264   0.54037
 Alpha virt. eigenvalues --    0.54674   0.55282   0.55762   0.56819   0.57485
 Alpha virt. eigenvalues --    0.57703   0.59368   0.60131   0.67819   0.69255
 Alpha virt. eigenvalues --    0.73001   0.74340   0.75944   0.79394   0.82380
 Alpha virt. eigenvalues --    0.86988   0.88391   0.91030   0.93787   0.96402
 Alpha virt. eigenvalues --    0.98890   1.00741   1.04086   1.08256   1.08569
 Alpha virt. eigenvalues --    1.09899   1.11000   1.14325   1.16724   1.20202
 Alpha virt. eigenvalues --    1.23122   1.23536   1.26678   1.28662   1.29985
 Alpha virt. eigenvalues --    1.33077   1.38552   1.42657   1.52470   1.59119
 Alpha virt. eigenvalues --    1.60938   1.61915   1.62970   1.64000   1.65165
 Alpha virt. eigenvalues --    1.65618   1.65973   1.68541   1.69012   1.70641
 Alpha virt. eigenvalues --    1.71989   1.72523   1.76458   1.80065   1.81040
 Alpha virt. eigenvalues --    1.82395   1.86795   1.88909   1.89288   1.94877
 Alpha virt. eigenvalues --    1.98237   2.02047   2.04873   2.06753   2.08458
 Alpha virt. eigenvalues --    2.14047   2.17684   2.19247   2.19968   2.20737
 Alpha virt. eigenvalues --    2.26980   2.32133   2.36313   2.38142   2.39267
 Alpha virt. eigenvalues --    2.41919   2.43357   2.44509   2.45340   2.47280
 Alpha virt. eigenvalues --    2.48922   2.50511   2.52422   2.53964   2.54838
 Alpha virt. eigenvalues --    2.60166   2.61691   2.62965   2.65362   2.66905
 Alpha virt. eigenvalues --    2.68339   2.69925   2.70113   2.73218   2.74650
 Alpha virt. eigenvalues --    2.76174   2.78322   2.79321   2.82734   2.86631
 Alpha virt. eigenvalues --    2.89229   2.91409   2.95828   2.98051   3.00238
 Alpha virt. eigenvalues --    3.03164   3.08287   3.13680   3.16733   3.18580
 Alpha virt. eigenvalues --    3.19389   3.21642   3.23050   3.25109   3.29317
 Alpha virt. eigenvalues --    3.30548   3.34088   3.36112   3.37747   3.40622
 Alpha virt. eigenvalues --    3.42365   3.44443   3.46203   3.47812   3.49610
 Alpha virt. eigenvalues --    3.51325   3.54727   3.55849   3.57976   3.61167
 Alpha virt. eigenvalues --    3.64945   3.65577   3.68479   3.71165   3.73160
 Alpha virt. eigenvalues --    3.75632   3.79996   3.83832   3.85054   3.89555
 Alpha virt. eigenvalues --    3.98577   3.99120   4.05964   4.08263   4.11915
 Alpha virt. eigenvalues --    4.14055   4.16656   4.20478   4.25592   4.31536
 Alpha virt. eigenvalues --    4.42592   4.44404   4.47482   4.48218   4.50755
 Alpha virt. eigenvalues --    4.52399   4.57126   4.62223   4.69291   4.72640
 Alpha virt. eigenvalues --    4.77204   4.85560   4.90333   4.96919   5.03069
 Alpha virt. eigenvalues --    5.14309  22.42439  22.46689  22.50545  22.57994
 Alpha virt. eigenvalues --   22.71125
          Condensed to atoms (all electrons):
               1          2          3          4          5          6
     1  C    4.918226   0.294718  -0.047834   0.416100   0.425852   0.405853
     2  C    0.294718   4.999721   0.324799  -0.039189  -0.042117  -0.040783
     3  C   -0.047834   0.324799   4.984641   0.009500  -0.011480   0.001991
     4  H    0.416100  -0.039189   0.009500   0.551169  -0.023494  -0.022808
     5  H    0.425852  -0.042117  -0.011480  -0.023494   0.562460  -0.029580
     6  H    0.405853  -0.040783   0.001991  -0.022808  -0.029580   0.574578
     7  H   -0.038602   0.406951  -0.022939  -0.003917  -0.004252   0.007292
     8  H   -0.026842   0.414498  -0.048954  -0.005955   0.006254  -0.004474
     9  H   -0.008434  -0.048785   0.431558  -0.000166   0.000702   0.004148
    10  C    0.012472  -0.045458   0.302193  -0.000340   0.005406  -0.003681
    11  C    0.011575  -0.055886   0.318488  -0.000433  -0.000586   0.000098
    12  H   -0.002516  -0.006514  -0.025201  -0.000086   0.000124   0.000315
    13  H   -0.000510   0.010741  -0.039982   0.000022   0.000165  -0.000092
    14  H    0.002440  -0.008114  -0.042795   0.000261  -0.003856   0.000354
    15  H   -0.000014  -0.011686  -0.022247   0.000000   0.000045  -0.000007
    16  H   -0.000576   0.011814  -0.044728   0.000013   0.000005   0.000003
    17  H   -0.000102  -0.004527  -0.042911  -0.000028  -0.000009   0.000061
               7          8          9         10         11         12
     1  C   -0.038602  -0.026842  -0.008434   0.012472   0.011575  -0.002516
     2  C    0.406951   0.414498  -0.048785  -0.045458  -0.055886  -0.006514
     3  C   -0.022939  -0.048954   0.431558   0.302193   0.318488  -0.025201
     4  H   -0.003917  -0.005955  -0.000166  -0.000340  -0.000433  -0.000086
     5  H   -0.004252   0.006254   0.000702   0.005406  -0.000586   0.000124
     6  H    0.007292  -0.004474   0.004148  -0.003681   0.000098   0.000315
     7  H    0.600639  -0.030485   0.009110  -0.015431  -0.006244   0.005585
     8  H   -0.030485   0.601012  -0.005521   0.011205  -0.005570  -0.000065
     9  H    0.009110  -0.005521   0.659744  -0.061338  -0.040472   0.009123
    10  C   -0.015431   0.011205  -0.061338   4.982925  -0.042472   0.394631
    11  C   -0.006244  -0.005570  -0.040472  -0.042472   4.926887  -0.007612
    12  H    0.005585  -0.000065   0.009123   0.394631  -0.007612   0.572511
    13  H   -0.000151  -0.000320  -0.004927   0.412643  -0.004961  -0.024264
    14  H    0.000435  -0.000372  -0.004468   0.421838   0.008838  -0.025883
    15  H    0.005010  -0.000313   0.009087  -0.011456   0.404001   0.005163
    16  H   -0.000238  -0.000074  -0.006186  -0.004725   0.417910  -0.000289
    17  H   -0.000289   0.003973  -0.006048   0.010611   0.415491  -0.000182
              13         14         15         16         17
     1  C   -0.000510   0.002440  -0.000014  -0.000576  -0.000102
     2  C    0.010741  -0.008114  -0.011686   0.011814  -0.004527
     3  C   -0.039982  -0.042795  -0.022247  -0.044728  -0.042911
     4  H    0.000022   0.000261   0.000000   0.000013  -0.000028
     5  H    0.000165  -0.003856   0.000045   0.000005  -0.000009
     6  H   -0.000092   0.000354  -0.000007   0.000003   0.000061
     7  H   -0.000151   0.000435   0.005010  -0.000238  -0.000289
     8  H   -0.000320  -0.000372  -0.000313  -0.000074   0.003973
     9  H   -0.004927  -0.004468   0.009087  -0.006186  -0.006048
    10  C    0.412643   0.421838  -0.011456  -0.004725   0.010611
    11  C   -0.004961   0.008838   0.404001   0.417910   0.415491
    12  H   -0.024264  -0.025883   0.005163  -0.000289  -0.000182
    13  H    0.555414  -0.021595  -0.000247   0.003377  -0.000062
    14  H   -0.021595   0.553793  -0.000132   0.000016  -0.000341
    15  H   -0.000247  -0.000132   0.570019  -0.026171  -0.026073
    16  H    0.003377   0.000016  -0.026171   0.556628  -0.021017
    17  H   -0.000062  -0.000341  -0.026073  -0.021017   0.558896
 Mulliken charges:
               1
     1  C   -0.361804
     2  C   -0.160181
     3  C   -0.024097
     4  H    0.119351
     5  H    0.114363
     6  H    0.106735
     7  H    0.087526
     8  H    0.092001
     9  H    0.062872
    10  C   -0.369024
    11  C   -0.339052
    12  H    0.105161
    13  H    0.114749
    14  H    0.119583
    15  H    0.105020
    16  H    0.114238
    17  H    0.112558
 Sum of Mulliken charges =   0.00000
 Mulliken charges with hydrogens summed into heavy atoms:
               1
     1  C   -0.021356
     2  C    0.019346
     3  C    0.038776
    10  C   -0.029531
    11  C   -0.007236
 Electronic spatial extent (au):  <R**2>=            561.8832
 Charge=              0.0000 electrons
 Dipole moment (field-independent basis, Debye):
    X=              0.0307    Y=             -0.0509    Z=             -0.0809  Tot=              0.1004
 Quadrupole moment (field-independent basis, Debye-Ang):
   XX=            -35.6846   YY=            -35.4233   ZZ=            -34.7839
   XY=             -0.3208   XZ=              0.2586   YZ=              0.0888
 Traceless Quadrupole moment (field-independent basis, Debye-Ang):
   XX=             -0.3873   YY=             -0.1260   ZZ=              0.5134
   XY=             -0.3208   XZ=              0.2586   YZ=              0.0888
 Octapole moment (field-independent basis, Debye-Ang**2):
  XXX=             -0.4411  YYY=             -1.6058  ZZZ=              0.2836  XYY=              1.1429
  XXY=              0.5834  XXZ=             -0.4052  XZZ=             -0.1546  YZZ=             -0.0201
  YYZ=             -0.9993  XYZ=              0.2229
 Hexadecapole moment (field-independent basis, Debye-Ang**3):
 XXXX=           -481.6514 YYYY=           -230.8264 ZZZZ=            -81.9441 XXXY=             -8.1546
 XXXZ=              6.3080 YYYX=              1.6307 YYYZ=              1.1080 ZZZX=             -2.2201
 ZZZY=              0.2774 XXYY=           -117.5852 XXZZ=            -93.2866 YYZZ=            -53.8635
 XXYZ=             -1.7128 YYXZ=              1.6730 ZZXY=             -0.4233
 N-N= 1.925965531950D+02 E-N=-8.423171533529D+02  KE= 1.965992693458D+02
 No NMR shielding tensors so no spin-rotation constants.
 Leave Link  601 at Fri Jul  9 19:20:05 2021, MaxMem=  4194304000 cpu:         8.0
 (Enter /home/minenky/programs//g09/l701.exe)
 Compute integral first derivatives.
 ... and contract with generalized density number  0.
 R6Disp: Adding Grimme-D2 dispersion energy 1st derivatives to the gradient.
   1 Symmetry operations used in ECPInt.
 ECPInt:  NShTT=    5356 NPrTT=   15024 LenC2=    5329 LenP2D=   12652.
 LDataN:  DoStor=T MaxTD1= 7 Len=  274
 Leave Link  701 at Fri Jul  9 19:20:06 2021, MaxMem=  4194304000 cpu:        17.0
 (Enter /home/minenky/programs//g09/l702.exe)
 L702 exits ... SP integral derivatives will be done elsewhere.
 Leave Link  702 at Fri Jul  9 19:20:06 2021, MaxMem=  4194304000 cpu:         0.1
 (Enter /home/minenky/programs//g09/l703.exe)
 Compute integral first derivatives, UseDBF=F ICtDFT=           0.
 Integral derivatives from FoFJK, PRISM(SPDF).
 Calling FoFJK, ICntrl=      2127 FMM=F ISym2X=0 I1Cent= 0 IOpClX= 0 NMat=1 NMatS=1 NMatT=0.
 FoFJK:  IHMeth= 1 ICntrl=    2127 DoSepK=T KAlg= 0 I1Cent=   0 FoldK=F
 IRaf=         1 NMat=   1 IRICut=       1 DoRegI=T DoRafI=F ISym2E= 0.
 FoFCou: FMM=F IPFlag=           0 FMFlag=      100000 FMFlg1=         800
         NFxFlg=           0 DoJE=F BraDBF=F KetDBF=F FulRan=T
         wScrn=  0.000000 ICntrl=    2527 IOpCl=  0 I1Cent=           0 NGrid=           0
         NMat0=    1 NMatS0=      1 NMatT0=    0 NMatD0=    1 NMtDS0=    0 NMtDT0=    0
 Symmetry not used in FoFCou.
 Leave Link  703 at Fri Jul  9 19:20:21 2021, MaxMem=  4194304000 cpu:       175.6
 (Enter /home/minenky/programs//g09/l716.exe)
 Dipole        = 1.20661783D-02-2.00387881D-02-3.18272341D-02
 ***** Axes restored to original set *****
 -------------------------------------------------------------------
 Center     Atomic                   Forces (Hartrees/Bohr)
 Number     Number              X              Y              Z
 -------------------------------------------------------------------
      1        6          -0.001043457   -0.000599379    0.000120178
      2        6          -0.000080909    0.000974169   -0.000602528
      3        6           0.000066542    0.000086092    0.000587648
      4        1          -0.000319408    0.000007601    0.000012588
      5        1          -0.000107244    0.000031375    0.000192589
      6        1          -0.000235307   -0.000056415    0.000103933
      7        1           0.000025252    0.000138947   -0.000063285
      8        1           0.000049065    0.000187340   -0.000103619
      9        1          -0.000084737    0.000017815    0.000366498
     10        6          -0.000045197   -0.001400682   -0.000220573
     11        6           0.001101273    0.000667363   -0.000173259
     12        1           0.000044199   -0.000204090    0.000059795
     13        1           0.000032988   -0.000141852   -0.000064876
     14        1           0.000145278   -0.000001786   -0.000195821
     15        1           0.000179259    0.000116103    0.000083359
     16        1           0.000165152    0.000090956   -0.000047768
     17        1           0.000107252    0.000086443   -0.000054861
 -------------------------------------------------------------------
 Cartesian Forces:  Max     0.001400682 RMS     0.000383960
 Leave Link  716 at Fri Jul  9 19:20:21 2021, MaxMem=  4194304000 cpu:         0.1
 (Enter /home/minenky/programs//g09/l103.exe)

 GradGradGradGradGradGradGradGradGradGradGradGradGradGradGradGradGradGrad
 Berny optimization.
 FormGI is forming the generalized inverse of G from B-inverse, IUseBI=4.
 Internal  Forces:  Max     0.001854201 RMS     0.000421397
 Search for a local minimum.
 Step number   1 out of a maximum of   92
 All quantities printed in internal units (Hartrees-Bohrs-Radians)
 RMS Force = .42140D-03 SwitMx=.10000D-02 MixMth= 2
 Mixed Optimization -- En-DIIS/RFO-DIIS
 Second derivative matrix not updated -- first step.
 ITU=  0
     Eigenvalues ---    0.00315   0.00377   0.00384   0.00415   0.03330
     Eigenvalues ---    0.03494   0.04732   0.04783   0.04916   0.05416
     Eigenvalues ---    0.05451   0.05469   0.05551   0.05560   0.05575
     Eigenvalues ---    0.08696   0.12464   0.16000   0.16000   0.16000
     Eigenvalues ---    0.16000   0.16000   0.16000   0.16000   0.16000
     Eigenvalues ---    0.16000   0.16695   0.17028   0.21937   0.29052
     Eigenvalues ---    0.29478   0.29527   0.29744   0.33988   0.34115
     Eigenvalues ---    0.34306   0.34347   0.34379   0.34457   0.34570
     Eigenvalues ---    0.34583   0.34591   0.34637   0.34700   0.34758
 RFO step:  Lambda=-6.09500088D-05 EMin= 3.15455752D-03
 Linear search not attempted -- first point.
 Iteration  1 RMS(Cart)=  0.00910965 RMS(Int)=  0.00002935
 Iteration  2 RMS(Cart)=  0.00003617 RMS(Int)=  0.00000097
 Iteration  3 RMS(Cart)=  0.00000000 RMS(Int)=  0.00000097
 ITry= 1 IFail=0 DXMaxC= 3.33D-02 DCOld= 1.00D+10 DXMaxT= 3.00D-01 DXLimC= 3.00D+00 Rises=F
 Variable       Old X    -DE/DX   Delta X   Delta X   Delta X     New X
                                 (Linear)    (Quad)   (Total)
    R1        2.88476  -0.00185   0.00000  -0.00623  -0.00623   2.87853
    R2        2.06269  -0.00024   0.00000  -0.00071  -0.00071   2.06198
    R3        2.06165   0.00009   0.00000   0.00025   0.00025   2.06190
    R4        2.06565  -0.00013   0.00000  -0.00038  -0.00038   2.06528
    R5        2.89895  -0.00181   0.00000  -0.00624  -0.00624   2.89270
    R6        2.07137  -0.00006   0.00000  -0.00019  -0.00019   2.07118
    R7        2.06816  -0.00015   0.00000  -0.00044  -0.00044   2.06772
    R8        2.07350  -0.00037   0.00000  -0.00110  -0.00110   2.07240
    R9        2.89017  -0.00180   0.00000  -0.00612  -0.00612   2.88405
   R10        2.88917  -0.00183   0.00000  -0.00618  -0.00618   2.88299
   R11        2.06748   0.00005   0.00000   0.00013   0.00013   2.06761
   R12        2.06345  -0.00006   0.00000  -0.00017  -0.00017   2.06328
   R13        2.06069   0.00016   0.00000   0.00047   0.00047   2.06116
   R14        2.06695   0.00005   0.00000   0.00015   0.00015   2.06710
   R15        2.06358  -0.00008   0.00000  -0.00022  -0.00022   2.06335
   R16        2.06379  -0.00006   0.00000  -0.00016  -0.00016   2.06363
    A1        1.93745  -0.00021   0.00000  -0.00141  -0.00141   1.93603
    A2        1.95335  -0.00016   0.00000  -0.00106  -0.00106   1.95229
    A3        1.93686  -0.00022   0.00000  -0.00118  -0.00118   1.93568
    A4        1.87478   0.00016   0.00000   0.00067   0.00067   1.87545
    A5        1.87898   0.00024   0.00000   0.00164   0.00164   1.88061
    A6        1.87921   0.00022   0.00000   0.00158   0.00158   1.88079
    A7        2.00288  -0.00030   0.00000  -0.00185  -0.00185   2.00103
    A8        1.91298   0.00003   0.00000  -0.00033  -0.00033   1.91265
    A9        1.90190   0.00008   0.00000   0.00011   0.00011   1.90201
   A10        1.89680   0.00012   0.00000   0.00053   0.00053   1.89734
   A11        1.89194   0.00006   0.00000   0.00001   0.00001   1.89195
   A12        1.85125   0.00003   0.00000   0.00183   0.00183   1.85307
   A13        1.87596   0.00010   0.00000   0.00220   0.00220   1.87816
   A14        1.95981  -0.00001   0.00000  -0.00111  -0.00111   1.95870
   A15        1.92879  -0.00013   0.00000  -0.00187  -0.00188   1.92692
   A16        1.88350   0.00000   0.00000   0.00097   0.00097   1.88447
   A17        1.88355   0.00006   0.00000   0.00143   0.00143   1.88498
   A18        1.92927  -0.00001   0.00000  -0.00132  -0.00133   1.92794
   A19        1.92946  -0.00022   0.00000  -0.00123  -0.00123   1.92823
   A20        1.93592  -0.00014   0.00000  -0.00094  -0.00094   1.93499
   A21        1.95624  -0.00013   0.00000  -0.00089  -0.00089   1.95535
   A22        1.87917   0.00020   0.00000   0.00135   0.00135   1.88052
   A23        1.88216   0.00021   0.00000   0.00144   0.00144   1.88360
   A24        1.87798   0.00012   0.00000   0.00046   0.00046   1.87843
   A25        1.93156  -0.00025   0.00000  -0.00156  -0.00156   1.93000
   A26        1.94302  -0.00018   0.00000  -0.00113  -0.00113   1.94189
   A27        1.94323  -0.00010   0.00000  -0.00057  -0.00057   1.94265
   A28        1.87896   0.00021   0.00000   0.00126   0.00125   1.88021
   A29        1.88004   0.00019   0.00000   0.00125   0.00125   1.88129
   A30        1.88440   0.00015   0.00000   0.00095   0.00095   1.88535
    D1       -3.06517   0.00002   0.00000   0.00655   0.00655  -3.05862
    D2        1.07840   0.00005   0.00000   0.00743   0.00743   1.08583
    D3       -0.94037  -0.00005   0.00000   0.00537   0.00537  -0.93501
    D4        1.12347   0.00006   0.00000   0.00738   0.00738   1.13085
    D5       -1.01615   0.00010   0.00000   0.00826   0.00826  -1.00789
    D6       -3.03493   0.00000   0.00000   0.00620   0.00620  -3.02873
    D7       -0.97632   0.00004   0.00000   0.00689   0.00690  -0.96943
    D8       -3.11594   0.00007   0.00000   0.00778   0.00778  -3.10816
    D9        1.14847  -0.00003   0.00000   0.00571   0.00571   1.15419
   D10        0.97504   0.00004   0.00000   0.01031   0.01031   0.98535
   D11       -1.09378  -0.00001   0.00000   0.00836   0.00836  -1.08542
   D12        3.02639   0.00010   0.00000   0.01228   0.01228   3.03868
   D13        3.12336  -0.00004   0.00000   0.00899   0.00899   3.13234
   D14        1.05453  -0.00010   0.00000   0.00703   0.00703   1.06156
   D15       -1.10848   0.00002   0.00000   0.01096   0.01096  -1.09752
   D16       -1.15516   0.00009   0.00000   0.01142   0.01142  -1.14374
   D17        3.05920   0.00004   0.00000   0.00947   0.00947   3.06867
   D18        0.89619   0.00016   0.00000   0.01339   0.01339   0.90958
   D19       -1.04299   0.00012   0.00000   0.00839   0.00839  -1.03460
   D20       -3.12624   0.00011   0.00000   0.00810   0.00810  -3.11814
   D21        1.05741   0.00014   0.00000   0.00877   0.00877   1.06618
   D22       -3.10737   0.00001   0.00000   0.00571   0.00571  -3.10165
   D23        1.09257  -0.00001   0.00000   0.00542   0.00542   1.09799
   D24       -1.00697   0.00003   0.00000   0.00609   0.00609  -1.00087
   D25        1.11976  -0.00006   0.00000   0.00415   0.00416   1.12391
   D26       -0.96349  -0.00008   0.00000   0.00386   0.00386  -0.95963
   D27       -3.06303  -0.00004   0.00000   0.00454   0.00454  -3.05849
   D28        1.09353  -0.00006   0.00000  -0.00321  -0.00321   1.09032
   D29       -3.10067  -0.00007   0.00000  -0.00341  -0.00341  -3.10408
   D30       -0.99694  -0.00007   0.00000  -0.00337  -0.00337  -1.00031
   D31        3.14021   0.00002   0.00000  -0.00077  -0.00077   3.13944
   D32       -1.05400   0.00001   0.00000  -0.00097  -0.00097  -1.05496
   D33        1.04973   0.00001   0.00000  -0.00092  -0.00092   1.04881
   D34       -1.08695   0.00005   0.00000   0.00051   0.00051  -1.08644
   D35        1.00203   0.00004   0.00000   0.00031   0.00031   1.00234
   D36        3.10576   0.00004   0.00000   0.00035   0.00035   3.10612
         Item               Value     Threshold  Converged?
 Maximum Force            0.001854     0.000015     NO 
 RMS     Force            0.000421     0.000010     NO 
 Maximum Displacement     0.033301     0.000060     NO 
 RMS     Displacement     0.009111     0.000040     NO 
 Predicted change in Energy=-3.053079D-05
 Lowest energy point so far.  Saving SCF results.
 GradGradGradGradGradGradGradGradGradGradGradGradGradGradGradGradGradGrad

 Leave Link  103 at Fri Jul  9 19:20:23 2021, MaxMem=  4194304000 cpu:        19.4
 (Enter /home/minenky/programs//g09/l202.exe)
                          Input orientation:                          
 ---------------------------------------------------------------------
 Center     Atomic      Atomic             Coordinates (Angstroms)
 Number     Number       Type             X           Y           Z
 ---------------------------------------------------------------------
      1          6           0        2.080681   -0.032275   -0.104953
      2          6           0        0.753288   -0.672254    0.280727
      3          6           0       -0.479651   -0.005127   -0.334092
      4          1           0        2.919657   -0.602873    0.296485
      5          1           0        2.166064    0.986790    0.275484
      6          1           0        2.193718    0.006846   -1.191285
      7          1           0        0.647286   -0.669499    1.371606
      8          1           0        0.764021   -1.723739   -0.021790
      9          1           0       -0.350615   -0.008991   -1.423134
     10          6           0       -0.636573    1.444582    0.116378
     11          6           0       -1.736620   -0.804809   -0.005410
     12          1           0       -0.727921    1.499329    1.205316
     13          1           0       -1.534340    1.891102   -0.315762
     14          1           0        0.213886    2.059632   -0.180448
     15          1           0       -1.904752   -0.829982    1.075160
     16          1           0       -2.620299   -0.361805   -0.469156
     17          1           0       -1.653200   -1.836264   -0.354204
 ---------------------------------------------------------------------
                    Distance matrix (angstroms):
                    1          2          3          4          5
     1  C    0.000000
     2  C    1.523251   0.000000
     3  C    2.570708   1.530752   0.000000
     4  H    1.091154   2.167537   3.508593   0.000000
     5  H    1.091108   2.179081   2.890553   1.759367   0.000000
     6  H    1.092897   2.168602   2.807459   1.764144   1.764219
     7  H    2.154275   1.096020   2.149601   2.514755   2.500292
     8  H    2.145125   1.094190   2.144267   2.450389   3.066116
     9  H    2.765744   2.135805   1.096667   3.742254   3.195396
    10  C    3.100574   2.537660   1.526173   4.107467   2.844233
    11  C    3.895959   2.509798   1.525612   4.670421   4.303449
    12  H    3.457002   2.786507   2.166749   4.306978   3.082602
    13  H    4.100268   3.487096   2.169882   5.141289   3.854912
[...]
 --------------------------------------------------------------------------------
 GradGradGradGradGradGradGradGradGradGradGradGradGradGradGradGradGradGrad

 Leave Link  103 at Fri Jul  9 19:30:39 2021, MaxMem=  4194304000 cpu:        59.7
 (Enter /home/minenky/programs//g09/l9999.exe)
 1\1\GINC-CN514-06-R\Freq\RwB97XD\def2TZVP\C5H12\MINENKY\09-Jul-2021\0\
 \#P Geom=AllCheck Guess=TCheck SCRF=Check GenChk RwB97XD/def2TZVP Freq
 \\The PBEPBE optimization and frequencies\\0,1\C,2.0809968637,-0.03028
 30973,-0.1005339894\C,0.7532637137,-0.6742968961,0.2783591045\C,-0.480
 4798967,-0.0065572238,-0.334813816\H,2.9205156248,-0.6074447103,0.2902
 623007\H,2.1686238576,0.9828413242,0.2949858355\H,2.1921307642,0.02543
 25671,-1.1864010455\H,0.644732279,-0.6778735412,1.3690809301\H,0.76610
 92027,-1.7243834047,-0.0291535287\H,-0.3528854827,-0.0130190075,-1.424
 1123497\C,-0.6349117206,1.4448435028,0.1119801256\C,-1.7380783792,-0.8
 047123355,-0.0033477948\H,-0.7162538645,1.5037476374,1.2015598396\H,-1
 .5370647884,1.8892746237,-0.313193363\H,0.211802617,2.0602637787,-0.19
 46922527\H,-1.9076370397,-0.8238345702,1.0771548355\H,-2.6216729484,-0
 .3650103857,-0.4704254992\H,-1.6545598027,-1.8383252617,-0.3457863325\
 \Version=AM64L-G09RevD.01\State=1-A\HF=-197.7825277\RMSD=5.049e-09\RMS
 F=3.607e-07\ZeroPoint=0.1610196\Thermal=0.1679431\Dipole=0.0125447,-0.
 0202297,-0.0327031\DipoleDeriv=-0.022617,-0.033335,0.0051695,-0.011048
 9,0.0752778,0.0144384,-0.0099684,0.009943,0.1067135,0.0771084,-0.00048
 94,-0.0249848,0.0060949,0.0796712,0.0163836,-0.0103433,0.0129207,0.133
 1084,0.1081248,0.0127671,0.0024522,-0.0099003,0.1324919,0.0182865,-0.0
 003102,0.0188217,0.1100657,-0.1255422,0.0614538,-0.0435294,0.1041564,0
 .0030114,0.0458915,-0.0659488,0.0477872,0.0432561,0.0513999,-0.0024904
 ,0.0210969,-0.0585464,-0.1277259,-0.0578658,0.0098726,-0.0709104,0.027
 0261,0.0372671,-0.0147861,-0.0150346,-0.0273414,0.054375,0.0078304,0.0
 574146,0.0218304,-0.1580382,-0.0081601,-0.0086975,0.0576,-0.0052641,0.
 0509535,-0.0128218,0.0242465,0.0321163,-0.1728018,0.0020604,-0.0086618
 ,-0.0051526,0.0011748,-0.1839994,-0.0361548,-0.0015135,-0.0684013,0.03
 89078,-0.0040916,-0.0025902,0.0449269,0.0042084,-0.0084522,-0.0057417,
 0.0280391,-0.0034918,-0.1863563,0.0378471,-0.0028515,-0.0050743,0.0040
 476,-0.0392816,-0.0292743,-0.0088212,-0.0053223,0.1127946,-0.0079247,-
 0.0415023,0.0174127,-0.0256461,0.0427339,0.0107098,-0.0054172,0.000725
 ,0.1194329,0.0651717,0.0047203,0.0071872,-0.0013155,0.032549,0.0359602
 ,0.0214865,-0.0450612,-0.1564089,-0.1050295,0.1166824,-0.0671362,0.065
 5847,0.0058897,0.0110131,-0.0788656,0.0353873,0.0300867,-0.0607733,-0.
 1306584,0.0479763,-0.0953497,-0.0327151,0.0065771,0.0525215,0.0204569,
 0.0407498,0.0399792,-0.0160632,-0.0113363,-0.0133704,0.054353,-0.02415
 43,0.0628273,0.0209888,-0.155517,-0.1296565,0.0353257,-0.0559542,0.089
 0688,0.0199701,0.0547456,-0.0853382,0.0413466,0.024096,0.0448361,0.031
 1765,0.0243806,-0.026553,-0.1591022,-0.0558235,0.0101182,-0.069137,0.0
 428845\Polar=68.0254655,0.2871648,61.9074487,-0.1341888,-0.1900883,56.
 445163\PG=C01 [X(C5H12)]\NImag=0\\0.50368166,-0.03499253,0.56027112,0.
 02465422,0.00934149,0.56451913,-0.16808492,-0.04474200,0.02806491,0.46
 739596,-0.04575222,-0.10554900,0.01398269,0.00691647,0.56131002,0.0264
 4721,0.01475217,-0.08867118,-0.01572674,0.03105573,0.56875863,-0.02740
 750,0.01157617,-0.01102577,-0.14104594,0.03750163,-0.03527764,0.482901
 93,-0.01045099,0.00908006,-0.00753357,0.03442576,-0.10125274,0.0212840
 5,0.00136675,0.48660379,0.00657593,-0.00616042,0.00362035,-0.03492630,
 0.01978717,-0.10037779,-0.01769320,0.00015199,0.59339071,-0.20130163,0
 .10957254,-0.07367304,-0.02137972,0.01655629,-0.01173544,-0.00320679,-
 0.00428440,0.00324964,0.22070102,0.11104948,-0.12477985,0.05254695,-0.
 01354255,0.00824034,-0.00681342,-0.00240648,-0.00162135,0.00122153,-0.
 11819538,0.13297805,-0.07440360,0.05240778,-0.08283751,0.00782015,-0.0
 0574762,0.00280746,0.00087590,0.00075137,-0.00040100,0.08020929,-0.058
 02551,0.08522081,-0.04835333,-0.01591915,-0.00625324,-0.00092675,-0.02
 836801,-0.01168702,0.00111064,-0.00063441,-0.00050729,0.00194392,0.022
 75850,0.01058808,0.05304685,-0.01716557,-0.27617507,-0.09161570,-0.000
 88841,-0.01297878,-0.00472541,0.00045269,-0.00037626,0.00032187,-0.001
 43221,-0.01551484,-0.00670762,0.01937809,0.30134378,-0.00704845,-0.091
 97686,-0.08499991,0.00030309,0.00999451,0.00313128,-0.00015662,-0.0007
 4369,-0.00011742,0.00156194,0.01208271,0.00435317,0.00595842,0.0996076
 1,0.08712357,-0.04889566,-0.00062323,0.02248266,-0.00377065,-0.0006763
 7,0.03075355,0.00170981,0.00015679,0.00188332,0.00270974,-0.00035539,-
 0.02494659,-0.00097345,0.00046989,-0.00179512,0.05331615,-0.00074603,-
 0.04887490,0.01058664,-0.00125760,-0.00081599,0.01531956,0.00081728,0.
 00046887,-0.00030452,-0.00257449,-0.00105877,0.01801927,0.00247466,0.0
 0274258,-0.03076948,0.00361372,0.04800990,0.02316074,0.01088697,-0.307
 47457,0.00101523,0.00036103,-0.00834552,-0.00084650,0.00001146,0.00069
 812,0.00116949,-0.00024274,-0.01056958,0.00051334,0.00113440,-0.010828
 04,-0.02746066,-0.01329757,0.33411151,-0.00434369,-0.00019000,0.030661
 39,-0.04942241,0.00048504,0.02422209,0.00028617,0.00011778,-0.02767294
 ,0.00064487,0.00077060,-0.00026507,0.00140110,0.00007488,-0.00068476,-
 0.00518171,-0.00287275,0.00136578,0.05895835,-0.00239221,-0.00050919,0
 .01561097,0.00060357,-0.04925698,-0.00401966,-0.00045069,-0.00083808,0
 .01613840,0.00039771,0.00027282,-0.00052306,0.00075255,0.00042549,0.00
 032472,-0.00289578,-0.00057202,0.00127478,0.00008677,0.05015174,0.0007
 8562,-0.00014275,-0.00730845,0.02485703,-0.00291226,-0.29727668,0.0006
 0263,-0.00000703,-0.01704926,0.00057143,-0.00011505,0.00025854,-0.0000
 2853,0.00048911,0.00057493,0.00140923,0.00066477,0.00115407,-0.0262971
 5,0.00098848,0.32572766,-0.00244455,-0.03016992,-0.00938821,-0.0462373
 1,0.00347691,0.00121612,-0.00253642,0.02554512,0.00886371,0.00103420,0
 .00035669,-0.00063038,-0.00522521,-0.00276748,0.00215775,0.00106405,0.
 00064150,0.00017873,-0.00065850,0.00294759,0.00068667,0.05837034,-0.00
 064321,-0.01332917,-0.00429544,0.00393506,-0.28242715,-0.07178425,0.00
 062989,-0.01607612,-0.00549469,-0.00031003,0.00088732,-0.00019772,-0.0
 0258677,0.00022955,0.00122516,0.00023639,0.00008851,0.00047989,0.00017
 120,0.00009437,-0.00031797,-0.00323082,0.30869602,0.00032524,0.0092509
 4,0.00270529,0.00176793,-0.07282489,-0.07244062,-0.00168136,0.01479435
 ,0.00353653,-0.00062785,-0.00046203,0.00019884,0.00155676,0.00129486,0
 .00052444,-0.00063532,0.00024570,0.00039528,0.00055184,-0.03131702,-0.
 00933831,-0.00045425,0.07771600,0.07357937,0.00171966,-0.00011838,-0.0
 0131650,0.00003865,0.00062637,-0.02821906,-0.05110226,0.00053347,0.028
 23824,0.00029362,0.00008878,0.00031901,-0.00008212,0.00000265,0.000014
 67,-0.00029365,-0.00009263,0.00083427,-0.00408872,0.00233465,-0.002727
 86,0.00084229,-0.00024731,0.00069353,0.06079620,-0.00076230,0.00012538
 ,-0.00048950,-0.00025586,-0.00056604,0.01568459,0.00049593,-0.04787146
 ,-0.00169725,-0.00013388,-0.00012547,-0.00002931,0.00006719,0.00002498
 ,-0.00004455,0.00005837,0.00022188,-0.00028655,0.00241915,-0.00082692,
 0.00149722,-0.00057809,0.00017982,0.00007204,-0.00028103,0.05764345,0.
 00079992,-0.00023192,0.00069657,0.00054147,0.00070023,-0.01618459,0.02
 851191,-0.00201174,-0.29350407,0.00002830,0.00003980,0.00046456,0.0000
 2900,0.00001953,0.00006178,-0.00095544,-0.00033523,0.00045841,-0.00234
 250,0.00171108,0.00006783,-0.00005025,0.00054189,0.00047292,-0.0306700
 7,0.00163252,0.32099760,0.00030136,0.00090815,0.00000475,-0.00384407,0
 .02936592,0.00854125,-0.08081062,0.01179681,0.00366980,0.00024110,-0.0
 0010644,0.00007675,-0.00090118,0.00054758,-0.00025857,-0.00007681,0.00
 003537,0.00025005,0.00097904,-0.00079371,0.00059835,-0.00474792,0.0029
 0205,-0.00211148,-0.00052049,0.00387329,0.00107507,0.58131178,0.000452
 25,0.00105887,0.00039919,0.00752303,-0.01919332,-0.00302156,0.00851697
 ,-0.17834754,-0.03275219,-0.00060088,-0.00050399,0.00001959,0.00018388
 ,-0.00060148,-0.00047420,0.00010883,0.00005825,-0.00006963,-0.00125966
 ,0.00081203,-0.00066593,0.00149969,0.00031105,0.00047864,0.00012782,-0
 .00342704,-0.00095255,0.01463188,0.48891608,-0.00025164,-0.00007425,-0
 .00038892,-0.00075682,0.01343503,0.00407904,0.00398233,-0.03534518,-0.
 09187218,-0.00008750,0.00028760,0.00019391,-0.00002538,0.00033608,0.00
 051417,-0.00011634,-0.00005759,0.00005913,-0.00036945,0.00149249,0.000
 91944,-0.00290309,0.00243057,-0.00074724,0.00322903,-0.03386499,-0.010
 24911,0.00481848,-0.03316626,0.55866808,-0.00283545,0.00273561,-0.0023
 6103,-0.03284189,-0.01382334,0.00543937,-0.15496459,-0.04883532,0.0218
 3786,-0.00117250,-0.00061159,0.00027991,-0.00005335,-0.00012893,-0.000
 13459,0.00002931,0.00011771,-0.00002070,0.00150877,-0.00069516,0.00074
 503,0.00086107,-0.00135997,0.00060666,-0.00565887,-0.00344324,0.001152
 09,0.00110471,-0.00311281,-0.00111370,0.51126098,0.00294038,-0.0019118
 2,0.00167971,0.01005700,0.00793331,-0.00421799,-0.04835500,-0.10864092
 ,0.01387960,0.00120174,0.00050630,-0.00004935,0.00014938,0.00008529,0.
 00013288,-0.00018953,-0.00006477,-0.00010202,0.00021453,0.00007068,-0.
 00007106,0.00173298,0.00074909,0.00010529,-0.00125845,-0.00097742,0.00
 029166,-0.02983846,-0.02595218,0.00721611,-0.04611985,0.55474033,-0.00
 177869,0.00159936,-0.00165506,-0.01289739,-0.00775676,0.00324712,0.023
 59310,0.01490744,-0.08706903,-0.00088531,-0.00025269,0.00051327,0.0001
 3382,-0.00012060,0.00006228,-0.00013539,-0.00002252,0.00046501,-0.0012
 1736,-0.00041603,0.00044197,0.00058954,-0.00040269,0.00024985,0.029015
 46,0.01829461,-0.00708541,-0.00893888,-0.00580027,0.00259370,0.0223436
 2,0.01330199,0.56273883,-0.00008602,0.00004369,-0.00004234,0.00027735,
 -0.00012421,0.00130263,-0.00139669,0.00058123,0.00400008,-0.00002159,0
 .00001526,-0.00007316,-0.00004483,-0.00014656,0.00009946,0.00012125,-0
 .00012050,-0.00015056,0.00008029,0.00021725,-0.00025369,0.00001602,-0.
 00009211,-0.00017948,0.00055621,0.00089366,0.00021623,-0.04917390,0.00
 019554,0.01881583,0.00013257,-0.00010520,-0.00102640,0.04763483,0.0000
 9447,0.00002938,0.00011976,-0.00069718,0.00176788,-0.00124437,0.002630
 63,-0.00243663,-0.03345405,0.00005097,0.00005364,-0.00000355,0.0000355
 9,-0.00002417,0.00003243,-0.00016331,-0.00009281,0.00003576,0.00016107
 ,-0.00010211,0.00096055,-0.00035218,0.00029094,0.00032491,0.00063369,-
 0.00615152,-0.00205027,0.00029407,-0.04725697,-0.00932770,0.00083924,0
 .00162572,-0.00094902,-0.00149197,0.05217357,0.00018646,-0.00015278,0.
 00005570,-0.00050109,0.00072022,0.00090537,0.00115266,-0.00076321,-0.0
 1193655,0.00006566,-0.00003587,0.00001844,0.00012477,-0.00001386,-0.00
 022089,-0.00012986,0.00008333,0.00010665,0.00069580,-0.00053644,0.0004
 4526,-0.00003605,0.00002126,0.00034970,0.00003138,-0.00240280,0.000917
 32,0.01877127,-0.00969328,-0.30504767,0.00007015,0.00055465,0.00062769
 ,-0.02130165,0.01369294,0.33280525,0.00003907,-0.00007875,-0.00034510,
 0.00069719,0.00014874,0.00102618,-0.00326678,0.00011521,-0.00111316,-0
 .00001893,0.00021297,0.00004233,0.00030196,0.00025025,0.00018809,0.000
 01127,0.00001511,0.00007342,0.00004126,-0.00010886,-0.00005312,-0.0001
 1307,0.00022647,-0.00016423,-0.00010850,0.00025005,0.00042991,-0.22967
 955,0.08770317,-0.08749596,0.00088570,-0.00109236,0.00012920,0.0028989
 5,-0.00200825,0.00164665,0.24770329,-0.00076652,-0.00021723,-0.0000941
 8,-0.00113625,-0.00613583,-0.00325911,0.02642091,-0.01276437,0.0144382
 0,0.00009365,0.00023409,0.00003529,0.00015581,0.00038014,0.00015461,0.
 00006416,0.00003089,-0.00004223,-0.00028959,0.00016650,-0.00007044,0.0
 0181150,-0.00108497,0.00064135,-0.00016217,0.00111374,-0.00030461,0.08
 615303,-0.08768871,0.04143418,0.00148088,0.00123486,0.00076715,-0.0017
 6572,-0.00026026,-0.00049958,-0.09603851,0.09749206,-0.00004105,-0.000
 09044,0.00012587,-0.00003817,-0.00167695,-0.00023059,0.00945653,-0.004
 65052,0.00362112,-0.00000516,-0.00004211,-0.00000925,0.00004468,-0.000
 00054,-0.00014404,-0.00003843,0.00006162,0.00001950,0.00017931,-0.0003
 1683,0.00040660,0.00026827,-0.00024360,0.00055393,0.00032897,0.0005889
 2,0.00041785,-0.08764708,0.04226844,-0.08946313,0.00018222,0.00032796,
 0.00013621,-0.02744608,0.01259794,-0.01162232,0.09600227,-0.04434629,0
 .09258986,-0.00119642,0.00073231,-0.00039801,0.00000642,-0.00036854,-0
 .00038955,0.00362865,0.00286218,-0.00193959,0.00010353,0.00020367,0.00
 006329,-0.00133528,0.00141806,-0.00015884,0.00003929,-0.00012725,0.000
 07437,-0.00005203,0.00003875,-0.00002176,0.00010869,-0.00014596,0.0001
 2787,0.00030402,-0.00055549,-0.00044652,-0.21099573,-0.11676302,0.0608
 2168,0.00046288,0.00016761,-0.00044067,-0.00113769,0.00022602,-0.00017
 308,-0.01999973,-0.01476903,0.00867589,0.22948144,0.00008540,-0.000424
 03,-0.00022962,-0.00104922,0.00057566,0.00035044,-0.02551589,-0.015050
 44,0.01069290,0.00004122,0.00053006,0.00000082,0.00120407,0.00025967,0
 .00048252,0.00010478,-0.00008644,-0.00010270,0.00010741,-0.00004622,-0
 .00005771,0.00000179,0.00017896,-0.00015138,0.00004589,0.00124971,-0.0
 0033356,-0.11501830,-0.12957339,0.04233771,0.00241806,-0.00597477,-0.0
 0273531,0.00197607,0.00036211,-0.00038275,0.01028018,0.00742690,-0.004
 73567,0.12673642,0.14140015,0.00029390,0.00039293,0.00057253,0.0003452
 9,0.00061388,0.00000196,-0.00967868,-0.00573497,0.00206801,-0.00001526
 ,-0.00021525,-0.00017243,-0.00051819,-0.00008901,0.00001749,0.00003568
 ,-0.00010868,-0.00023718,0.00006915,0.00001630,0.00002145,-0.00014802,
 -0.00000273,-0.00003468,-0.00051057,0.00044556,0.00041534,0.06067059,0
 .04321497,-0.07016757,0.00036475,-0.00205248,-0.00023877,0.02594616,0.
 01797669,-0.00802634,-0.01048033,-0.00832552,0.00359008,-0.06613318,-0
 .04533883,0.07130746,-0.00010550,-0.00007497,-0.00018044,0.00159976,0.
 00006462,0.00166753,-0.00517245,-0.00025877,0.02895504,-0.00001207,0.0
 0000433,-0.00008995,0.00001833,0.00001220,-0.00000118,0.00015835,0.000
 08058,-0.00024312,-0.00036442,-0.00005722,-0.00080089,-0.00002571,0.00
 006605,-0.00005492,-0.00444275,-0.00315979,0.00108499,0.00088660,0.001
 34278,0.00022061,-0.05218561,0.00004258,0.03611133,0.00022640,-0.00036
 173,-0.00061526,-0.00002581,-0.00010341,-0.00017799,-0.00001089,0.0002
 8533,-0.00023201,0.05648085,0.00006378,-0.00009874,0.00002147,0.000929
 86,0.00014114,-0.00007370,-0.00263512,-0.00112667,0.01827407,0.0000171
 3,0.00000074,-0.00006449,-0.00003494,-0.00002127,0.00000247,0.00006639
 ,-0.00000501,-0.00005142,-0.00001096,0.00031733,-0.00033003,-0.0000735
 9,-0.00002072,-0.00018735,-0.00322678,-0.00142612,0.00084249,0.0003821
 7,0.00106058,0.00137716,0.00014887,-0.04764178,0.00185136,-0.00020111,
 -0.00015576,-0.00054886,0.00006506,-0.00003677,0.00003426,0.00016174,0
 .00017825,-0.00030560,0.00308796,0.04799239,0.00003985,-0.00003323,0.0
 0046293,-0.00071530,-0.00011051,0.00060853,0.00153259,0.00015811,-0.00
 906138,0.00010514,0.00002298,0.00000242,0.00001539,0.00002293,-0.00000
 648,-0.00025756,-0.00005320,0.00000620,0.00069285,-0.00026128,0.000496
 59,0.00003954,0.00005978,-0.00008237,0.00150223,0.00105420,0.00123259,
 -0.00040791,-0.00034672,0.00082643,0.03662229,0.00219248,-0.30236387,0
 .00006008,0.00078223,0.00029685,0.00004555,0.00000338,-0.00009931,-0.0
 0002891,0.00003676,0.00035019,-0.04245344,-0.00367170,0.32916170,-0.00
 086019,0.00115170,-0.00110733,-0.00377216,-0.00448387,0.00279634,-0.02
 121526,0.01262951,-0.01292296,-0.00059810,-0.00027329,0.00012732,-0.00
 009461,-0.00014674,-0.00003745,0.00002612,0.00001541,0.00010636,0.0002
 4701,-0.00010514,-0.00008174,0.00034753,-0.00016358,0.00018113,0.00068
 864,0.00043199,0.00054488,0.00073196,0.00144093,-0.00028294,-0.2168715
 6,0.08701758,-0.09234135,0.00001749,-0.00005509,0.00006579,0.00047646,
 -0.00103897,0.00001392,0.00038973,0.00003223,0.00034733,0.00445378,-0.
 00276540,0.00236271,0.23781950,-0.00083937,0.00090922,-0.00023750,-0.0
 0215924,-0.00215163,0.00076473,-0.01432385,0.00627432,-0.00908579,-0.0
 0033441,-0.00012068,0.00010500,0.00014662,0.00004860,-0.00006270,0.000
 02563,0.00000812,0.00000675,0.00003990,-0.00014816,0.00002463,-0.00025
 260,0.00041034,0.00017263,0.00085519,0.00052966,-0.00016083,-0.0009387
 4,0.00132772,-0.00051885,0.08857660,-0.09285539,0.04776766,0.00005383,
 -0.00007228,-0.00000083,0.00007667,-0.00039144,0.00020975,0.00018581,0
 .00022236,0.00005847,-0.00085212,-0.00071879,-0.00054208,-0.09420462,0
 .09809537,0.00039804,0.00003307,0.00060180,0.00102529,0.00067617,0.000
 06889,0.00752162,-0.00369739,0.00282776,0.00011955,0.00003078,-0.00003
 232,0.00001153,0.00000369,-0.00001729,-0.00012891,-0.00005083,0.000021
 88,0.00036310,-0.00002200,0.00048995,-0.00003681,0.00027324,-0.0001406
 2,-0.00015494,-0.00062702,0.00048559,-0.00019965,-0.00018251,-0.000088
 88,-0.09316298,0.04732469,-0.09774857,-0.00010056,0.00011208,-0.000053
 71,-0.00014541,-0.00028823,0.00019432,0.00017761,-0.00017242,-0.000048
 94,-0.02616253,0.01370380,-0.01280830,0.10071454,-0.05290194,0.1016730
 6,0.00017311,0.00018875,0.00022310,0.00131049,-0.00154542,-0.00037682,
 0.00248810,-0.02566672,-0.01049819,0.00003933,0.00003084,0.00000670,0.
 00016733,0.00006960,-0.00000784,0.00000660,-0.00002008,-0.00002023,-0.
 00003538,0.00011992,0.00000874,-0.00065548,0.00061262,0.00009793,0.001
 05808,0.00068004,0.00005102,-0.00480627,-0.00199040,0.00151485,-0.0496
 6218,0.02343506,0.00774538,-0.00010065,0.00016396,-0.00005358,0.000157
 21,-0.00010977,0.00024190,0.00020311,-0.00173544,-0.00035660,-0.001478
 87,0.00402497,0.00084490,-0.00178634,0.02394470,0.00976049,0.05292180,
 -0.00017481,0.00039495,0.00020665,0.00133756,0.00035912,-0.00005180,0.
 00327820,-0.01602445,-0.00595682,-0.00006558,0.00002159,0.00000911,0.0
 0023694,0.00015178,0.00003186,-0.00000134,-0.00005828,0.00000380,-0.00
 002538,-0.00001128,0.00006546,-0.00058910,0.00082215,-0.00015404,0.000
 13824,0.00028338,0.00060150,-0.00419467,-0.00099998,0.00200790,0.02181
 324,-0.28292652,-0.08003367,0.00007085,0.00024927,-0.00004215,-0.00001
 715,0.00050042,0.00001405,-0.00000327,-0.00122855,-0.00054573,-0.00011
 843,0.00156121,0.00068586,0.00051734,-0.01136734,-0.00421516,-0.022202
 65,0.30827253,-0.00014368,0.00019793,-0.00002458,-0.00017860,-0.000297
 68,-0.00008132,-0.00086949,0.00842855,0.00162610,-0.00005087,-0.000027
 68,-0.00000930,0.00004385,0.00004265,-0.00002904,0.00003519,0.00001872
 ,-0.00004087,0.00004792,-0.00014487,-0.00003158,-0.00035329,-0.0000087
 3,0.00021771,-0.00060777,0.00017229,0.00033481,0.00108719,0.00074427,0
 .00017080,0.00714907,-0.08051412,-0.07491521,0.00013345,0.00039369,0.0
 0037926,0.00021370,-0.00024395,-0.00008669,0.00018939,0.00033880,0.000
 58140,0.00297222,-0.03087393,-0.00902271,-0.00048654,0.01440089,0.0045
 7540,-0.00918174,0.08737318,0.07635583\\-0.00000093,-0.00000033,0.0000
 0055,0.00000089,0.00000033,0.00000008,-0.00000072,0.00000083,-0.000000
 66,0.00000013,0.00000005,0.00000003,0.,0.00000023,-0.00000025,0.000000
 39,0.00000021,-0.00000005,-0.00000011,0.00000013,0.00000014,-0.0000003
 1,0.00000002,0.00000029,0.00000012,-0.00000027,0.00000011,0.00000005,-
 0.00000111,-0.00000035,0.00000040,-0.00000010,0.00000030,-0.00000013,0
 .00000053,-0.00000007,0.,-0.00000017,-0.00000013,0.00000017,-0.0000001
 0,-0.00000006,-0.00000022,-0.00000005,0.00000003,0.00000002,-0.0000000
 8,-0.00000006,0.00000022,-0.00000012,0.00000009\\\@


 BUT 'GLORY' DOESN'T MEAN 'A NICE KNOCK DOWN ARGUMENT', ALICE OBJECTED.
 WHEN I USE A WORD, HUMPTY DUMPTY SAID, IN A RATHER SCORNFUL TONE,
 IT MEANS JUST WHAT I CHOOSE IT TO MEAN....
 NEITHER MORE NOR LESS....
 THE QUESTION IS, SAID ALICE,
 WHETHER YOU CAN MAKE WORDS MEAN SO MANY DIFFERENT THINGS...
 THE QUESTION IS, SAID HUMPTY DUMPTY,
 WHICH IS TO BE MASTER....
 THAT IS ALL.....

 ALICE THROUGH THE LOOKING GLASS
 Job cpu time:       0 days  1 hours 22 minutes 51.1 seconds.
 File lengths (MBytes):  RWF=     80 Int=      0 D2E=      0 Chk=      5 Scr=      1
 Normal termination of Gaussian 09 at Fri Jul  9 19:30:40 2021.
