 Entering Gaussian System, Link 0=/home/minenky/programs/g09/g09
 Input=m1_00_74-82-80_CH4_wB97XD.inp
 Output=m1_00_74-82-80_CH4_wB97XD.out
 Initial command:
 /home/minenky/programs//g09/l1.exe "/home/minenky/tmp/Gau-19349.inp" -scrdir="/home/minenky/tmp/"
 Entering Link 1 = /home/minenky/programs//g09/l1.exe PID=     19351.
  
 Copyright (c) 1988,1990,1992,1993,1995,1998,2003,2009,2013,
            Gaussian, Inc.  All Rights Reserved.
  
 This is part of the Gaussian(R) 09 program.  It is based on
 the Gaussian(R) 03 system (copyright 2003, Gaussian, Inc.),
 the Gaussian(R) 98 system (copyright 1998, Gaussian, Inc.),
 the Gaussian(R) 94 system (copyright 1995, Gaussian, Inc.),
 the Gaussian 92(TM) system (copyright 1992, Gaussian, Inc.),
 the Gaussian 90(TM) system (copyright 1990, Gaussian, Inc.),
 the Gaussian 88(TM) system (copyright 1988, Gaussian, Inc.),
 the Gaussian 86(TM) system (copyright 1986, Carnegie Mellon
 University), and the Gaussian 82(TM) system (copyright 1983,
 Carnegie Mellon University). Gaussian is a federally registered
 trademark of Gaussian, Inc.
  
 This software contains proprietary and confidential information,
 including trade secrets, belonging to Gaussian, Inc.
  
 This software is provided under written license and may be
 used, copied, transmitted, or stored only in accord with that
 written license.
  
 The following legend is applicable only to US Government
 contracts under FAR:
  
                    RESTRICTED RIGHTS LEGEND
  
 Use, reproduction and disclosure by the US Government is
 subject to restrictions as set forth in subparagraphs (a)
 and (c) of the Commercial Computer Software - Restricted
 Rights clause in FAR 52.227-19.
  
 Gaussian, Inc.
 340 Quinnipiac St., Bldg. 40, Wallingford CT 06492
  
  
 ---------------------------------------------------------------
 Warning -- This program may not be used in any manner that
 competes with the business of Gaussian, Inc. or will provide
 assistance to any competitor of Gaussian, Inc.  The licensee
 of this program is prohibited from giving any competitor of
 Gaussian, Inc. access to this program.  By using this program,
 the user acknowledges that Gaussian, Inc. is engaged in the
 business of creating and licensing software in the field of
 computational chemistry and represents and warrants to the
 licensee that it is not a competitor of Gaussian, Inc. and that
 it will not use this program in any manner prohibited above.
 ---------------------------------------------------------------
  

 Cite this work as:
 Gaussian 09, Revision D.01,
 M. J. Frisch, G. W. Trucks, H. B. Schlegel, G. E. Scuseria, 
 M. A. Robb, J. R. Cheeseman, G. Scalmani, V. Barone, B. Mennucci, 
 G. A. Petersson, H. Nakatsuji, M. Caricato, X. Li, H. P. Hratchian, 
 A. F. Izmaylov, J. Bloino, G. Zheng, J. L. Sonnenberg, M. Hada, 
 M. Ehara, K. Toyota, R. Fukuda, J. Hasegawa, M. Ishida, T. Nakajima, 
 Y. Honda, O. Kitao, H. Nakai, T. Vreven, J. A. Montgomery, Jr., 
 J. E. Peralta, F. Ogliaro, M. Bearpark, J. J. Heyd, E. Brothers, 
 K. N. Kudin, V. N. Staroverov, T. Keith, R. Kobayashi, J. Normand, 
 K. Raghavachari, A. Rendell, J. C. Burant, S. S. Iyengar, J. Tomasi, 
 M. Cossi, N. Rega, J. M. Millam, M. Klene, J. E. Knox, J. B. Cross, 
 V. Bakken, C. Adamo, J. Jaramillo, R. Gomperts, R. E. Stratmann, 
 O. Yazyev, A. J. Austin, R. Cammi, C. Pomelli, J. W. Ochterski, 
 R. L. Martin, K. Morokuma, V. G. Zakrzewski, G. A. Voth, 
 P. Salvador, J. J. Dannenberg, S. Dapprich, A. D. Daniels, 
 O. Farkas, J. B. Foresman, J. V. Ortiz, J. Cioslowski, 
 and D. J. Fox, Gaussian, Inc., Wallingford CT, 2013.
 
 ******************************************
 Gaussian 09:  AM64L-G09RevD.01 24-Apr-2013
                28-Sep-2023 
 ******************************************
 %chk=m1_00_74-82-80_CH4_wB97XD
 %NProcLinda=1
 Will use up to    1 processors via Linda.
 %Nprocshared=16
 Will use up to   16 processors via shared memory.
 %mem=48000MB
 ----------------------------------------------------------------------
 #P wB97XD/def2tzvp opt=(tight) freq integral(Grid=ultrafine) # SCF(Max
 Cycle=380) 5d 7f GFPrint
 ----------------------------------------------------------------------
 1/7=10,14=-1,18=20,19=15,26=4,38=1/1,3;
 2/9=110,12=2,17=6,18=5,40=1/2;
 3/5=44,7=101,8=11,11=2,16=1,24=100,25=1,30=1,71=1,74=-58,75=-5/1,2,3;
 4//1;
 5/5=2,7=380,38=5/2;
 6/7=2,8=2,9=2,10=2,28=1/1;
 7//1,2,3,16;
 1/7=10,14=-1,18=20,19=15,26=4/3(2);
 2/9=110/2;
 99//99;
 2/9=110/2;
 3/5=44,7=101,8=11,11=2,16=1,25=1,30=1,71=1,74=-58,75=-5/1,2,3;
 4/5=5,16=3,69=1/1;
 5/5=2,7=380,38=5/2;
 7//1,2,3,16;
 1/7=10,14=-1,18=20,19=15,26=4/3(-5);
 2/9=110/2;
 6/7=2,8=2,9=2,10=2,19=2,28=1/1;
 99/9=1/99;
 Leave Link    1 at Thu Sep 28 16:37:40 2023, MaxMem=  6291456000 cpu:         0.3
 (Enter /home/minenky/programs//g09/l101.exe)
 ---------------------------------------
 The PBEPBE optimization and frequencies
 ---------------------------------------
 Symbolic Z-matrix:
 Charge =  0 Multiplicity = 1
 C                     0.        0.        0. 
 H                     0.62905   0.62905   0.62905 
 H                    -0.62905  -0.62905   0.62905 
 H                    -0.62905   0.62905  -0.62905 
 H                     0.62905  -0.62905  -0.62905 
 
 NAtoms=      5 NQM=        5 NQMF=       0 NMMI=      0 NMMIF=      0
                NMic=       0 NMicF=      0.
                    Isotopes and Nuclear Properties:
 (Nuclear quadrupole moments (NQMom) in fm**2, nuclear magnetic moments (NMagM)
  in nuclear magnetons)

  Atom         1           2           3           4           5
 IAtWgt=          12           1           1           1           1
 AtmWgt=  12.0000000   1.0078250   1.0078250   1.0078250   1.0078250
 NucSpn=           0           1           1           1           1
 AtZEff=   0.0000000   0.0000000   0.0000000   0.0000000   0.0000000
 NQMom=    0.0000000   0.0000000   0.0000000   0.0000000   0.0000000
 NMagM=    0.0000000   2.7928460   2.7928460   2.7928460   2.7928460
 AtZNuc=   6.0000000   1.0000000   1.0000000   1.0000000   1.0000000
 Leave Link  101 at Thu Sep 28 16:37:41 2023, MaxMem=  6291456000 cpu:         4.4
 (Enter /home/minenky/programs//g09/l103.exe)

 GradGradGradGradGradGradGradGradGradGradGradGradGradGradGradGradGradGrad
 Berny optimization.
 Initialization pass.
                           ----------------------------
                           !    Initial Parameters    !
                           ! (Angstroms and Degrees)  !
 --------------------------                            --------------------------
 ! Name  Definition              Value          Derivative Info.                !
 --------------------------------------------------------------------------------
 ! R1    R(1,2)                  1.0896         estimate D2E/DX2                !
 ! R2    R(1,3)                  1.0896         estimate D2E/DX2                !
 ! R3    R(1,4)                  1.0896         estimate D2E/DX2                !
 ! R4    R(1,5)                  1.0896         estimate D2E/DX2                !
 ! A1    A(2,1,3)              109.4712         estimate D2E/DX2                !
 ! A2    A(2,1,4)              109.4712         estimate D2E/DX2                !
 ! A3    A(2,1,5)              109.4712         estimate D2E/DX2                !
 ! A4    A(3,1,4)              109.4712         estimate D2E/DX2                !
 ! A5    A(3,1,5)              109.4712         estimate D2E/DX2                !
 ! A6    A(4,1,5)              109.4712         estimate D2E/DX2                !
 ! D1    D(2,1,4,3)           -120.0            estimate D2E/DX2                !
 ! D2    D(2,1,5,3)            120.0            estimate D2E/DX2                !
 ! D3    D(2,1,5,4)           -120.0            estimate D2E/DX2                !
 ! D4    D(3,1,5,4)            120.0            estimate D2E/DX2                !
 --------------------------------------------------------------------------------
 Trust Radius=3.00D-01 FncErr=1.00D-07 GrdErr=1.00D-06
 Number of steps in this run=     24 maximum allowed number of steps=    100.
 GradGradGradGradGradGradGradGradGradGradGradGradGradGradGradGradGradGrad

 Leave Link  103 at Thu Sep 28 16:37:41 2023, MaxMem=  6291456000 cpu:         0.1
 (Enter /home/minenky/programs//g09/l202.exe)
                          Input orientation:                          
 ---------------------------------------------------------------------
 Center     Atomic      Atomic             Coordinates (Angstroms)
 Number     Number       Type             X           Y           Z
 ---------------------------------------------------------------------
      1          6           0        0.000000    0.000000    0.000000
      2          1           0        0.629053    0.629053    0.629053
      3          1           0       -0.629053   -0.629053    0.629053
      4          1           0       -0.629053    0.629053   -0.629053
      5          1           0        0.629053   -0.629053   -0.629053
 ---------------------------------------------------------------------
                    Distance matrix (angstroms):
                    1          2          3          4          5
     1  C    0.000000
     2  H    1.089552   0.000000
     3  H    1.089552   1.779231   0.000000
     4  H    1.089552   1.779231   1.779231   0.000000
     5  H    1.089552   1.779231   1.779231   1.779231   0.000000
 Stoichiometry    CH4
 Framework group  TD[O(C),4C3(H)]
 Deg. of freedom     1
 Full point group                 TD      NOp  24
 Largest Abelian subgroup         D2      NOp   4
 Largest concise Abelian subgroup D2      NOp   4
                         Standard orientation:                         
 ---------------------------------------------------------------------
 Center     Atomic      Atomic             Coordinates (Angstroms)
 Number     Number       Type             X           Y           Z
 ---------------------------------------------------------------------
      1          6           0        0.000000    0.000000    0.000000
      2          1           0        0.629053    0.629053    0.629053
      3          1           0       -0.629053   -0.629053    0.629053
      4          1           0       -0.629053    0.629053   -0.629053
      5          1           0        0.629053   -0.629053   -0.629053
 ---------------------------------------------------------------------
 Rotational constants (GHZ):    158.4045274    158.4045274    158.4045274
 Leave Link  202 at Thu Sep 28 16:37:41 2023, MaxMem=  6291456000 cpu:         0.0
 (Enter /home/minenky/programs//g09/l301.exe)
 Standard basis: def2TZVP (5D, 7F)
 ======================================================================================================
                                       Pseudopotential Parameters
 ======================================================================================================
  Center     Atomic      Valence      Angular      Power
  Number     Number     Electrons     Momentum     of R      Exponent        Coefficient   SO-Coeffient
 ======================================================================================================
    1          6
                                   No pseudopotential on this center.
    2          1
                                   No pseudopotential on this center.
    3          1
                                   No pseudopotential on this center.
    4          1
                                   No pseudopotential on this center.
    5          1
                                   No pseudopotential on this center.
 ======================================================================================================
 Ernie: Thresh=  0.10000D-02 Tol=  0.10000D-05 Strict=F.
 AO basis set (Overlap normalization):
 Atom C1       Shell     1 S   6     bf    1 -     1          0.000000000000          0.000000000000          0.000000000000
      0.1357534968D+05  0.6064550360D-03
      0.2035233368D+04  0.4697908888D-02
      0.4632256236D+03  0.2433247765D-01
      0.1312001960D+03  0.9739996831D-01
      0.4285301589D+02  0.3019558425D+00
      0.1558418577D+02  0.6623360914D+00
 Atom C1       Shell     2 S   2     bf    2 -     2          0.000000000000          0.000000000000          0.000000000000
      0.6206713851D+01  0.6559530854D+00
      0.2576489653D+01  0.3758563329D+00
 Atom C1       Shell     3 S   1     bf    3 -     3          0.000000000000          0.000000000000          0.000000000000
      0.5769633942D+00  0.1000000000D+01
 Atom C1       Shell     4 S   1     bf    4 -     4          0.000000000000          0.000000000000          0.000000000000
      0.2297283136D+00  0.1000000000D+01
 Atom C1       Shell     5 S   1     bf    5 -     5          0.000000000000          0.000000000000          0.000000000000
      0.9516444003D-01  0.1000000000D+01
 Atom C1       Shell     6 P   4     bf    6 -     8          0.000000000000          0.000000000000          0.000000000000
      0.3469723224D+02  0.1132722000D-01
      0.7958262283D+01  0.7616965920D-01
      0.2378082688D+01  0.3019225220D+00
      0.8143320818D+00  0.7278502735D+00
 Atom C1       Shell     7 P   1     bf    9 -    11          0.000000000000          0.000000000000          0.000000000000
      0.2888754725D+00  0.1000000000D+01
 Atom C1       Shell     8 P   1     bf   12 -    14          0.000000000000          0.000000000000          0.000000000000
      0.1005682367D+00  0.1000000000D+01
 Atom C1       Shell     9 D   1     bf   15 -    19          0.000000000000          0.000000000000          0.000000000000
      0.1097000000D+01  0.1000000000D+01
 Atom C1       Shell    10 D   1     bf   20 -    24          0.000000000000          0.000000000000          0.000000000000
      0.3180000000D+00  0.1000000000D+01
 Atom C1       Shell    11 F   1     bf   25 -    31          0.000000000000          0.000000000000          0.000000000000
      0.7610000000D+00  0.1000000000D+01
 Atom H2       Shell    12 S   3     bf   32 -    32          1.188737893070          1.188737893070          1.188737893070
      0.3406134100D+02  0.2543930721D-01
      0.5123574600D+01  0.1900859489D+00
      0.1164662600D+01  0.8524411301D+00
 Atom H2       Shell    13 S   1     bf   33 -    33          1.188737893070          1.188737893070          1.188737893070
      0.3272304100D+00  0.1000000000D+01
 Atom H2       Shell    14 S   1     bf   34 -    34          1.188737893070          1.188737893070          1.188737893070
      0.1030724100D+00  0.1000000000D+01
 Atom H2       Shell    15 P   1     bf   35 -    37          1.188737893070          1.188737893070          1.188737893070
      0.8000000000D+00  0.1000000000D+01
 Atom H3       Shell    16 S   3     bf   38 -    38         -1.188737893070         -1.188737893070          1.188737893070
      0.3406134100D+02  0.2543930721D-01
      0.5123574600D+01  0.1900859489D+00
      0.1164662600D+01  0.8524411301D+00
 Atom H3       Shell    17 S   1     bf   39 -    39         -1.188737893070         -1.188737893070          1.188737893070
      0.3272304100D+00  0.1000000000D+01
 Atom H3       Shell    18 S   1     bf   40 -    40         -1.188737893070         -1.188737893070          1.188737893070
      0.1030724100D+00  0.1000000000D+01
 Atom H3       Shell    19 P   1     bf   41 -    43         -1.188737893070         -1.188737893070          1.188737893070
      0.8000000000D+00  0.1000000000D+01
 Atom H4       Shell    20 S   3     bf   44 -    44         -1.188737893070          1.188737893070         -1.188737893070
      0.3406134100D+02  0.2543930721D-01
      0.5123574600D+01  0.1900859489D+00
      0.1164662600D+01  0.8524411301D+00
 Atom H4       Shell    21 S   1     bf   45 -    45         -1.188737893070          1.188737893070         -1.188737893070
      0.3272304100D+00  0.1000000000D+01
 Atom H4       Shell    22 S   1     bf   46 -    46         -1.188737893070          1.188737893070         -1.188737893070
      0.1030724100D+00  0.1000000000D+01
 Atom H4       Shell    23 P   1     bf   47 -    49         -1.188737893070          1.188737893070         -1.188737893070
      0.8000000000D+00  0.1000000000D+01
 Atom H5       Shell    24 S   3     bf   50 -    50          1.188737893070         -1.188737893070         -1.188737893070
      0.3406134100D+02  0.2543930721D-01
      0.5123574600D+01  0.1900859489D+00
      0.1164662600D+01  0.8524411301D+00
 Atom H5       Shell    25 S   1     bf   51 -    51          1.188737893070         -1.188737893070         -1.188737893070
      0.3272304100D+00  0.1000000000D+01
 Atom H5       Shell    26 S   1     bf   52 -    52          1.188737893070         -1.188737893070         -1.188737893070
      0.1030724100D+00  0.1000000000D+01
 Atom H5       Shell    27 P   1     bf   53 -    55          1.188737893070         -1.188737893070         -1.188737893070
      0.8000000000D+00  0.1000000000D+01
 There are    18 symmetry adapted cartesian basis functions of A   symmetry.
 There are    14 symmetry adapted cartesian basis functions of B1  symmetry.
 There are    14 symmetry adapted cartesian basis functions of B2  symmetry.
 There are    14 symmetry adapted cartesian basis functions of B3  symmetry.
 There are    16 symmetry adapted basis functions of A   symmetry.
 There are    13 symmetry adapted basis functions of B1  symmetry.
 There are    13 symmetry adapted basis functions of B2  symmetry.
 There are    13 symmetry adapted basis functions of B3  symmetry.
    55 basis functions,    83 primitive gaussians,    60 cartesian basis functions
     5 alpha electrons        5 beta electrons
       nuclear repulsion energy        13.4409165361 Hartrees.
 IExCor= 4639 DFT=T Ex+Corr=wB97XD ExCW=0 ScaHFX=  1.000000
 ScaDFX=  1.000000  1.000000  1.000000  1.000000 ScalE2=  1.000000  1.000000
 IRadAn=      5 IRanWt=     -1 IRanGd=            0 ICorTp=0 IEmpDi=121
  HFx wShort=  0.000000 wLong=  0.200000 cFull=  0.222036 cShort=  0.000000 cLong=  0.777964
  DFx wShort=  0.000000 wLong=  0.200000 cFull=  0.000000 cShort=  0.000000 cLong=  1.000000
 NAtoms=    5 NActive=    5 NUniq=    2 SFac= 4.00D+00 NAtFMM=   60 NAOKFM=F Big=F
 Integral buffers will be    131072 words long.
 Raffenetti 2 integral format.
 Two-electron integral symmetry is turned on.
 R6Disp:  Grimme-D2 Dispersion energy=       -0.0003966353 Hartrees.
 Nuclear repulsion after empirical dispersion term =       13.4405199008 Hartrees.
 Leave Link  301 at Thu Sep 28 16:37:41 2023, MaxMem=  6291456000 cpu:         0.3
 (Enter /home/minenky/programs//g09/l302.exe)
 NPDir=0 NMtPBC=     1 NCelOv=     1 NCel=       1 NClECP=     1 NCelD=      1
         NCelK=      1 NCelE2=     1 NClLst=     1 CellRange=     0.0.
 One-electron integrals computed using PRISM.
 One-electron integral symmetry used in STVInt
  24 Symmetry operations used in ECPInt.
 ECPInt:  NShTT=     378 NPrTT=    1024 LenC2=     379 LenP2D=     994.
 LDataN:  DoStor=T MaxTD1= 6 Len=  172
 NBasis=    55 RedAO= T EigKep=  1.93D-03  NBF=    16    13    13    13
 NBsUse=    55 1.00D-06 EigRej= -1.00D+00 NBFU=    16    13    13    13
 Precomputing XC quadrature grid using
 IXCGrd= 4 IRadAn=           5 IRanWt=          -1 IRanGd=           0 AccXCQ= 0.00D+00.
 Generated NRdTot=       0 NPtTot=           0 NUsed=           0 NTot=          32
 NSgBfM=    60    60    60    60    60 MxSgAt=     5 MxSgA2=     5.
 Leave Link  302 at Thu Sep 28 16:37:41 2023, MaxMem=  6291456000 cpu:         1.5
 (Enter /home/minenky/programs//g09/l303.exe)
 DipDrv:  MaxL=1.
 Leave Link  303 at Thu Sep 28 16:37:41 2023, MaxMem=  6291456000 cpu:         0.2
 (Enter /home/minenky/programs//g09/l401.exe)
 ExpMin= 9.52D-02 ExpMax= 1.36D+04 ExpMxC= 4.63D+02 IAcc=3 IRadAn=         5 AccDes= 0.00D+00
 Harris functional with IExCor= 4639 and IRadAn=       5 diagonalized for initial guess.
 HarFok:  IExCor= 4639 AccDes= 0.00D+00 IRadAn=         5 IDoV= 1 UseB2=F ITyADJ=14
 ICtDFT=  3500011 ScaDFX=  1.000000  1.000000  1.000000  1.000000
 FoFCou: FMM=F IPFlag=           0 FMFlag=      100000 FMFlg1=           0
         NFxFlg=           0 DoJE=T BraDBF=F KetDBF=T FulRan=T
         wScrn=  0.000000 ICntrl=     500 IOpCl=  0 I1Cent=   200000004 NGrid=           0
         NMat0=    1 NMatS0=      1 NMatT0=    0 NMatD0=    1 NMtDS0=    0 NMtDT0=    0
 Petite list used in FoFCou.
 Harris En= -38.2745241083956    
 JPrj=0 DoOrth=F DoCkMO=F.
 Initial guess orbital symmetries:
       Occupied  (A1) (A1) (T2) (T2) (T2)
       Virtual   (A1) (T2) (T2) (T2) (T2) (T2) (T2) (A1) (T2) (T2)
                 (T2) (A1) (E) (E) (T2) (T2) (T2) (T2) (T2) (T2)
                 (A1) (T1) (T1) (T1) (A1) (T2) (T2) (T2) (T2) (T2)
                 (T2) (E) (E) (T2) (T2) (T2) (E) (E) (A1) (T1)
                 (T1) (T1) (T2) (T2) (T2) (T2) (T2) (T2) (A1) (A1)
 The electronic state of the initial guess is 1-A1.
 Leave Link  401 at Thu Sep 28 16:37:41 2023, MaxMem=  6291456000 cpu:         1.6
 (Enter /home/minenky/programs//g09/l502.exe)
 Closed shell SCF:
 Using DIIS extrapolation, IDIIS=  1040.
 Integral symmetry usage will be decided dynamically.
 Keep R1 ints in memory in symmetry-blocked form, NReq=4502049.
 IVT=      160836 IEndB=      160836 NGot=  6291456000 MDV=  6290993132
 LenX=  6290993132 LenY=  6290989091
 Requested convergence on RMS density matrix=1.00D-08 within 380 cycles.
 Requested convergence on MAX density matrix=1.00D-06.
 Requested convergence on             energy=1.00D-06.
 No special actions if energy rises.
 FoFCou: FMM=F IPFlag=           0 FMFlag=           0 FMFlg1=           0
         NFxFlg=           0 DoJE=F BraDBF=F KetDBF=F FulRan=T
         wScrn=  0.000000 ICntrl=     600 IOpCl=  0 I1Cent=           0 NGrid=           0
         NMat0=    1 NMatS0=   1540 NMatT0=    0 NMatD0=    1 NMtDS0=    0 NMtDT0=    0
 Petite list used in FoFCou.
 Integral accuracy reduced to 1.0D-05 until final iterations.

 Cycle   1  Pass 0  IDiag  1:
 E= -40.4939265252868    
 DIIS: error= 1.09D-01 at cycle   1 NSaved=   1.
 NSaved= 1 IEnMin= 1 EnMin= -40.4939265252868     IErMin= 1 ErrMin= 1.09D-01
 ErrMax= 1.09D-01  0.00D+00 EMaxC= 1.00D-01 BMatC= 9.16D-02 BMatP= 9.16D-02
 IDIUse=3 WtCom= 0.00D+00 WtEn= 1.00D+00
 Coeff-Com:  0.100D+01
 Coeff-En:   0.100D+01
 Coeff:      0.100D+01
 Gap=     0.568 Goal=   None    Shift=    0.000
 GapD=    0.568 DampG=2.000 DampE=0.250 DampFc=0.5000 IDamp=-1.
 Damping current iteration by 5.00D-01
 RMSDP=2.29D-03 MaxDP=3.13D-02              OVMax= 7.03D-02

 Cycle   2  Pass 0  IDiag  1:
 E= -40.5073821645713     Delta-E=       -0.013455639285 Rises=F Damp=T
 DIIS: error= 5.49D-02 at cycle   2 NSaved=   2.
 NSaved= 2 IEnMin= 2 EnMin= -40.5073821645713     IErMin= 2 ErrMin= 5.49D-02
 ErrMax= 5.49D-02  0.00D+00 EMaxC= 1.00D-01 BMatC= 1.97D-02 BMatP= 9.16D-02
 IDIUse=3 WtCom= 4.51D-01 WtEn= 5.49D-01
 Coeff-Com: -0.647D+00 0.165D+01
 Coeff-En:   0.000D+00 0.100D+01
 Coeff:     -0.292D+00 0.129D+01
 Gap=     0.610 Goal=   None    Shift=    0.000
 RMSDP=7.41D-04 MaxDP=1.57D-02 DE=-1.35D-02 OVMax= 3.13D-02

 Cycle   3  Pass 0  IDiag  1:
 E= -40.5191391272465     Delta-E=       -0.011756962675 Rises=F Damp=F
 DIIS: error= 3.49D-03 at cycle   3 NSaved=   3.
 NSaved= 3 IEnMin= 3 EnMin= -40.5191391272465     IErMin= 3 ErrMin= 3.49D-03
 ErrMax= 3.49D-03  0.00D+00 EMaxC= 1.00D-01 BMatC= 2.72D-04 BMatP= 1.97D-02
 IDIUse=3 WtCom= 9.65D-01 WtEn= 3.49D-02
 Coeff-Com: -0.117D+00 0.281D+00 0.837D+00
 Coeff-En:   0.000D+00 0.000D+00 0.100D+01
 Coeff:     -0.113D+00 0.271D+00 0.842D+00
 Gap=     0.605 Goal=   None    Shift=    0.000
 RMSDP=1.63D-04 MaxDP=2.18D-03 DE=-1.18D-02 OVMax= 4.61D-03

 Cycle   4  Pass 0  IDiag  1:
 E= -40.5193472283549     Delta-E=       -0.000208101108 Rises=F Damp=F
 DIIS: error= 2.42D-04 at cycle   4 NSaved=   4.
 NSaved= 4 IEnMin= 4 EnMin= -40.5193472283549     IErMin= 4 ErrMin= 2.42D-04
 ErrMax= 2.42D-04  0.00D+00 EMaxC= 1.00D-01 BMatC= 1.97D-06 BMatP= 2.72D-04
 IDIUse=3 WtCom= 9.98D-01 WtEn= 2.42D-03
 Coeff-Com:  0.346D-01-0.799D-01-0.155D+00 0.120D+01
 Coeff-En:   0.000D+00 0.000D+00 0.000D+00 0.100D+01
 Coeff:      0.345D-01-0.797D-01-0.155D+00 0.120D+01
 Gap=     0.606 Goal=   None    Shift=    0.000
 RMSDP=4.85D-05 MaxDP=4.01D-04 DE=-2.08D-04 OVMax= 6.98D-04

 Cycle   5  Pass 0  IDiag  1:
 E= -40.5193504009996     Delta-E=       -0.000003172645 Rises=F Damp=F
 DIIS: error= 1.71D-05 at cycle   5 NSaved=   5.
 NSaved= 5 IEnMin= 5 EnMin= -40.5193504009996     IErMin= 5 ErrMin= 1.71D-05
 ErrMax= 1.71D-05  0.00D+00 EMaxC= 1.00D-01 BMatC= 1.37D-08 BMatP= 1.97D-06
 IDIUse=1 WtCom= 1.00D+00 WtEn= 0.00D+00
 Coeff-Com: -0.407D-02 0.935D-02 0.132D-01-0.206D+00 0.119D+01
 Coeff:     -0.407D-02 0.935D-02 0.132D-01-0.206D+00 0.119D+01
 Gap=     0.606 Goal=   None    Shift=    0.000
 RMSDP=1.12D-05 MaxDP=8.27D-05 DE=-3.17D-06 OVMax= 1.10D-04

 Cycle   6  Pass 0  IDiag  1:
 E= -40.5193504467168     Delta-E=       -0.000000045717 Rises=F Damp=F
 DIIS: error= 2.89D-06 at cycle   6 NSaved=   6.
 NSaved= 6 IEnMin= 6 EnMin= -40.5193504467168     IErMin= 6 ErrMin= 2.89D-06
 ErrMax= 2.89D-06  0.00D+00 EMaxC= 1.00D-01 BMatC= 2.60D-10 BMatP= 1.37D-08
 IDIUse=1 WtCom= 1.00D+00 WtEn= 0.00D+00
 Coeff-Com:  0.481D-03-0.108D-02-0.885D-03 0.215D-01-0.183D+00 0.116D+01
 Coeff:      0.481D-03-0.108D-02-0.885D-03 0.215D-01-0.183D+00 0.116D+01
 Gap=     0.606 Goal=   None    Shift=    0.000
 RMSDP=1.46D-06 MaxDP=1.08D-05 DE=-4.57D-08 OVMax= 1.02D-05

 Initial convergence to 1.0D-05 achieved.  Increase integral accuracy.
 Cycle   7  Pass 1  IDiag  1:
 E= -40.5192778781636     Delta-E=        0.000072568553 Rises=F Damp=F
 DIIS: error= 5.49D-05 at cycle   1 NSaved=   1.
 NSaved= 1 IEnMin= 1 EnMin= -40.5192778781636     IErMin= 1 ErrMin= 5.49D-05
 ErrMax= 5.49D-05  0.00D+00 EMaxC= 1.00D-01 BMatC= 9.67D-08 BMatP= 9.67D-08
 IDIUse=1 WtCom= 1.00D+00 WtEn= 0.00D+00
 Coeff-Com:  0.100D+01
 Coeff:      0.100D+01
 Gap=     0.606 Goal=   None    Shift=    0.000
 RMSDP=1.46D-06 MaxDP=1.08D-05 DE= 7.26D-05 OVMax= 5.79D-05

 Cycle   8  Pass 1  IDiag  1:
 E= -40.5192779457952     Delta-E=       -0.000000067632 Rises=F Damp=F
 DIIS: error= 6.08D-06 at cycle   2 NSaved=   2.
 NSaved= 2 IEnMin= 2 EnMin= -40.5192779457952     IErMin= 2 ErrMin= 6.08D-06
 ErrMax= 6.08D-06  0.00D+00 EMaxC= 1.00D-01 BMatC= 1.49D-09 BMatP= 9.67D-08
 IDIUse=1 WtCom= 1.00D+00 WtEn= 0.00D+00
 Coeff-Com: -0.819D-01 0.108D+01
 Coeff:     -0.819D-01 0.108D+01
 Gap=     0.606 Goal=   None    Shift=    0.000
 RMSDP=4.05D-07 MaxDP=6.65D-06 DE=-6.76D-08 OVMax= 1.19D-05

 Cycle   9  Pass 1  IDiag  1:
 E= -40.5192779465892     Delta-E=       -0.000000000794 Rises=F Damp=F
 DIIS: error= 4.23D-06 at cycle   3 NSaved=   3.
 NSaved= 3 IEnMin= 3 EnMin= -40.5192779465892     IErMin= 3 ErrMin= 4.23D-06
 ErrMax= 4.23D-06  0.00D+00 EMaxC= 1.00D-01 BMatC= 3.70D-10 BMatP= 1.49D-09
 IDIUse=1 WtCom= 1.00D+00 WtEn= 0.00D+00
 Coeff-Com: -0.362D-01 0.413D+00 0.623D+00
 Coeff:     -0.362D-01 0.413D+00 0.623D+00
 Gap=     0.606 Goal=   None    Shift=    0.000
 RMSDP=1.93D-07 MaxDP=3.20D-06 DE=-7.94D-10 OVMax= 5.96D-06

 Cycle  10  Pass 1  IDiag  1:
 E= -40.5192779469405     Delta-E=       -0.000000000351 Rises=F Damp=F
 DIIS: error= 4.20D-07 at cycle   4 NSaved=   4.
 NSaved= 4 IEnMin= 4 EnMin= -40.5192779469405     IErMin= 4 ErrMin= 4.20D-07
 ErrMax= 4.20D-07  0.00D+00 EMaxC= 1.00D-01 BMatC= 5.00D-12 BMatP= 3.70D-10
 IDIUse=1 WtCom= 1.00D+00 WtEn= 0.00D+00
 Coeff-Com:  0.637D-02-0.814D-01 0.988D-03 0.107D+01
 Coeff:      0.637D-02-0.814D-01 0.988D-03 0.107D+01
 Gap=     0.606 Goal=   None    Shift=    0.000
 RMSDP=3.67D-08 MaxDP=5.21D-07 DE=-3.51D-10 OVMax= 6.43D-07

 Cycle  11  Pass 1  IDiag  1:
 E= -40.5192779469454     Delta-E=       -0.000000000005 Rises=F Damp=F
 DIIS: error= 1.85D-08 at cycle   5 NSaved=   5.
 NSaved= 5 IEnMin= 5 EnMin= -40.5192779469454     IErMin= 5 ErrMin= 1.85D-08
 ErrMax= 1.85D-08  0.00D+00 EMaxC= 1.00D-01 BMatC= 1.38D-14 BMatP= 5.00D-12
 IDIUse=1 WtCom= 1.00D+00 WtEn= 0.00D+00
 Coeff-Com: -0.499D-03 0.692D-02-0.509D-02-0.151D+00 0.115D+01
 Coeff:     -0.499D-03 0.692D-02-0.509D-02-0.151D+00 0.115D+01
 Gap=     0.606 Goal=   None    Shift=    0.000
 RMSDP=1.05D-08 MaxDP=8.03D-08 DE=-4.92D-12 OVMax= 1.01D-07

 Cycle  12  Pass 1  IDiag  1:
 E= -40.5192779469451     Delta-E=        0.000000000000 Rises=F Damp=F
 DIIS: error= 3.70D-09 at cycle   6 NSaved=   6.
 NSaved= 6 IEnMin= 5 EnMin= -40.5192779469454     IErMin= 6 ErrMin= 3.70D-09
 ErrMax= 3.70D-09  0.00D+00 EMaxC= 1.00D-01 BMatC= 4.32D-16 BMatP= 1.38D-14
 IDIUse=1 WtCom= 1.00D+00 WtEn= 0.00D+00
 Coeff-Com:  0.245D-04-0.351D-03 0.121D-02 0.128D-01-0.237D+00 0.122D+01
 Coeff:      0.245D-04-0.351D-03 0.121D-02 0.128D-01-0.237D+00 0.122D+01
 Gap=     0.606 Goal=   None    Shift=    0.000
 RMSDP=2.31D-09 MaxDP=2.10D-08 DE= 2.42D-13 OVMax= 1.71D-08

 SCF Done:  E(RwB97XD) =  -40.5192779469     A.U. after   12 cycles
            NFock= 12  Conv=0.23D-08     -V/T= 2.0067
 KE= 4.024793505261D+01 PE=-1.201225480316D+02 EE= 2.591481513120D+01
 Leave Link  502 at Thu Sep 28 16:37:41 2023, MaxMem=  6291456000 cpu:         7.3
 (Enter /home/minenky/programs//g09/l601.exe)
 Copying SCF densities to generalized density rwf, IOpCl= 0 IROHF=0.

 **********************************************************************

            Population analysis using the SCF density.

 **********************************************************************

 Orbital symmetries:
       Occupied  (A1) (A1) (T2) (T2) (T2)
       Virtual   (A1) (T2) (T2) (T2) (T2) (T2) (T2) (A1) (T2) (T2)
                 (T2) (A1) (E) (E) (T2) (T2) (T2) (A1) (T2) (T2)
                 (T2) (T1) (T1) (T1) (A1) (T2) (T2) (T2) (T2) (T2)
                 (T2) (E) (E) (T2) (T2) (T2) (E) (E) (A1) (T1)
                 (T1) (T1) (T2) (T2) (T2) (T2) (T2) (T2) (A1) (A1)
 The electronic state is 1-A1.
 Alpha  occ. eigenvalues --  -10.26320  -0.79150  -0.47676  -0.47676  -0.47676
 Alpha virt. eigenvalues --    0.12894   0.20418   0.20418   0.20418   0.28250
 Alpha virt. eigenvalues --    0.28250   0.28250   0.46883   0.55416   0.55416
 Alpha virt. eigenvalues --    0.55416   0.61303   0.67332   0.67332   1.01197
 Alpha virt. eigenvalues --    1.01197   1.01197   1.57209   1.57605   1.57605
 Alpha virt. eigenvalues --    1.57605   1.62080   1.62080   1.62080   2.04934
 Alpha virt. eigenvalues --    2.07993   2.07993   2.07993   2.33093   2.33093
 Alpha virt. eigenvalues --    2.33093   2.49481   2.49481   2.66635   2.66635
 Alpha virt. eigenvalues --    2.66635   3.06621   3.06621   3.09331   3.44791
 Alpha virt. eigenvalues --    3.44791   3.44791   3.58173   3.58173   3.58173
 Alpha virt. eigenvalues --    4.29554   4.29554   4.29554   4.56245  22.30150
          Condensed to atoms (all electrons):
               1          2          3          4          5
     1  C    4.888120   0.399480   0.399480   0.399480   0.399480
     2  H    0.399480   0.546427  -0.022472  -0.022472  -0.022472
     3  H    0.399480  -0.022472   0.546427  -0.022472  -0.022472
     4  H    0.399480  -0.022472  -0.022472   0.546427  -0.022472
     5  H    0.399480  -0.022472  -0.022472  -0.022472   0.546427
 Mulliken charges:
               1
     1  C   -0.486041
     2  H    0.121510
     3  H    0.121510
     4  H    0.121510
     5  H    0.121510
 Sum of Mulliken charges =   0.00000
 Mulliken charges with hydrogens summed into heavy atoms:
               1
     1  C    0.000000
 Electronic spatial extent (au):  <R**2>=             35.6466
 Charge=              0.0000 electrons
 Dipole moment (field-independent basis, Debye):
    X=              0.0000    Y=              0.0000    Z=              0.0000  Tot=              0.0000
 Quadrupole moment (field-independent basis, Debye-Ang):
   XX=             -8.3793   YY=             -8.3793   ZZ=             -8.3793
   XY=              0.0000   XZ=              0.0000   YZ=              0.0000
 Traceless Quadrupole moment (field-independent basis, Debye-Ang):
   XX=              0.0000   YY=              0.0000   ZZ=              0.0000
   XY=              0.0000   XZ=              0.0000   YZ=              0.0000
 Octapole moment (field-independent basis, Debye-Ang**2):
  XXX=              0.0000  YYY=              0.0000  ZZZ=              0.0000  XYY=              0.0000
  XXY=              0.0000  XXZ=              0.0000  XZZ=              0.0000  YZZ=              0.0000
  YYZ=              0.0000  XYZ=              0.7719
 Hexadecapole moment (field-independent basis, Debye-Ang**3):
 XXXX=            -16.8024 YYYY=            -16.8024 ZZZZ=            -16.8024 XXXY=              0.0000
 XXXZ=              0.0000 YYYX=              0.0000 YYYZ=              0.0000 ZZZX=              0.0000
 ZZZY=              0.0000 XXYY=             -5.0761 XXZZ=             -5.0761 YYZZ=             -5.0761
 XXYZ=              0.0000 YYXZ=              0.0000 ZZXY=              0.0000
 N-N= 1.344051990083D+01 E-N=-1.201225479824D+02  KE= 4.024793505261D+01
 Symmetry A    KE= 3.442509026128D+01
 Symmetry B1   KE= 1.940948263774D+00
 Symmetry B2   KE= 1.940948263774D+00
 Symmetry B3   KE= 1.940948263774D+00
 No NMR shielding tensors so no spin-rotation constants.
 Leave Link  601 at Thu Sep 28 16:37:41 2023, MaxMem=  6291456000 cpu:         1.2
 (Enter /home/minenky/programs//g09/l701.exe)
 Compute integral first derivatives.
 ... and contract with generalized density number  0.
 R6Disp: Adding Grimme-D2 dispersion energy 1st derivatives to the gradient.
  24 Symmetry operations used in ECPInt.
 ECPInt:  NShTT=     378 NPrTT=    1024 LenC2=     379 LenP2D=     994.
 LDataN:  DoStor=T MaxTD1= 7 Len=  274
 Leave Link  701 at Thu Sep 28 16:37:42 2023, MaxMem=  6291456000 cpu:         2.0
 (Enter /home/minenky/programs//g09/l702.exe)
 L702 exits ... SP integral derivatives will be done elsewhere.
 Leave Link  702 at Thu Sep 28 16:37:42 2023, MaxMem=  6291456000 cpu:         0.2
 (Enter /home/minenky/programs//g09/l703.exe)
 Compute integral first derivatives, UseDBF=F ICtDFT=           0.
 Integral derivatives from FoFJK, PRISM(SPDF).
 Calling FoFJK, ICntrl=      2127 FMM=F ISym2X=1 I1Cent= 0 IOpClX= 0 NMat=1 NMatS=1 NMatT=0.
 FoFJK:  IHMeth= 1 ICntrl=    2127 DoSepK=T KAlg= 0 I1Cent=   0 FoldK=F
 IRaf=         1 NMat=   1 IRICut=       1 DoRegI=T DoRafI=F ISym2E= 1.
 FoFCou: FMM=F IPFlag=           0 FMFlag=      100000 FMFlg1=         800
         NFxFlg=           0 DoJE=F BraDBF=F KetDBF=F FulRan=T
         wScrn=  0.000000 ICntrl=    2527 IOpCl=  0 I1Cent=           0 NGrid=           0
         NMat0=    1 NMatS0=      1 NMatT0=    0 NMatD0=    1 NMtDS0=    0 NMtDT0=    0
 Petite list used in FoFCou.
 Leave Link  703 at Thu Sep 28 16:37:42 2023, MaxMem=  6291456000 cpu:         9.0
 (Enter /home/minenky/programs//g09/l716.exe)
 Dipole        = 0.00000000D+00 2.22044605D-16 0.00000000D+00
 ***** Axes restored to original set *****
 -------------------------------------------------------------------
 Center     Atomic                   Forces (Hartrees/Bohr)
 Number     Number              X              Y              Z
 -------------------------------------------------------------------
      1        6           0.000000000    0.000000000    0.000000000
      2        1          -0.000235942   -0.000235942   -0.000235942
      3        1           0.000235942    0.000235942   -0.000235942
      4        1           0.000235942   -0.000235942    0.000235942
      5        1          -0.000235942    0.000235942    0.000235942
 -------------------------------------------------------------------
 Cartesian Forces:  Max     0.000235942 RMS     0.000211033
 Leave Link  716 at Thu Sep 28 16:37:42 2023, MaxMem=  6291456000 cpu:         0.2
 (Enter /home/minenky/programs//g09/l103.exe)

 GradGradGradGradGradGradGradGradGradGradGradGradGradGradGradGradGradGrad
 Berny optimization.
 FormGI is forming the generalized inverse of G from B-inverse, IUseBI=4.
 Internal  Forces:  Max     0.000408664 RMS     0.000218440
 Search for a local minimum.
 Step number   1 out of a maximum of   24
 All quantities printed in internal units (Hartrees-Bohrs-Radians)
 RMS Force = .21844D-03 SwitMx=.10000D-02 MixMth= 2
 Mixed Optimization -- En-DIIS/RFO-DIIS
 Second derivative matrix not updated -- first step.
 The second derivative matrix:
                          R1        R2        R3        R4        A1
           R1           0.34864
           R2           0.00000   0.34864
           R3           0.00000   0.00000   0.34864
           R4           0.00000   0.00000   0.00000   0.34864
           A1           0.00000   0.00000   0.00000   0.00000   0.16000
           A2           0.00000   0.00000   0.00000   0.00000   0.00000
           A3           0.00000   0.00000   0.00000   0.00000   0.00000
           A4           0.00000   0.00000   0.00000   0.00000   0.00000
           A5           0.00000   0.00000   0.00000   0.00000   0.00000
           A6           0.00000   0.00000   0.00000   0.00000   0.00000
           D1           0.00000   0.00000   0.00000   0.00000   0.00000
           D2           0.00000   0.00000   0.00000   0.00000   0.00000
           D3           0.00000   0.00000   0.00000   0.00000   0.00000
           D4           0.00000   0.00000   0.00000   0.00000   0.00000
                          A2        A3        A4        A5        A6
           A2           0.16000
           A3           0.00000   0.16000
           A4           0.00000   0.00000   0.16000
           A5           0.00000   0.00000   0.00000   0.16000
           A6           0.00000   0.00000   0.00000   0.00000   0.16000
           D1           0.00000   0.00000   0.00000   0.00000   0.00000
           D2           0.00000   0.00000   0.00000   0.00000   0.00000
           D3           0.00000   0.00000   0.00000   0.00000   0.00000
           D4           0.00000   0.00000   0.00000   0.00000   0.00000
                          D1        D2        D3        D4
           D1           0.00241
           D2           0.00000   0.00241
           D3           0.00000   0.00000   0.00241
           D4           0.00000   0.00000   0.00000   0.00241
 ITU=  0
     Eigenvalues ---    0.05090   0.05722   0.08646   0.16000   0.16000
     Eigenvalues ---    0.34864   0.34864   0.34864   0.34864
 RFO step:  Lambda=-1.91605737D-06 EMin= 5.08975655D-02
 Linear search not attempted -- first point.
 Iteration  1 RMS(Cart)=  0.00062654 RMS(Int)=  0.00000000
 Iteration  2 RMS(Cart)=  0.00000000 RMS(Int)=  0.00000000
 ITry= 1 IFail=0 DXMaxC= 6.77D-04 DCOld= 1.00D+10 DXMaxT= 3.00D-01 DXLimC= 3.00D+00 Rises=F
 ClnCor:  largest displacement from symmetrization is 7.38D-15 for atom     3.
 Variable       Old X    -DE/DX   Delta X   Delta X   Delta X     New X
                                 (Linear)    (Quad)   (Total)
    R1        2.05895  -0.00041   0.00000  -0.00117  -0.00117   2.05778
    R2        2.05895  -0.00041   0.00000  -0.00117  -0.00117   2.05778
    R3        2.05895  -0.00041   0.00000  -0.00117  -0.00117   2.05778
    R4        2.05895  -0.00041   0.00000  -0.00117  -0.00117   2.05778
    A1        1.91063   0.00000   0.00000   0.00000   0.00000   1.91063
    A2        1.91063   0.00000   0.00000   0.00000   0.00000   1.91063
    A3        1.91063   0.00000   0.00000   0.00000   0.00000   1.91063
    A4        1.91063   0.00000   0.00000   0.00000   0.00000   1.91063
    A5        1.91063   0.00000   0.00000   0.00000   0.00000   1.91063
    A6        1.91063   0.00000   0.00000   0.00000   0.00000   1.91063
    D1       -2.09440   0.00000   0.00000   0.00000   0.00000  -2.09440
    D2        2.09440   0.00000   0.00000   0.00000   0.00000   2.09440
    D3       -2.09440   0.00000   0.00000   0.00000   0.00000  -2.09440
    D4        2.09440   0.00000   0.00000   0.00000   0.00000   2.09440
         Item               Value     Threshold  Converged?
 Maximum Force            0.000409     0.000015     NO 
 RMS     Force            0.000218     0.000010     NO 
 Maximum Displacement     0.000677     0.000060     NO 
 RMS     Displacement     0.000627     0.000040     NO 
 Predicted change in Energy=-9.580287D-07
 Lowest energy point so far.  Saving SCF results.
 GradGradGradGradGradGradGradGradGradGradGradGradGradGradGradGradGradGrad

 Leave Link  103 at Thu Sep 28 16:37:42 2023, MaxMem=  6291456000 cpu:         0.0
 (Enter /home/minenky/programs//g09/l202.exe)
                          Input orientation:                          
 ---------------------------------------------------------------------
 Center     Atomic      Atomic             Coordinates (Angstroms)
 Number     Number       Type             X           Y           Z
 ---------------------------------------------------------------------
      1          6           0        0.000000    0.000000    0.000000
      2          1           0        0.628695    0.628695    0.628695
      3          1           0       -0.628695   -0.628695    0.628695
      4          1           0       -0.628695    0.628695   -0.628695
      5          1           0        0.628695   -0.628695   -0.628695
 ---------------------------------------------------------------------
                    Distance matrix (angstroms):
                    1          2          3          4          5
     1  C    0.000000
     2  H    1.088931   0.000000
     3  H    1.088931   1.778218   0.000000
     4  H    1.088931   1.778218   1.778218   0.000000
     5  H    1.088931   1.778218   1.778218   1.778218   0.000000
 Stoichiometry    CH4
 Framework group  TD[O(C),4C3(H)]
 Deg. of freedom     1
 Full point group                 TD      NOp  24
 RotChk:  IX=0 Diff= 8.31D-16
 Largest Abelian subgroup         D2      NOp   4
 Largest concise Abelian subgroup D2      NOp   4
                         Standard orientation:                         
 ---------------------------------------------------------------------
 Center     Atomic      Atomic             Coordinates (Angstroms)
 Number     Number       Type             X           Y           Z
 ---------------------------------------------------------------------
      1          6           0        0.000000    0.000000    0.000000
      2          1           0        0.628695    0.628695    0.628695
      3          1           0       -0.628695   -0.628695    0.628695
      4          1           0       -0.628695    0.628695   -0.628695
      5          1           0        0.628695   -0.628695   -0.628695
 ---------------------------------------------------------------------
 Rotational constants (GHZ):    158.5850377    158.5850377    158.5850377
 Leave Link  202 at Thu Sep 28 16:37:42 2023, MaxMem=  6291456000 cpu:         0.0
 (Enter /home/minenky/programs//g09/l301.exe)
 Standard basis: def2TZVP (5D, 7F)
 Ernie: Thresh=  0.10000D-02 Tol=  0.10000D-05 Strict=F.
 There are    18 symmetry adapted cartesian basis functions of A   symmetry.
 There are    14 symmetry adapted cartesian basis functions of B1  symmetry.
 There are    14 symmetry adapted cartesian basis functions of B2  symmetry.
 There are    14 symmetry adapted cartesian basis functions of B3  symmetry.
 There are    16 symmetry adapted basis functions of A   symmetry.
 There are    13 symmetry adapted basis functions of B1  symmetry.
 There are    13 symmetry adapted basis functions of B2  symmetry.
 There are    13 symmetry adapted basis functions of B3  symmetry.
    55 basis functions,    83 primitive gaussians,    60 cartesian basis functions
     5 alpha electrons        5 beta electrons
       nuclear repulsion energy        13.4485726728 Hartrees.
 IExCor= 4639 DFT=T Ex+Corr=wB97XD ExCW=0 ScaHFX=  1.000000
 ScaDFX=  1.000000  1.000000  1.000000  1.000000 ScalE2=  1.000000  1.000000
 IRadAn=      5 IRanWt=     -1 IRanGd=            0 ICorTp=0 IEmpDi=121
  HFx wShort=  0.000000 wLong=  0.200000 cFull=  0.222036 cShort=  0.000000 cLong=  0.777964
  DFx wShort=  0.000000 wLong=  0.200000 cFull=  0.000000 cShort=  0.000000 cLong=  1.000000
 NAtoms=    5 NActive=    5 NUniq=    2 SFac= 4.00D+00 NAtFMM=   60 NAOKFM=F Big=F
 Integral buffers will be    131072 words long.
 Raffenetti 2 integral format.
 Two-electron integral symmetry is turned on.
 R6Disp:  Grimme-D2 Dispersion energy=       -0.0003953860 Hartrees.
 Nuclear repulsion after empirical dispersion term =       13.4481772868 Hartrees.
 Leave Link  301 at Thu Sep 28 16:37:42 2023, MaxMem=  6291456000 cpu:         0.3
 (Enter /home/minenky/programs//g09/l302.exe)
 NPDir=0 NMtPBC=     1 NCelOv=     1 NCel=       1 NClECP=     1 NCelD=      1
         NCelK=      1 NCelE2=     1 NClLst=     1 CellRange=     0.0.
 One-electron integrals computed using PRISM.
 One-electron integral symmetry used in STVInt
  24 Symmetry operations used in ECPInt.
 ECPInt:  NShTT=     378 NPrTT=    1024 LenC2=     379 LenP2D=     994.
 LDataN:  DoStor=T MaxTD1= 6 Len=  172
 NBasis=    55 RedAO= T EigKep=  1.93D-03  NBF=    16    13    13    13
 NBsUse=    55 1.00D-06 EigRej= -1.00D+00 NBFU=    16    13    13    13
 Precomputing XC quadrature grid using
 IXCGrd= 4 IRadAn=           5 IRanWt=          -1 IRanGd=           0 AccXCQ= 0.00D+00.
 Generated NRdTot=       0 NPtTot=           0 NUsed=           0 NTot=          32
 NSgBfM=    60    60    60    60    60 MxSgAt=     5 MxSgA2=     5.
 Leave Link  302 at Thu Sep 28 16:37:42 2023, MaxMem=  6291456000 cpu:         1.5
 (Enter /home/minenky/programs//g09/l303.exe)
 DipDrv:  MaxL=1.
 Leave Link  303 at Thu Sep 28 16:37:42 2023, MaxMem=  6291456000 cpu:         0.2
 (Enter /home/minenky/programs//g09/l401.exe)
 Initial guess from the checkpoint file:  "m1_00_74-82-80_CH4_wB97XD.chk"
 B after Tr=     0.000000    0.000000    0.000000
         Rot=    1.000000    0.000000    0.000000    0.000000 Ang=   0.00 deg.
 Guess basis will be translated and rotated to current coordinates.
 JPrj=2 DoOrth=T DoCkMO=T.
 Initial guess orbital symmetries:
       Occupied  (A1) (A1) (T2) (T2) (T2)
       Virtual   (A1) (E) (E) (A1) (A1) (A1) (E) (E) (A1) (A1)
                 (E) (E) (A1) (A1) (T2) (T2) (T1) (T2) (T2) (T2)
                 (T2) (T2) (T1) (T2) (T2) (T2) (T2) (T2) (T1) (T2)
                 (T2) (T2) (T2) (T2) (T1) (T2) (T2) (T2) (T2) (T2)
                 (T1) (T2) (T2) (T2) (T2) (T2) (T1) (T2) (T2) (T2)
 The electronic state of the initial guess is 1-A1.
 Leave Link  401 at Thu Sep 28 16:37:42 2023, MaxMem=  6291456000 cpu:         0.7
 (Enter /home/minenky/programs//g09/l502.exe)
 Closed shell SCF:
 Using DIIS extrapolation, IDIIS=  1040.
 Integral symmetry usage will be decided dynamically.
 Keep R1 ints in memory in symmetry-blocked form, NReq=4502049.
 IVT=      160836 IEndB=      160836 NGot=  6291456000 MDV=  6290993132
 LenX=  6290993132 LenY=  6290989091
 Requested convergence on RMS density matrix=1.00D-08 within 380 cycles.
 Requested convergence on MAX density matrix=1.00D-06.
 Requested convergence on             energy=1.00D-06.
 No special actions if energy rises.
 FoFCou: FMM=F IPFlag=           0 FMFlag=           0 FMFlg1=           0
         NFxFlg=           0 DoJE=F BraDBF=F KetDBF=F FulRan=T
         wScrn=  0.000000 ICntrl=     600 IOpCl=  0 I1Cent=           0 NGrid=           0
         NMat0=    1 NMatS0=   1540 NMatT0=    0 NMatD0=    1 NMtDS0=    0 NMtDT0=    0
 Petite list used in FoFCou.

 Cycle   1  Pass 1  IDiag  1:
 E= -40.5192786847419    
 DIIS: error= 7.51D-05 at cycle   1 NSaved=   1.
 NSaved= 1 IEnMin= 1 EnMin= -40.5192786847419     IErMin= 1 ErrMin= 7.51D-05
 ErrMax= 7.51D-05  0.00D+00 EMaxC= 1.00D-01 BMatC= 2.39D-07 BMatP= 2.39D-07
 IDIUse=1 WtCom= 1.00D+00 WtEn= 0.00D+00
 Coeff-Com:  0.100D+01
 Coeff:      0.100D+01
 Gap=     1.145 Goal=   None    Shift=    0.000
 RMSDP=6.77D-06 MaxDP=1.19D-04              OVMax= 1.73D-04

 Cycle   2  Pass 1  IDiag  1:
 E= -40.5192788514709     Delta-E=       -0.000000166729 Rises=F Damp=F
 DIIS: error= 4.49D-05 at cycle   2 NSaved=   2.
 NSaved= 2 IEnMin= 2 EnMin= -40.5192788514709     IErMin= 2 ErrMin= 4.49D-05
 ErrMax= 4.49D-05  0.00D+00 EMaxC= 1.00D-01 BMatC= 4.58D-08 BMatP= 2.39D-07
 IDIUse=1 WtCom= 1.00D+00 WtEn= 0.00D+00
 Coeff-Com:  0.232D+00 0.768D+00
 Coeff:      0.232D+00 0.768D+00
 Gap=     0.606 Goal=   None    Shift=    0.000
 RMSDP=2.44D-06 MaxDP=4.97D-05 DE=-1.67D-07 OVMax= 7.45D-05

 Cycle   3  Pass 1  IDiag  1:
 E= -40.5192788878032     Delta-E=       -0.000000036332 Rises=F Damp=F
 DIIS: error= 1.73D-05 at cycle   3 NSaved=   3.
 NSaved= 3 IEnMin= 3 EnMin= -40.5192788878032     IErMin= 3 ErrMin= 1.73D-05
 ErrMax= 1.73D-05  0.00D+00 EMaxC= 1.00D-01 BMatC= 5.82D-09 BMatP= 4.58D-08
 IDIUse=1 WtCom= 1.00D+00 WtEn= 0.00D+00
 Coeff-Com: -0.169D-01 0.253D+00 0.764D+00
 Coeff:     -0.169D-01 0.253D+00 0.764D+00
 Gap=     0.606 Goal=   None    Shift=    0.000
 RMSDP=6.90D-07 MaxDP=1.09D-05 DE=-3.63D-08 OVMax= 2.20D-05

 Cycle   4  Pass 1  IDiag  1:
 E= -40.5192788931943     Delta-E=       -0.000000005391 Rises=F Damp=F
 DIIS: error= 4.28D-07 at cycle   4 NSaved=   4.
 NSaved= 4 IEnMin= 4 EnMin= -40.5192788931943     IErMin= 4 ErrMin= 4.28D-07
 ErrMax= 4.28D-07  0.00D+00 EMaxC= 1.00D-01 BMatC= 3.51D-12 BMatP= 5.82D-09
 IDIUse=1 WtCom= 1.00D+00 WtEn= 0.00D+00
 Coeff-Com:  0.888D-03-0.277D-01-0.741D-01 0.110D+01
 Coeff:      0.888D-03-0.277D-01-0.741D-01 0.110D+01
 Gap=     0.606 Goal=   None    Shift=    0.000
 RMSDP=4.92D-08 MaxDP=5.62D-07 DE=-5.39D-09 OVMax= 1.14D-06

 Cycle   5  Pass 1  IDiag  1:
 E= -40.5192788932007     Delta-E=       -0.000000000006 Rises=F Damp=F
 DIIS: error= 1.15D-07 at cycle   5 NSaved=   5.
 NSaved= 5 IEnMin= 5 EnMin= -40.5192788932007     IErMin= 5 ErrMin= 1.15D-07
 ErrMax= 1.15D-07  0.00D+00 EMaxC= 1.00D-01 BMatC= 1.68D-13 BMatP= 3.51D-12
 IDIUse=1 WtCom= 1.00D+00 WtEn= 0.00D+00
 Coeff-Com:  0.295D-03-0.319D-02-0.532D-02-0.585D-01 0.107D+01
 Coeff:      0.295D-03-0.319D-02-0.532D-02-0.585D-01 0.107D+01
 Gap=     0.606 Goal=   None    Shift=    0.000
 RMSDP=7.91D-09 MaxDP=1.33D-07 DE=-6.42D-12 OVMax= 2.07D-07

 SCF Done:  E(RwB97XD) =  -40.5192788932     A.U. after    5 cycles
            NFock=  5  Conv=0.79D-08     -V/T= 2.0067
 KE= 4.025124465205D+01 PE=-1.201402329822D+02 EE= 2.592153215013D+01
 Leave Link  502 at Thu Sep 28 16:37:43 2023, MaxMem=  6291456000 cpu:         5.7
 (Enter /home/minenky/programs//g09/l701.exe)
 Compute integral first derivatives.
 ... and contract with generalized density number  0.
 R6Disp: Adding Grimme-D2 dispersion energy 1st derivatives to the gradient.
  24 Symmetry operations used in ECPInt.
 ECPInt:  NShTT=     378 NPrTT=    1024 LenC2=     379 LenP2D=     994.
 LDataN:  DoStor=T MaxTD1= 7 Len=  274
 Leave Link  701 at Thu Sep 28 16:37:43 2023, MaxMem=  6291456000 cpu:         2.0
 (Enter /home/minenky/programs//g09/l702.exe)
 L702 exits ... SP integral derivatives will be done elsewhere.
 Leave Link  702 at Thu Sep 28 16:37:43 2023, MaxMem=  6291456000 cpu:         0.2
 (Enter /home/minenky/programs//g09/l703.exe)
 Compute integral first derivatives, UseDBF=F ICtDFT=           0.
 Integral derivatives from FoFJK, PRISM(SPDF).
 Calling FoFJK, ICntrl=      2127 FMM=F ISym2X=1 I1Cent= 0 IOpClX= 0 NMat=1 NMatS=1 NMatT=0.
 FoFJK:  IHMeth= 1 ICntrl=    2127 DoSepK=T KAlg= 0 I1Cent=   0 FoldK=F
 IRaf=         1 NMat=   1 IRICut=       1 DoRegI=T DoRafI=F ISym2E= 1.
 FoFCou: FMM=F IPFlag=           0 FMFlag=      100000 FMFlg1=         800
         NFxFlg=           0 DoJE=F BraDBF=F KetDBF=F FulRan=T
         wScrn=  0.000000 ICntrl=    2527 IOpCl=  0 I1Cent=           0 NGrid=           0
         NMat0=    1 NMatS0=      1 NMatT0=    0 NMatD0=    1 NMtDS0=    0 NMtDT0=    0
 Petite list used in FoFCou.
 Leave Link  703 at Thu Sep 28 16:37:43 2023, MaxMem=  6291456000 cpu:         8.9
 (Enter /home/minenky/programs//g09/l716.exe)
 Dipole        = 0.00000000D+00-2.22044605D-16 0.00000000D+00
 ***** Axes restored to original set *****
 -------------------------------------------------------------------
 Center     Atomic                   Forces (Hartrees/Bohr)
 Number     Number              X              Y              Z
 -------------------------------------------------------------------
      1        6           0.000000000    0.000000000    0.000000000
      2        1           0.000003039    0.000003039    0.000003039
      3        1          -0.000003039   -0.000003039    0.000003039
      4        1          -0.000003039    0.000003039   -0.000003039
      5        1           0.000003039   -0.000003039   -0.000003039
 -------------------------------------------------------------------
 Cartesian Forces:  Max     0.000003039 RMS     0.000002718
 Leave Link  716 at Thu Sep 28 16:37:44 2023, MaxMem=  6291456000 cpu:         0.2
 (Enter /home/minenky/programs//g09/l103.exe)

 GradGradGradGradGradGradGradGradGradGradGradGradGradGradGradGradGradGrad
 Berny optimization.
 Using GEDIIS/GDIIS optimizer.
 FormGI is forming the generalized inverse of G from B-inverse, IUseBI=4.
 Internal  Forces:  Max     0.000005264 RMS     0.000002814
 Search for a local minimum.
 Step number   2 out of a maximum of   24
 All quantities printed in internal units (Hartrees-Bohrs-Radians)
 RMS Force = .28135D-05 SwitMx=.10000D-02 MixMth= 2
 Mixed Optimization -- En-DIIS/RFO-DIIS
 Swapping is turned off.
 Update second derivatives using D2CorX and points    1    2
 DE= -9.46D-07 DEPred=-9.58D-07 R= 9.88D-01
 Trust test= 9.88D-01 RLast= 2.34D-03 DXMaxT set to 3.00D-01
 The second derivative matrix:
                          R1        R2        R3        R4        A1
           R1           0.34977
           R2           0.00112   0.34977
           R3           0.00112   0.00112   0.34977
           R4           0.00112   0.00112   0.00112   0.34977
           A1           0.00000   0.00000   0.00000   0.00000   0.16000
           A2           0.00000   0.00000   0.00000   0.00000   0.00000
           A3           0.00000   0.00000   0.00000   0.00000   0.00000
           A4           0.00000   0.00000   0.00000   0.00000   0.00000
           A5           0.00000   0.00000   0.00000   0.00000   0.00000
           A6           0.00000   0.00000   0.00000   0.00000   0.00000
           D1           0.00000   0.00000   0.00000   0.00000   0.00000
           D2           0.00000   0.00000   0.00000   0.00000   0.00000
           D3           0.00000   0.00000   0.00000   0.00000   0.00000
           D4           0.00000   0.00000   0.00000   0.00000   0.00000
                          A2        A3        A4        A5        A6
           A2           0.16000
           A3           0.00000   0.16000
           A4           0.00000   0.00000   0.16000
           A5           0.00000   0.00000   0.00000   0.16000
           A6           0.00000   0.00000   0.00000   0.00000   0.16000
           D1           0.00000   0.00000   0.00000   0.00000   0.00000
           D2           0.00000   0.00000   0.00000   0.00000   0.00000
           D3           0.00000   0.00000   0.00000   0.00000   0.00000
           D4           0.00000   0.00000   0.00000   0.00000   0.00000
                          D1        D2        D3        D4
           D1           0.00241
           D2           0.00000   0.00241
           D3           0.00000   0.00000   0.00241
           D4           0.00000   0.00000   0.00000   0.00241
 ITU=  0  0
     Eigenvalues ---    0.05090   0.05722   0.08646   0.16000   0.16000
     Eigenvalues ---    0.34864   0.34864   0.34864   0.35314
 En-DIIS/RFO-DIIS IScMMF=        0 using points:     2    1
 RFO step:  Lambda= 0.00000000D+00.
 NNeg= 0 NP= 2 Switch=  2.50D-03 Rises=F DC=  9.46D-07 SmlDif=  1.00D-05
 RMS Error=  0.4734559076D-05 NUsed= 2 EDIIS=F
 DidBck=F Rises=F RFO-DIIS coefs:    0.98728    0.01272
 Iteration  1 RMS(Cart)=  0.00000797 RMS(Int)=  0.00000000
 Iteration  2 RMS(Cart)=  0.00000000 RMS(Int)=  0.00000000
 ITry= 1 IFail=0 DXMaxC= 8.61D-06 DCOld= 1.00D+10 DXMaxT= 3.00D-01 DXLimC= 3.00D+00 Rises=F
 ClnCor:  largest displacement from symmetrization is 6.03D-15 for atom     5.
 Variable       Old X    -DE/DX   Delta X   Delta X   Delta X     New X
                                 (Linear)    (Quad)   (Total)
    R1        2.05778   0.00001   0.00001   0.00000   0.00001   2.05780
    R2        2.05778   0.00001   0.00001   0.00000   0.00001   2.05780
    R3        2.05778   0.00001   0.00001   0.00000   0.00001   2.05780
    R4        2.05778   0.00001   0.00001   0.00000   0.00001   2.05780
    A1        1.91063   0.00000   0.00000   0.00000   0.00000   1.91063
    A2        1.91063   0.00000   0.00000   0.00000   0.00000   1.91063
    A3        1.91063   0.00000   0.00000   0.00000   0.00000   1.91063
    A4        1.91063   0.00000   0.00000   0.00000   0.00000   1.91063
    A5        1.91063   0.00000   0.00000   0.00000   0.00000   1.91063
    A6        1.91063   0.00000   0.00000   0.00000   0.00000   1.91063
    D1       -2.09440   0.00000   0.00000   0.00000   0.00000  -2.09440
    D2        2.09440   0.00000   0.00000   0.00000   0.00000   2.09440
    D3       -2.09440   0.00000   0.00000   0.00000   0.00000  -2.09440
    D4        2.09440   0.00000   0.00000   0.00000   0.00000   2.09440
         Item               Value     Threshold  Converged?
 Maximum Force            0.000005     0.000015     YES
 RMS     Force            0.000003     0.000010     YES
 Maximum Displacement     0.000009     0.000060     YES
 RMS     Displacement     0.000008     0.000040     YES
 Predicted change in Energy=-1.569123D-10
 Optimization completed.
    -- Stationary point found.
                           ----------------------------
                           !   Optimized Parameters   !
                           ! (Angstroms and Degrees)  !
 --------------------------                            --------------------------
 ! Name  Definition              Value          Derivative Info.                !
 --------------------------------------------------------------------------------
 ! R1    R(1,2)                  1.0889         -DE/DX =    0.0                 !
 ! R2    R(1,3)                  1.0889         -DE/DX =    0.0                 !
 ! R3    R(1,4)                  1.0889         -DE/DX =    0.0                 !
 ! R4    R(1,5)                  1.0889         -DE/DX =    0.0                 !
 ! A1    A(2,1,3)              109.4712         -DE/DX =    0.0                 !
 ! A2    A(2,1,4)              109.4712         -DE/DX =    0.0                 !
 ! A3    A(2,1,5)              109.4712         -DE/DX =    0.0                 !
 ! A4    A(3,1,4)              109.4712         -DE/DX =    0.0                 !
 ! A5    A(3,1,5)              109.4712         -DE/DX =    0.0                 !
 ! A6    A(4,1,5)              109.4712         -DE/DX =    0.0                 !
 ! D1    D(2,1,4,3)           -120.0            -DE/DX =    0.0                 !
 ! D2    D(2,1,5,3)            120.0            -DE/DX =    0.0                 !
 ! D3    D(2,1,5,4)           -120.0            -DE/DX =    0.0                 !
 ! D4    D(3,1,5,4)            120.0            -DE/DX =    0.0                 !
 --------------------------------------------------------------------------------
 Lowest energy point so far.  Saving SCF results.
 GradGradGradGradGradGradGradGradGradGradGradGradGradGradGradGradGradGrad

 Largest change from initial coordinates is atom    2       0.001 Angstoms.
 Leave Link  103 at Thu Sep 28 16:37:44 2023, MaxMem=  6291456000 cpu:         0.0
 (Enter /home/minenky/programs//g09/l202.exe)
                          Input orientation:                          
 ---------------------------------------------------------------------
 Center     Atomic      Atomic             Coordinates (Angstroms)
 Number     Number       Type             X           Y           Z
 ---------------------------------------------------------------------
      1          6           0        0.000000    0.000000    0.000000
      2          1           0        0.628695    0.628695    0.628695
      3          1           0       -0.628695   -0.628695    0.628695
      4          1           0       -0.628695    0.628695   -0.628695
      5          1           0        0.628695   -0.628695   -0.628695
 ---------------------------------------------------------------------
                    Distance matrix (angstroms):
                    1          2          3          4          5
     1  C    0.000000
     2  H    1.088931   0.000000
     3  H    1.088931   1.778218   0.000000
     4  H    1.088931   1.778218   1.778218   0.000000
     5  H    1.088931   1.778218   1.778218   1.778218   0.000000
 Stoichiometry    CH4
 Framework group  TD[O(C),4C3(H)]
 Deg. of freedom     1
 Full point group                 TD      NOp  24
 RotChk:  IX=0 Diff= 5.50D-16
 Largest Abelian subgroup         D2      NOp   4
 Largest concise Abelian subgroup D2      NOp   4
                         Standard orientation:                         
 ---------------------------------------------------------------------
 Center     Atomic      Atomic             Coordinates (Angstroms)
 Number     Number       Type             X           Y           Z
 ---------------------------------------------------------------------
      1          6           0        0.000000    0.000000    0.000000
      2          1           0        0.628695    0.628695    0.628695
      3          1           0       -0.628695   -0.628695    0.628695
      4          1           0       -0.628695    0.628695   -0.628695
      5          1           0        0.628695   -0.628695   -0.628695
 ---------------------------------------------------------------------
 Rotational constants (GHZ):    158.5850377    158.5850377    158.5850377
 Leave Link  202 at Thu Sep 28 16:37:44 2023, MaxMem=  6291456000 cpu:         0.0
 (Enter /home/minenky/programs//g09/l601.exe)
 Copying SCF densities to generalized density rwf, IOpCl= 0 IROHF=0.

 **********************************************************************

            Population analysis using the SCF density.

 **********************************************************************

 Orbital symmetries:
       Occupied  (A1) (A1) (T2) (T2) (T2)
       Virtual   (A1) (T2) (T2) (T2) (T2) (T2) (T2) (A1) (T2) (T2)
                 (T2) (A1) (E) (E) (T2) (T2) (T2) (A1) (T2) (T2)
                 (T2) (T1) (T1) (T1) (A1) (T2) (T2) (T2) (T2) (T2)
                 (T2) (E) (E) (T2) (T2) (T2) (E) (E) (A1) (T1)
                 (T1) (T1) (T2) (T2) (T2) (T2) (T2) (T2) (A1) (A1)
 The electronic state is 1-A1.
 Alpha  occ. eigenvalues --  -10.26293  -0.79169  -0.47687  -0.47687  -0.47687
 Alpha virt. eigenvalues --    0.12902   0.20431   0.20431   0.20431   0.28249
 Alpha virt. eigenvalues --    0.28249   0.28249   0.46888   0.55442   0.55442
 Alpha virt. eigenvalues --    0.55442   0.61356   0.67331   0.67331   1.01196
 Alpha virt. eigenvalues --    1.01196   1.01196   1.57188   1.57599   1.57599
 Alpha virt. eigenvalues --    1.57599   1.62129   1.62129   1.62129   2.04917
 Alpha virt. eigenvalues --    2.08022   2.08022   2.08022   2.33132   2.33132
 Alpha virt. eigenvalues --    2.33132   2.49514   2.49514   2.66711   2.66711
 Alpha virt. eigenvalues --    2.66711   3.06667   3.06667   3.09442   3.44856
 Alpha virt. eigenvalues --    3.44856   3.44856   3.58215   3.58215   3.58215
 Alpha virt. eigenvalues --    4.29703   4.29703   4.29703   4.56363  22.30490
          Condensed to atoms (all electrons):
               1          2          3          4          5
     1  C    4.887641   0.399577   0.399577   0.399577   0.399577
     2  H    0.399577   0.546384  -0.022483  -0.022483  -0.022483
     3  H    0.399577  -0.022483   0.546384  -0.022483  -0.022483
     4  H    0.399577  -0.022483  -0.022483   0.546384  -0.022483
     5  H    0.399577  -0.022483  -0.022483  -0.022483   0.546384
 Mulliken charges:
               1
     1  C   -0.485948
     2  H    0.121487
     3  H    0.121487
     4  H    0.121487
     5  H    0.121487
 Sum of Mulliken charges =   0.00000
 Mulliken charges with hydrogens summed into heavy atoms:
               1
     1  C    0.000000
 Electronic spatial extent (au):  <R**2>=             35.6233
 Charge=              0.0000 electrons
 Dipole moment (field-independent basis, Debye):
    X=              0.0000    Y=              0.0000    Z=              0.0000  Tot=              0.0000
 Quadrupole moment (field-independent basis, Debye-Ang):
   XX=             -8.3775   YY=             -8.3775   ZZ=             -8.3775
   XY=              0.0000   XZ=              0.0000   YZ=              0.0000
 Traceless Quadrupole moment (field-independent basis, Debye-Ang):
   XX=              0.0000   YY=              0.0000   ZZ=              0.0000
   XY=              0.0000   XZ=              0.0000   YZ=              0.0000
 Octapole moment (field-independent basis, Debye-Ang**2):
  XXX=              0.0000  YYY=              0.0000  ZZZ=              0.0000  XYY=              0.0000
  XXY=              0.0000  XXZ=              0.0000  XZZ=              0.0000  YZZ=              0.0000
  YYZ=              0.0000  XYZ=              0.7701
 Hexadecapole moment (field-independent basis, Debye-Ang**3):
 XXXX=            -16.7860 YYYY=            -16.7860 ZZZZ=            -16.7860 XXXY=              0.0000
 XXXZ=              0.0000 YYYX=              0.0000 YYYZ=              0.0000 ZZZX=              0.0000
 ZZZY=              0.0000 XXYY=             -5.0720 XXZZ=             -5.0720 YYZZ=             -5.0720
 XXYZ=              0.0000 YYXZ=              0.0000 ZZXY=              0.0000
 N-N= 1.344817728678D+01 E-N=-1.201402317297D+02  KE= 4.025124465205D+01
 Symmetry A    KE= 3.442560540937D+01
 Symmetry B1   KE= 1.941879747560D+00
 Symmetry B2   KE= 1.941879747560D+00
 Symmetry B3   KE= 1.941879747560D+00
 No NMR shielding tensors so no spin-rotation constants.
 Leave Link  601 at Thu Sep 28 16:37:44 2023, MaxMem=  6291456000 cpu:         1.1
 (Enter /home/minenky/programs//g09/l9999.exe)
 1\1\GINC-PC1\FOpt\RwB97XD\def2TZVP\C1H4\MINENKY\28-Sep-2023\0\\#P wB97
 XD/def2tzvp opt=(tight) freq integral(Grid=ultrafine) # SCF(MaxCycle=3
 80) 5d 7f GFPrint\\The PBEPBE optimization and frequencies\\0,1\C,0.,0
 .,0.\H,0.6286948865,0.6286948865,0.6286948865\H,-0.6286948865,-0.62869
 48865,0.6286948865\H,-0.6286948865,0.6286948865,-0.6286948865\H,0.6286
 948865,-0.6286948865,-0.6286948865\\Version=AM64L-G09RevD.01\State=1-A
 1\HF=-40.5192789\RMSD=7.905e-09\RMSF=2.718e-06\Dipole=0.,0.,0.\Quadrup
 ole=0.,0.,0.,0.,0.,0.\PG=TD [O(C1),4C3(H1)]\\@


 THE TRULY SUCCESSFUL PERFORMANCE OF RESEARCHES IN
 INORGANIC CHEMISTRY IS POSSIBLE ONLY TO ONE WHO IS NOT
 ONLY A THEORETICAL CHEMIST, BUT ALSO AN ACCOMPLISHED
 ANALYST AND, MOREOVER, NOT MERELY A PRACTICALLY TRAINED,
 MECHANICAL WORKER, BUT A THINKING CREATIVE ARTIST.
   --  CLEMENS WINKLER, BER. 33, 1697(1900)
 Leave Link 9999 at Thu Sep 28 16:37:44 2023, MaxMem=  6291456000 cpu:         0.2
 Job cpu time:       0 days  0 hours  0 minutes 49.6 seconds.
 File lengths (MBytes):  RWF=      5 Int=      0 D2E=      0 Chk=      1 Scr=      1
 Normal termination of Gaussian 09 at Thu Sep 28 16:37:44 2023.
 (Enter /home/minenky/programs//g09/l1.exe)
 Link1:  Proceeding to internal job step number  2.
 ---------------------------------------------------------------------
 #P Geom=AllCheck Guess=TCheck SCRF=Check GenChk RwB97XD/def2TZVP Freq
 ---------------------------------------------------------------------
 1/7=10,10=4,29=7,30=1,38=1,40=1/1,3;
 2/12=2,40=1/2;
 3/5=44,7=101,8=11,11=2,14=-4,16=1,24=100,25=1,30=1,70=2,71=2,74=-58,75=-5,116=1,140=1/1,2,3;
 4/5=101/1;
 5/5=2,7=380,98=1/2;
 8/6=4,10=90,11=11/1;
 11/6=1,8=1,9=11,15=111,16=1/1,2,10;
 10/6=1/2;
 6/7=2,8=2,9=2,10=2,18=1,28=1/1;
 7/8=1,10=1,25=1/1,2,3,16;
 1/7=10,10=4,30=1/3;
 99//99;
 Leave Link    1 at Thu Sep 28 16:37:44 2023, MaxMem=  6291456000 cpu:         0.2
 (Enter /home/minenky/programs//g09/l101.exe)
 Structure from the checkpoint file:  "m1_00_74-82-80_CH4_wB97XD.chk"
 ---------------------------------------
 The PBEPBE optimization and frequencies
 ---------------------------------------
 Charge =  0 Multiplicity = 1
 Redundant internal coordinates found in file.
 C,0,0.,0.,0.
 H,0,0.6286948865,0.6286948865,0.6286948865
 H,0,-0.6286948865,-0.6286948865,0.6286948865
 H,0,-0.6286948865,0.6286948865,-0.6286948865
 H,0,0.6286948865,-0.6286948865,-0.6286948865
 Recover connectivity data from disk.
 NAtoms=      5 NQM=        5 NQMF=       0 NMMI=      0 NMMIF=      0
                NMic=       0 NMicF=      0.
                    Isotopes and Nuclear Properties:
 (Nuclear quadrupole moments (NQMom) in fm**2, nuclear magnetic moments (NMagM)
  in nuclear magnetons)

  Atom         1           2           3           4           5
 IAtWgt=          12           1           1           1           1
 AtmWgt=  12.0000000   1.0078250   1.0078250   1.0078250   1.0078250
 NucSpn=           0           1           1           1           1
 AtZEff=  -3.6000000  -1.0000000  -1.0000000  -1.0000000  -1.0000000
 NQMom=    0.0000000   0.0000000   0.0000000   0.0000000   0.0000000
 NMagM=    0.0000000   2.7928460   2.7928460   2.7928460   2.7928460
 AtZNuc=   6.0000000   1.0000000   1.0000000   1.0000000   1.0000000
 Leave Link  101 at Thu Sep 28 16:37:44 2023, MaxMem=  6291456000 cpu:         4.4
 (Enter /home/minenky/programs//g09/l103.exe)

 GradGradGradGradGradGradGradGradGradGradGradGradGradGradGradGradGradGrad
 Berny optimization.
 Initialization pass.
                           ----------------------------
                           !    Initial Parameters    !
                           ! (Angstroms and Degrees)  !
 --------------------------                            --------------------------
 ! Name  Definition              Value          Derivative Info.                !
 --------------------------------------------------------------------------------
 ! R1    R(1,2)                  1.0889         calculate D2E/DX2 analytically  !
 ! R2    R(1,3)                  1.0889         calculate D2E/DX2 analytically  !
 ! R3    R(1,4)                  1.0889         calculate D2E/DX2 analytically  !
 ! R4    R(1,5)                  1.0889         calculate D2E/DX2 analytically  !
 ! A1    A(2,1,3)              109.4712         calculate D2E/DX2 analytically  !
 ! A2    A(2,1,4)              109.4712         calculate D2E/DX2 analytically  !
 ! A3    A(2,1,5)              109.4712         calculate D2E/DX2 analytically  !
 ! A4    A(3,1,4)              109.4712         calculate D2E/DX2 analytically  !
 ! A5    A(3,1,5)              109.4712         calculate D2E/DX2 analytically  !
 ! A6    A(4,1,5)              109.4712         calculate D2E/DX2 analytically  !
 ! D1    D(2,1,4,3)           -120.0            calculate D2E/DX2 analytically  !
 ! D2    D(2,1,5,3)            120.0            calculate D2E/DX2 analytically  !
 ! D3    D(2,1,5,4)           -120.0            calculate D2E/DX2 analytically  !
 ! D4    D(3,1,5,4)            120.0            calculate D2E/DX2 analytically  !
 --------------------------------------------------------------------------------
 Trust Radius=3.00D-01 FncErr=1.00D-07 GrdErr=1.00D-07
 Number of steps in this run=      2 maximum allowed number of steps=      2.
 GradGradGradGradGradGradGradGradGradGradGradGradGradGradGradGradGradGrad

 Leave Link  103 at Thu Sep 28 16:37:44 2023, MaxMem=  6291456000 cpu:         0.1
 (Enter /home/minenky/programs//g09/l202.exe)
                          Input orientation:                          
 ---------------------------------------------------------------------
 Center     Atomic      Atomic             Coordinates (Angstroms)
 Number     Number       Type             X           Y           Z
 ---------------------------------------------------------------------
      1          6           0        0.000000    0.000000    0.000000
      2          1           0        0.628695    0.628695    0.628695
      3          1           0       -0.628695   -0.628695    0.628695
      4          1           0       -0.628695    0.628695   -0.628695
      5          1           0        0.628695   -0.628695   -0.628695
 ---------------------------------------------------------------------
                    Distance matrix (angstroms):
                    1          2          3          4          5
     1  C    0.000000
     2  H    1.088931   0.000000
     3  H    1.088931   1.778218   0.000000
     4  H    1.088931   1.778218   1.778218   0.000000
     5  H    1.088931   1.778218   1.778218   1.778218   0.000000
 Stoichiometry    CH4
 Framework group  TD[O(C),4C3(H)]
 Deg. of freedom     1
 Full point group                 TD      NOp  24
 RotChk:  IX=0 Diff= 7.32D-16
 Largest Abelian subgroup         D2      NOp   4
 Largest concise Abelian subgroup D2      NOp   4
                         Standard orientation:                         
 ---------------------------------------------------------------------
 Center     Atomic      Atomic             Coordinates (Angstroms)
 Number     Number       Type             X           Y           Z
 ---------------------------------------------------------------------
      1          6           0        0.000000    0.000000    0.000000
      2          1           0        0.628695    0.628695    0.628695
      3          1           0       -0.628695   -0.628695    0.628695
      4          1           0       -0.628695    0.628695   -0.628695
      5          1           0        0.628695   -0.628695   -0.628695
 ---------------------------------------------------------------------
 Rotational constants (GHZ):    158.5850377    158.5850377    158.5850377
 Leave Link  202 at Thu Sep 28 16:37:44 2023, MaxMem=  6291456000 cpu:         0.0
 (Enter /home/minenky/programs//g09/l301.exe)
 Standard basis: def2TZVP (5D, 7F)
 ======================================================================================================
                                       Pseudopotential Parameters
 ======================================================================================================
  Center     Atomic      Valence      Angular      Power
  Number     Number     Electrons     Momentum     of R      Exponent        Coefficient   SO-Coeffient
 ======================================================================================================
    1          6
                                   No pseudopotential on this center.
    2          1
                                   No pseudopotential on this center.
    3          1
                                   No pseudopotential on this center.
    4          1
                                   No pseudopotential on this center.
    5          1
                                   No pseudopotential on this center.
 ======================================================================================================
 Ernie: Thresh=  0.10000D-02 Tol=  0.10000D-05 Strict=F.
 AO basis set (Overlap normalization):
 Atom C1       Shell     1 S   6     bf    1 -     1          0.000000000000          0.000000000000          0.000000000000
      0.1357534968D+05  0.6064550360D-03
      0.2035233368D+04  0.4697908888D-02
      0.4632256236D+03  0.2433247765D-01
      0.1312001960D+03  0.9739996831D-01
      0.4285301589D+02  0.3019558425D+00
      0.1558418577D+02  0.6623360914D+00
 Atom C1       Shell     2 S   2     bf    2 -     2          0.000000000000          0.000000000000          0.000000000000
      0.6206713851D+01  0.6559530854D+00
      0.2576489653D+01  0.3758563329D+00
 Atom C1       Shell     3 S   1     bf    3 -     3          0.000000000000          0.000000000000          0.000000000000
      0.5769633942D+00  0.1000000000D+01
 Atom C1       Shell     4 S   1     bf    4 -     4          0.000000000000          0.000000000000          0.000000000000
      0.2297283136D+00  0.1000000000D+01
 Atom C1       Shell     5 S   1     bf    5 -     5          0.000000000000          0.000000000000          0.000000000000
      0.9516444003D-01  0.1000000000D+01
 Atom C1       Shell     6 P   4     bf    6 -     8          0.000000000000          0.000000000000          0.000000000000
      0.3469723224D+02  0.1132722000D-01
      0.7958262283D+01  0.7616965920D-01
      0.2378082688D+01  0.3019225220D+00
      0.8143320818D+00  0.7278502735D+00
 Atom C1       Shell     7 P   1     bf    9 -    11          0.000000000000          0.000000000000          0.000000000000
      0.2888754725D+00  0.1000000000D+01
 Atom C1       Shell     8 P   1     bf   12 -    14          0.000000000000          0.000000000000          0.000000000000
      0.1005682367D+00  0.1000000000D+01
 Atom C1       Shell     9 D   1     bf   15 -    19          0.000000000000          0.000000000000          0.000000000000
      0.1097000000D+01  0.1000000000D+01
 Atom C1       Shell    10 D   1     bf   20 -    24          0.000000000000          0.000000000000          0.000000000000
      0.3180000000D+00  0.1000000000D+01
 Atom C1       Shell    11 F   1     bf   25 -    31          0.000000000000          0.000000000000          0.000000000000
      0.7610000000D+00  0.1000000000D+01
 Atom H2       Shell    12 S   3     bf   32 -    32          1.188061156590          1.188061156590          1.188061156590
      0.3406134100D+02  0.2543930721D-01
      0.5123574600D+01  0.1900859489D+00
      0.1164662600D+01  0.8524411301D+00
 Atom H2       Shell    13 S   1     bf   33 -    33          1.188061156590          1.188061156590          1.188061156590
      0.3272304100D+00  0.1000000000D+01
 Atom H2       Shell    14 S   1     bf   34 -    34          1.188061156590          1.188061156590          1.188061156590
      0.1030724100D+00  0.1000000000D+01
 Atom H2       Shell    15 P   1     bf   35 -    37          1.188061156590          1.188061156590          1.188061156590
      0.8000000000D+00  0.1000000000D+01
 Atom H3       Shell    16 S   3     bf   38 -    38         -1.188061156590         -1.188061156590          1.188061156590
      0.3406134100D+02  0.2543930721D-01
      0.5123574600D+01  0.1900859489D+00
      0.1164662600D+01  0.8524411301D+00
 Atom H3       Shell    17 S   1     bf   39 -    39         -1.188061156590         -1.188061156590          1.188061156590
      0.3272304100D+00  0.1000000000D+01
 Atom H3       Shell    18 S   1     bf   40 -    40         -1.188061156590         -1.188061156590          1.188061156590
      0.1030724100D+00  0.1000000000D+01
 Atom H3       Shell    19 P   1     bf   41 -    43         -1.188061156590         -1.188061156590          1.188061156590
      0.8000000000D+00  0.1000000000D+01
 Atom H4       Shell    20 S   3     bf   44 -    44         -1.188061156590          1.188061156590         -1.188061156590
      0.3406134100D+02  0.2543930721D-01
      0.5123574600D+01  0.1900859489D+00
      0.1164662600D+01  0.8524411301D+00
 Atom H4       Shell    21 S   1     bf   45 -    45         -1.188061156590          1.188061156590         -1.188061156590
      0.3272304100D+00  0.1000000000D+01
 Atom H4       Shell    22 S   1     bf   46 -    46         -1.188061156590          1.188061156590         -1.188061156590
      0.1030724100D+00  0.1000000000D+01
 Atom H4       Shell    23 P   1     bf   47 -    49         -1.188061156590          1.188061156590         -1.188061156590
      0.8000000000D+00  0.1000000000D+01
 Atom H5       Shell    24 S   3     bf   50 -    50          1.188061156590         -1.188061156590         -1.188061156590
      0.3406134100D+02  0.2543930721D-01
      0.5123574600D+01  0.1900859489D+00
      0.1164662600D+01  0.8524411301D+00
 Atom H5       Shell    25 S   1     bf   51 -    51          1.188061156590         -1.188061156590         -1.188061156590
      0.3272304100D+00  0.1000000000D+01
[...]
           Y            1.00000   0.00000   0.00000
           Z            0.00000   1.00000   0.00000
 This molecule is a spherical top.
 Rotational symmetry number 12.
 Rotational temperatures (Kelvin)      7.61087     7.61087     7.61087
 Rotational constants (GHZ):         158.58504   158.58504   158.58504
 Zero-point vibrational energy     117778.9 (Joules/Mol)
                                   28.14984 (Kcal/Mol)
 Vibrational temperatures:   1931.79  1931.79  1931.79  2245.88  2245.88
          (Kelvin)           4381.58  4554.12  4554.12  4554.12
 
 Zero-point correction=                           0.044860 (Hartree/Particle)
 Thermal correction to Energy=                    0.047728
 Thermal correction to Enthalpy=                  0.048672
 Thermal correction to Gibbs Free Energy=         0.027547
 Sum of electronic and zero-point Energies=            -40.474419
 Sum of electronic and thermal Energies=               -40.471551
 Sum of electronic and thermal Enthalpies=             -40.470607
 Sum of electronic and thermal Free Energies=          -40.491732
 
                     E (Thermal)             CV                S
                      KCal/Mol        Cal/Mol-Kelvin    Cal/Mol-Kelvin
 Total                   29.950              6.468             44.462
 Electronic               0.000              0.000              0.000
 Translational            0.889              2.981             34.261
 Rotational               0.889              2.981             10.114
 Vibrational             28.172              0.507              0.087
                       Q            Log10(Q)             Ln(Q)
 Total Bot       0.213460D-12        -12.670683        -29.175325
 Total V=0       0.918903D+08          7.963270         18.336106
 Vib (Bot)       0.233622D-20        -20.631485        -47.505751
 Vib (V=0)       0.100570D+01          0.002467          0.005680
 Electronic      0.100000D+01          0.000000          0.000000
 Translational   0.252295D+07          6.401908         14.740939
 Rotational      0.362155D+02          1.558894          3.589487
 
                                               The PBEPBE optimization and freque
 ncies
                                                             IR Spectrum
 
      3   3                                                           1        1                                                     
      1   0                                                           5        3                                                     
      6   4                                                           6        4                                                     
      5   5                                                           1        3                                                     
 
      X                                                                        X                                                     
      X                                                                        X                                                     
      X                                                                        X                                                     
      X                                                                        X                                                     
      X                                                                        X                                                     
      X                                                                        X                                                     
      X                                                                        X                                                     
      X                                                                        X                                                     
      X                                                                        X                                                     
      X                                                                        X                                                     
      X                                                                        X                                                     
      X                                                                        X                                                     
      X                                                                        X                                                     
      X                                                                        X                                                     
      X                                                                        X                                                     
      X                                                                                                                              
      X                                                                                                                              
      X                                                                                                                              
      X                                                                                                                              
      X                                                                                                                              
 
 ***** Axes restored to original set *****
 -------------------------------------------------------------------
 Center     Atomic                   Forces (Hartrees/Bohr)
 Number     Number              X              Y              Z
 -------------------------------------------------------------------
      1        6           0.000000000    0.000000000    0.000000000
      2        1           0.000003035    0.000003035    0.000003035
      3        1          -0.000003035   -0.000003035    0.000003035
      4        1          -0.000003035    0.000003035   -0.000003035
      5        1           0.000003035   -0.000003035   -0.000003035
 -------------------------------------------------------------------
 Cartesian Forces:  Max     0.000003035 RMS     0.000002715
 Force constants in Cartesian coordinates: 
                1             2             3             4             5 
      1  0.552674D+00
      2  0.000000D+00  0.552674D+00
      3  0.000000D+00  0.000000D+00  0.552674D+00
      4 -0.138168D+00 -0.925386D-01 -0.925386D-01  0.146126D+00
      5 -0.925386D-01 -0.138168D+00 -0.925386D-01  0.101264D+00  0.146126D+00
      6 -0.925386D-01 -0.925386D-01 -0.138168D+00  0.101264D+00  0.101264D+00
      7 -0.138168D+00 -0.925386D-01  0.925386D-01 -0.104227D-01 -0.872587D-02
      8 -0.925386D-01 -0.138168D+00  0.925386D-01 -0.872587D-02 -0.104227D-01
      9  0.925386D-01  0.925386D-01 -0.138168D+00 -0.115314D-01 -0.115314D-01
     10 -0.138168D+00  0.925386D-01 -0.925386D-01 -0.104227D-01  0.115314D-01
     11  0.925386D-01 -0.138168D+00  0.925386D-01 -0.115314D-01  0.128881D-01
     12 -0.925386D-01  0.925386D-01 -0.138168D+00 -0.872587D-02  0.115314D-01
     13 -0.138168D+00  0.925386D-01  0.925386D-01  0.128881D-01 -0.115314D-01
     14  0.925386D-01 -0.138168D+00 -0.925386D-01  0.115314D-01 -0.104227D-01
     15  0.925386D-01 -0.925386D-01 -0.138168D+00  0.115314D-01 -0.872587D-02
                6             7             8             9            10 
      6  0.146126D+00
      7  0.115314D-01  0.146126D+00
      8  0.115314D-01  0.101264D+00  0.146126D+00
      9  0.128881D-01 -0.101264D+00 -0.101264D+00  0.146126D+00
     10 -0.872587D-02  0.128881D-01 -0.115314D-01  0.115314D-01  0.146126D+00
     11 -0.115314D-01  0.115314D-01 -0.104227D-01  0.872587D-02 -0.101264D+00
     12 -0.104227D-01 -0.115314D-01  0.872587D-02 -0.104227D-01  0.101264D+00
     13 -0.115314D-01 -0.104227D-01  0.115314D-01  0.872587D-02 -0.104227D-01
     14 -0.872587D-02 -0.115314D-01  0.128881D-01  0.115314D-01  0.872587D-02
     15 -0.104227D-01  0.872587D-02 -0.115314D-01 -0.104227D-01 -0.115314D-01
               11            12            13            14            15 
     11  0.146126D+00
     12 -0.101264D+00  0.146126D+00
     13  0.872587D-02  0.115314D-01  0.146126D+00
     14 -0.104227D-01 -0.115314D-01 -0.101264D+00  0.146126D+00
     15  0.115314D-01  0.128881D-01 -0.101264D+00  0.101264D+00  0.146126D+00
 FormGI is forming the generalized inverse of G from B-inverse, IUseBI=4.
 Force constants in internal coordinates: 
                1             2             3             4             5 
      1  0.348655D+00
      2  0.168660D-02  0.348655D+00
      3  0.168660D-02  0.168660D-02  0.348655D+00
      4  0.168660D-02  0.168660D-02  0.168660D-02  0.348655D+00
      5  0.190291D-02  0.190291D-02 -0.119485D-02 -0.261097D-02  0.194483D-01
      6  0.298232D-02 -0.769630D-03  0.331903D-02 -0.553171D-02 -0.863015D-02
      7  0.582802D-02 -0.467743D-02 -0.517768D-02  0.402709D-02 -0.128893D-01
      8 -0.769630D-03  0.298231D-02  0.331903D-02 -0.553171D-02 -0.863015D-02
      9 -0.467742D-02  0.582802D-02 -0.517768D-02  0.402709D-02 -0.128893D-01
     10 -0.526619D-02 -0.526619D-02  0.491216D-02  0.562022D-02  0.235907D-01
     11 -0.368557D-02 -0.368557D-02 -0.260158D-02  0.997271D-02 -0.132495D-01
     12  0.303517D-02  0.303517D-02 -0.780473D-02  0.173438D-02  0.803306D-02
     13 -0.399662D-02  0.703180D-02 -0.390236D-02  0.867192D-03  0.401653D-02
     14 -0.703180D-02  0.399662D-02  0.390236D-02 -0.867192D-03 -0.401653D-02
                6             7             8             9            10 
      6  0.366656D-01
      7 -0.222822D-01  0.716313D-01
      8 -0.204236D-02  0.244652D-01  0.366656D-01
      9  0.244652D-01 -0.347331D-01 -0.222822D-01  0.716313D-01
     10 -0.281761D-01 -0.261918D-01 -0.281761D-01 -0.261918D-01  0.851451D-01
     11 -0.106326D-01  0.144493D-01 -0.106326D-01  0.144493D-01  0.561592D-02
     12 -0.923294D-02  0.680928D-02 -0.923294D-02  0.680928D-02 -0.318574D-02
     13 -0.140067D-01 -0.535817D-03  0.477379D-02  0.734510D-02 -0.159287D-02
     14 -0.477379D-02 -0.734510D-02  0.140067D-01  0.535817D-03  0.159287D-02
               11            12            13            14 
     11  0.292494D-01
     12  0.146955D-02  0.181781D-01
     13  0.734774D-03  0.908904D-02  0.184582D-01
     14 -0.734774D-03 -0.908904D-02  0.936918D-02  0.184582D-01
 Leave Link  716 at Thu Sep 28 16:37:49 2023, MaxMem=  6291456000 cpu:         0.3
 (Enter /home/minenky/programs//g09/l103.exe)

 GradGradGradGradGradGradGradGradGradGradGradGradGradGradGradGradGradGrad
 Berny optimization.
 Red2BG is reusing G-inverse.
 Internal  Forces:  Max     0.000005257 RMS     0.000002810
 Search for a local minimum.
 Step number   1 out of a maximum of    2
 All quantities printed in internal units (Hartrees-Bohrs-Radians)
 Second derivative matrix not updated -- analytic derivatives used.
 The second derivative matrix:
                          R1        R2        R3        R4        A1
           R1           0.34865
           R2           0.00169   0.34865
           R3           0.00169   0.00169   0.34865
           R4           0.00169   0.00169   0.00169   0.34865
           A1           0.00190   0.00190  -0.00119  -0.00261   0.01945
           A2           0.00298  -0.00077   0.00332  -0.00553  -0.00863
           A3           0.00583  -0.00468  -0.00518   0.00403  -0.01289
           A4          -0.00077   0.00298   0.00332  -0.00553  -0.00863
           A5          -0.00468   0.00583  -0.00518   0.00403  -0.01289
           A6          -0.00527  -0.00527   0.00491   0.00562   0.02359
           D1          -0.00369  -0.00369  -0.00260   0.00997  -0.01325
           D2           0.00304   0.00304  -0.00780   0.00173   0.00803
           D3          -0.00400   0.00703  -0.00390   0.00087   0.00402
           D4          -0.00703   0.00400   0.00390  -0.00087  -0.00402
                          A2        A3        A4        A5        A6
           A2           0.03667
           A3          -0.02228   0.07163
           A4          -0.00204   0.02447   0.03667
           A5           0.02447  -0.03473  -0.02228   0.07163
           A6          -0.02818  -0.02619  -0.02818  -0.02619   0.08515
           D1          -0.01063   0.01445  -0.01063   0.01445   0.00562
           D2          -0.00923   0.00681  -0.00923   0.00681  -0.00319
           D3          -0.01401  -0.00054   0.00477   0.00735  -0.00159
           D4          -0.00477  -0.00735   0.01401   0.00054   0.00159
                          D1        D2        D3        D4
           D1           0.02925
           D2           0.00147   0.01818
           D3           0.00073   0.00909   0.01846
           D4          -0.00073  -0.00909   0.00937   0.01846
 ITU=  0
     Eigenvalues ---    0.03729   0.04201   0.06383   0.12950   0.13001
     Eigenvalues ---    0.34783   0.34785   0.34811   0.35371
 Angle between quadratic step and forces=   0.00 degrees.
 Linear search not attempted -- first point.
 Iteration  1 RMS(Cart)=  0.00000794 RMS(Int)=  0.00000000
 Iteration  2 RMS(Cart)=  0.00000000 RMS(Int)=  0.00000000
 ITry= 1 IFail=0 DXMaxC= 8.58D-06 DCOld= 1.00D+10 DXMaxT= 3.00D-01 DXLimC= 3.00D+00 Rises=F
 ClnCor:  largest displacement from symmetrization is 4.47D-13 for atom     5.
 Variable       Old X    -DE/DX   Delta X   Delta X   Delta X     New X
                                 (Linear)    (Quad)   (Total)
    R1        2.05778   0.00001   0.00000   0.00001   0.00001   2.05780
    R2        2.05778   0.00001   0.00000   0.00001   0.00001   2.05780
    R3        2.05778   0.00001   0.00000   0.00001   0.00001   2.05780
    R4        2.05778   0.00001   0.00000   0.00001   0.00001   2.05780
    A1        1.91063   0.00000   0.00000   0.00000   0.00000   1.91063
    A2        1.91063   0.00000   0.00000   0.00000   0.00000   1.91063
    A3        1.91063   0.00000   0.00000   0.00000   0.00000   1.91063
    A4        1.91063   0.00000   0.00000   0.00000   0.00000   1.91063
    A5        1.91063   0.00000   0.00000   0.00000   0.00000   1.91063
    A6        1.91063   0.00000   0.00000   0.00000   0.00000   1.91063
    D1       -2.09440   0.00000   0.00000   0.00000   0.00000  -2.09440
    D2        2.09440   0.00000   0.00000   0.00000   0.00000   2.09440
    D3       -2.09440   0.00000   0.00000   0.00000   0.00000  -2.09440
    D4        2.09440   0.00000   0.00000   0.00000   0.00000   2.09440
         Item               Value     Threshold  Converged?
 Maximum Force            0.000005     0.000015     YES
 RMS     Force            0.000003     0.000010     YES
 Maximum Displacement     0.000009     0.000060     YES
 RMS     Displacement     0.000008     0.000040     YES
 Predicted change in Energy=-1.562716D-10
 Optimization completed.
    -- Stationary point found.
                           ----------------------------
                           !   Optimized Parameters   !
                           ! (Angstroms and Degrees)  !
 --------------------------                            --------------------------
 ! Name  Definition              Value          Derivative Info.                !
 --------------------------------------------------------------------------------
 ! R1    R(1,2)                  1.0889         -DE/DX =    0.0                 !
 ! R2    R(1,3)                  1.0889         -DE/DX =    0.0                 !
 ! R3    R(1,4)                  1.0889         -DE/DX =    0.0                 !
 ! R4    R(1,5)                  1.0889         -DE/DX =    0.0                 !
 ! A1    A(2,1,3)              109.4712         -DE/DX =    0.0                 !
 ! A2    A(2,1,4)              109.4712         -DE/DX =    0.0                 !
 ! A3    A(2,1,5)              109.4712         -DE/DX =    0.0                 !
 ! A4    A(3,1,4)              109.4712         -DE/DX =    0.0                 !
 ! A5    A(3,1,5)              109.4712         -DE/DX =    0.0                 !
 ! A6    A(4,1,5)              109.4712         -DE/DX =    0.0                 !
 ! D1    D(2,1,4,3)           -120.0            -DE/DX =    0.0                 !
 ! D2    D(2,1,5,3)            120.0            -DE/DX =    0.0                 !
 ! D3    D(2,1,5,4)           -120.0            -DE/DX =    0.0                 !
 ! D4    D(3,1,5,4)            120.0            -DE/DX =    0.0                 !
 --------------------------------------------------------------------------------
 GradGradGradGradGradGradGradGradGradGradGradGradGradGradGradGradGradGrad

 Leave Link  103 at Thu Sep 28 16:37:49 2023, MaxMem=  6291456000 cpu:         0.0
 (Enter /home/minenky/programs//g09/l9999.exe)
 1\1\GINC-PC1\Freq\RwB97XD\def2TZVP\C1H4\MINENKY\28-Sep-2023\0\\#P Geom
 =AllCheck Guess=TCheck SCRF=Check GenChk RwB97XD/def2TZVP Freq\\The PB
 EPBE optimization and frequencies\\0,1\C,0.,0.,0.\H,0.6286948865,0.628
 6948865,0.6286948865\H,-0.6286948865,-0.6286948865,0.6286948865\H,-0.6
 286948865,0.6286948865,-0.6286948865\H,0.6286948865,-0.6286948865,-0.6
 286948865\\Version=AM64L-G09RevD.01\State=1-A1\HF=-40.5192789\RMSD=1.0
 83e-09\RMSF=2.715e-06\ZeroPoint=0.0448596\Thermal=0.047728\Dipole=0.,0
 .,0.\DipoleDeriv=-0.0195559,0.,0.,0.,-0.0195559,0.,0.,0.,-0.0195559,0.
 004889,-0.0697603,-0.0697603,-0.0697603,0.004889,-0.0697603,-0.0697603
 ,-0.0697603,0.004889,0.004889,-0.0697603,0.0697603,-0.0697603,0.004889
 ,0.0697603,0.0697603,0.0697603,0.004889,0.004889,0.0697603,-0.0697603,
 0.0697603,0.004889,0.0697603,-0.0697603,0.0697603,0.004889,0.004889,0.
 0697603,0.0697603,0.0697603,0.004889,-0.0697603,0.0697603,-0.0697603,0
 .004889\Polar=15.0197485,0.,15.0197485,0.,0.,15.0197485\PG=TD [O(C1),4
 C3(H1)]\NImag=0\\0.55267397,0.,0.55267397,0.,0.,0.55267397,-0.13816849
 ,-0.09253857,-0.09253857,0.14612581,-0.09253857,-0.13816849,-0.0925385
 7,0.10126444,0.14612581,-0.09253857,-0.09253857,-0.13816849,0.10126444
 ,0.10126444,0.14612581,-0.13816849,-0.09253857,0.09253857,-0.01042272,
 -0.00872587,0.01153138,0.14612581,-0.09253857,-0.13816849,0.09253857,-
 0.00872587,-0.01042272,0.01153138,0.10126444,0.14612581,0.09253857,0.0
 9253857,-0.13816849,-0.01153138,-0.01153138,0.01288812,-0.10126444,-0.
 10126444,0.14612581,-0.13816849,0.09253857,-0.09253857,-0.01042272,0.0
 1153138,-0.00872587,0.01288812,-0.01153138,0.01153138,0.14612581,0.092
 53857,-0.13816849,0.09253857,-0.01153138,0.01288812,-0.01153138,0.0115
 3138,-0.01042272,0.00872587,-0.10126444,0.14612581,-0.09253857,0.09253
 857,-0.13816849,-0.00872587,0.01153138,-0.01042272,-0.01153138,0.00872
 587,-0.01042272,0.10126444,-0.10126444,0.14612581,-0.13816849,0.092538
 57,0.09253857,0.01288812,-0.01153138,-0.01153138,-0.01042272,0.0115313
 8,0.00872587,-0.01042272,0.00872587,0.01153138,0.14612581,0.09253857,-
 0.13816849,-0.09253857,0.01153138,-0.01042272,-0.00872587,-0.01153138,
 0.01288812,0.01153138,0.00872587,-0.01042272,-0.01153138,-0.10126444,0
 .14612581,0.09253857,-0.09253857,-0.13816849,0.01153138,-0.00872587,-0
 .01042272,0.00872587,-0.01153138,-0.01042272,-0.01153138,0.01153138,0.
 01288812,-0.10126444,0.10126444,0.14612581\\0.,0.,0.,-0.00000304,-0.00
 000304,-0.00000304,0.00000304,0.00000304,-0.00000304,0.00000304,-0.000
 00304,0.00000304,-0.00000304,0.00000304,0.00000304\\\@


 BUT 'GLORY' DOESN'T MEAN 'A NICE KNOCK DOWN ARGUMENT', ALICE OBJECTED.
 WHEN I USE A WORD, HUMPTY DUMPTY SAID, IN A RATHER SCORNFUL TONE,
 IT MEANS JUST WHAT I CHOOSE IT TO MEAN....
 NEITHER MORE NOR LESS....
 THE QUESTION IS, SAID ALICE,
 WHETHER YOU CAN MAKE WORDS MEAN SO MANY DIFFERENT THINGS...
 THE QUESTION IS, SAID HUMPTY DUMPTY,
 WHICH IS TO BE MASTER....
 THAT IS ALL.....

 ALICE THROUGH THE LOOKING GLASS
 Job cpu time:       0 days  0 hours  1 minutes 21.1 seconds.
 File lengths (MBytes):  RWF=      5 Int=      0 D2E=      0 Chk=      1 Scr=      1
 Normal termination of Gaussian 09 at Thu Sep 28 16:37:49 2023.
