 Entering Gaussian System, Link 0=g09
 Initial command:
 /home/minenky/programs//g09/l1.exe "/local/scratch/minenky/m1_00_74-99-70_C3H4_wB97XD/Gau-48738.inp" -scrdir="/local/scratch/minenky/m1_00_74-99-70_C3H4_wB97XD/"
 Entering Link 1 = /home/minenky/programs//g09/l1.exe PID=     48773.
  
 Copyright (c) 1988,1990,1992,1993,1995,1998,2003,2009,2013,
            Gaussian, Inc.  All Rights Reserved.
  
 This is part of the Gaussian(R) 09 program.  It is based on
 the Gaussian(R) 03 system (copyright 2003, Gaussian, Inc.),
 the Gaussian(R) 98 system (copyright 1998, Gaussian, Inc.),
 the Gaussian(R) 94 system (copyright 1995, Gaussian, Inc.),
 the Gaussian 92(TM) system (copyright 1992, Gaussian, Inc.),
 the Gaussian 90(TM) system (copyright 1990, Gaussian, Inc.),
 the Gaussian 88(TM) system (copyright 1988, Gaussian, Inc.),
 the Gaussian 86(TM) system (copyright 1986, Carnegie Mellon
 University), and the Gaussian 82(TM) system (copyright 1983,
 Carnegie Mellon University). Gaussian is a federally registered
 trademark of Gaussian, Inc.
  
 This software contains proprietary and confidential information,
 including trade secrets, belonging to Gaussian, Inc.
  
 This software is provided under written license and may be
 used, copied, transmitted, or stored only in accord with that
 written license.
  
 The following legend is applicable only to US Government
 contracts under FAR:
  
                    RESTRICTED RIGHTS LEGEND
  
 Use, reproduction and disclosure by the US Government is
 subject to restrictions as set forth in subparagraphs (a)
 and (c) of the Commercial Computer Software - Restricted
 Rights clause in FAR 52.227-19.
  
 Gaussian, Inc.
 340 Quinnipiac St., Bldg. 40, Wallingford CT 06492
  
  
 ---------------------------------------------------------------
 Warning -- This program may not be used in any manner that
 competes with the business of Gaussian, Inc. or will provide
 assistance to any competitor of Gaussian, Inc.  The licensee
 of this program is prohibited from giving any competitor of
 Gaussian, Inc. access to this program.  By using this program,
 the user acknowledges that Gaussian, Inc. is engaged in the
 business of creating and licensing software in the field of
 computational chemistry and represents and warrants to the
 licensee that it is not a competitor of Gaussian, Inc. and that
 it will not use this program in any manner prohibited above.
 ---------------------------------------------------------------
  

 Cite this work as:
 Gaussian 09, Revision D.01,
 M. J. Frisch, G. W. Trucks, H. B. Schlegel, G. E. Scuseria, 
 M. A. Robb, J. R. Cheeseman, G. Scalmani, V. Barone, B. Mennucci, 
 G. A. Petersson, H. Nakatsuji, M. Caricato, X. Li, H. P. Hratchian, 
 A. F. Izmaylov, J. Bloino, G. Zheng, J. L. Sonnenberg, M. Hada, 
 M. Ehara, K. Toyota, R. Fukuda, J. Hasegawa, M. Ishida, T. Nakajima, 
 Y. Honda, O. Kitao, H. Nakai, T. Vreven, J. A. Montgomery, Jr., 
 J. E. Peralta, F. Ogliaro, M. Bearpark, J. J. Heyd, E. Brothers, 
 K. N. Kudin, V. N. Staroverov, T. Keith, R. Kobayashi, J. Normand, 
 K. Raghavachari, A. Rendell, J. C. Burant, S. S. Iyengar, J. Tomasi, 
 M. Cossi, N. Rega, J. M. Millam, M. Klene, J. E. Knox, J. B. Cross, 
 V. Bakken, C. Adamo, J. Jaramillo, R. Gomperts, R. E. Stratmann, 
 O. Yazyev, A. J. Austin, R. Cammi, C. Pomelli, J. W. Ochterski, 
 R. L. Martin, K. Morokuma, V. G. Zakrzewski, G. A. Voth, 
 P. Salvador, J. J. Dannenberg, S. Dapprich, A. D. Daniels, 
 O. Farkas, J. B. Foresman, J. V. Ortiz, J. Cioslowski, 
 and D. J. Fox, Gaussian, Inc., Wallingford CT, 2013.
 
 ******************************************
 Gaussian 09:  AM64L-G09RevD.01 24-Apr-2013
                 9-Jul-2021 
 ******************************************
 %Mem=32000MB
 %NProcShared=16
 Will use up to   16 processors via shared memory.
 %Chk=m1_00_74-99-70_C3H4_wB97XD
 ----------------------------------------------------------------------
 #P wB97XD/def2tzvp opt=(tight) freq integral(Grid=ultrafine) # SCF(Max
 Cycle=380) 5d 7f GFPrint
 ----------------------------------------------------------------------
 1/7=10,14=-1,18=20,19=15,26=4,38=1/1,3;
 2/9=110,12=2,17=6,18=5,40=1/2;
 3/5=44,7=101,8=11,11=2,16=1,24=100,25=1,30=1,71=1,74=-58,75=-5/1,2,3;
 4//1;
 5/5=2,7=380,38=5/2;
 6/7=2,8=2,9=2,10=2,28=1/1;
 7//1,2,3,16;
 1/7=10,14=-1,18=20,19=15,26=4/3(2);
 2/9=110/2;
 99//99;
 2/9=110/2;
 3/5=44,7=101,8=11,11=2,16=1,25=1,30=1,71=1,74=-58,75=-5/1,2,3;
 4/5=5,16=3,69=1/1;
 5/5=2,7=380,38=5/2;
 7//1,2,3,16;
 1/7=10,14=-1,18=20,19=15,26=4/3(-5);
 2/9=110/2;
 6/7=2,8=2,9=2,10=2,19=2,28=1/1;
 99/9=1/99;
 Leave Link    1 at Fri Jul  9 19:19:35 2021, MaxMem=  4194304000 cpu:         1.3
 (Enter /home/minenky/programs//g09/l101.exe)
 ---------------------------------------
 The PBEPBE optimization and frequencies
 ---------------------------------------
 Symbolic Z-matrix:
 Charge =  0 Multiplicity = 1
 C                     0.        0.        0.21808 
 C                     0.        0.        1.41759 
 H                     0.        0.        2.47951 
 C                     0.        0.       -1.23602 
 H                     0.        1.0199   -1.62582 
 H                     0.88326  -0.50995  -1.62582 
 H                    -0.88326  -0.50995  -1.62582 
 
 NAtoms=      7 NQM=        7 NQMF=       0 NMMI=      0 NMMIF=      0
                NMic=       0 NMicF=      0.
                    Isotopes and Nuclear Properties:
 (Nuclear quadrupole moments (NQMom) in fm**2, nuclear magnetic moments (NMagM)
  in nuclear magnetons)

  Atom         1           2           3           4           5           6           7
 IAtWgt=          12          12           1          12           1           1           1
 AtmWgt=  12.0000000  12.0000000   1.0078250  12.0000000   1.0078250   1.0078250   1.0078250
 NucSpn=           0           0           1           0           1           1           1
 AtZEff=   0.0000000   0.0000000   0.0000000   0.0000000   0.0000000   0.0000000   0.0000000
 NQMom=    0.0000000   0.0000000   0.0000000   0.0000000   0.0000000   0.0000000   0.0000000
 NMagM=    0.0000000   0.0000000   2.7928460   0.0000000   2.7928460   2.7928460   2.7928460
 AtZNuc=   6.0000000   6.0000000   1.0000000   6.0000000   1.0000000   1.0000000   1.0000000
 Leave Link  101 at Fri Jul  9 19:19:36 2021, MaxMem=  4194304000 cpu:         1.0
 (Enter /home/minenky/programs//g09/l103.exe)

 GradGradGradGradGradGradGradGradGradGradGradGradGradGradGradGradGradGrad
 Berny optimization.
 Initialization pass.
                           ----------------------------
                           !    Initial Parameters    !
                           ! (Angstroms and Degrees)  !
 --------------------------                            --------------------------
 ! Name  Definition              Value          Derivative Info.                !
 --------------------------------------------------------------------------------
 ! R1    R(1,2)                  1.1995         estimate D2E/DX2                !
 ! R2    R(1,4)                  1.4541         estimate D2E/DX2                !
 ! R3    R(2,3)                  1.0619         estimate D2E/DX2                !
 ! R4    R(4,5)                  1.0919         estimate D2E/DX2                !
 ! R5    R(4,6)                  1.0919         estimate D2E/DX2                !
 ! R6    R(4,7)                  1.0919         estimate D2E/DX2                !
 ! A1    A(1,4,5)              110.9167         estimate D2E/DX2                !
 ! A2    A(1,4,6)              110.9167         estimate D2E/DX2                !
 ! A3    A(1,4,7)              110.9167         estimate D2E/DX2                !
 ! A4    A(5,4,6)              107.9878         estimate D2E/DX2                !
 ! A5    A(5,4,7)              107.9878         estimate D2E/DX2                !
 ! A6    A(6,4,7)              107.9878         estimate D2E/DX2                !
 ! A7    L(2,1,4,5,-1)         180.0            estimate D2E/DX2                !
 ! A8    L(1,2,3,5,-1)         180.0            estimate D2E/DX2                !
 ! A9    L(2,1,4,5,-2)         180.0            estimate D2E/DX2                !
 ! A10   L(1,2,3,5,-2)         180.0            estimate D2E/DX2                !
 ! D1    D(5,4,7,6)            116.538          estimate D2E/DX2                !
 --------------------------------------------------------------------------------
 Trust Radius=3.00D-01 FncErr=1.00D-07 GrdErr=1.00D-06
 Number of steps in this run=     27 maximum allowed number of steps=    100.
 GradGradGradGradGradGradGradGradGradGradGradGradGradGradGradGradGradGrad

 Leave Link  103 at Fri Jul  9 19:19:36 2021, MaxMem=  4194304000 cpu:         0.1
 (Enter /home/minenky/programs//g09/l202.exe)
                          Input orientation:                          
 ---------------------------------------------------------------------
 Center     Atomic      Atomic             Coordinates (Angstroms)
 Number     Number       Type             X           Y           Z
 ---------------------------------------------------------------------
      1          6           0        0.000000    0.000000    0.218081
      2          6           0        0.000000    0.000000    1.417592
      3          1           0        0.000000    0.000000    2.479508
      4          6           0        0.000000    0.000000   -1.236015
      5          1           0        0.000000    1.019902   -1.625819
      6          1           0        0.883261   -0.509951   -1.625819
      7          1           0       -0.883261   -0.509951   -1.625819
 ---------------------------------------------------------------------
                    Distance matrix (angstroms):
                    1          2          3          4          5
     1  C    0.000000
     2  C    1.199511   0.000000
     3  H    2.261427   1.061916   0.000000
     4  C    1.454096   2.653607   3.715523   0.000000
     5  H    2.107170   3.209759   4.230119   1.091855   0.000000
     6  H    2.107170   3.209759   4.230119   1.091855   1.766522
     7  H    2.107170   3.209759   4.230119   1.091855   1.766522
                    6          7
     6  H    0.000000
     7  H    1.766522   0.000000
 Stoichiometry    C3H4
 Framework group  C3V[C3(CCCH),3SGV(H)]
 Deg. of freedom     5
 Full point group                 C3V     NOp   6
 Largest Abelian subgroup         CS      NOp   2
 Largest concise Abelian subgroup CS      NOp   2
                         Standard orientation:                         
 ---------------------------------------------------------------------
 Center     Atomic      Atomic             Coordinates (Angstroms)
 Number     Number       Type             X           Y           Z
 ---------------------------------------------------------------------
      1          6           0        0.000000    0.000000    0.218081
      2          6           0        0.000000    0.000000    1.417592
      3          1           0        0.000000    0.000000    2.479508
      4          6           0        0.000000    0.000000   -1.236015
      5          1           0        0.000000    1.019902   -1.625819
      6          1           0        0.883261   -0.509951   -1.625819
      7          1           0       -0.883261   -0.509951   -1.625819
 ---------------------------------------------------------------------
 Rotational constants (GHZ):    160.6918724      8.6187140      8.6187140
 Leave Link  202 at Fri Jul  9 19:19:36 2021, MaxMem=  4194304000 cpu:         0.9
 (Enter /home/minenky/programs//g09/l301.exe)
 Standard basis: def2TZVP (5D, 7F)
 ======================================================================================================
                                       Pseudopotential Parameters
 ======================================================================================================
  Center     Atomic      Valence      Angular      Power
  Number     Number     Electrons     Momentum     of R      Exponent        Coefficient   SO-Coeffient
 ======================================================================================================
    1          6
                                   No pseudopotential on this center.
    2          6
                                   No pseudopotential on this center.
    3          1
                                   No pseudopotential on this center.
    4          6
                                   No pseudopotential on this center.
    5          1
                                   No pseudopotential on this center.
    6          1
                                   No pseudopotential on this center.
    7          1
                                   No pseudopotential on this center.
 ======================================================================================================
 Ernie: Thresh=  0.10000D-02 Tol=  0.10000D-05 Strict=F.
 AO basis set (Overlap normalization):
 Atom C1       Shell     1 S   6     bf    1 -     1          0.000000000000          0.000000000000          0.412113450682
      0.1357534968D+05  0.6064550360D-03
      0.2035233368D+04  0.4697908888D-02
      0.4632256236D+03  0.2433247765D-01
      0.1312001960D+03  0.9739996831D-01
      0.4285301589D+02  0.3019558425D+00
      0.1558418577D+02  0.6623360914D+00
 Atom C1       Shell     2 S   2     bf    2 -     2          0.000000000000          0.000000000000          0.412113450682
      0.6206713851D+01  0.6559530854D+00
      0.2576489653D+01  0.3758563329D+00
 Atom C1       Shell     3 S   1     bf    3 -     3          0.000000000000          0.000000000000          0.412113450682
      0.5769633942D+00  0.1000000000D+01
 Atom C1       Shell     4 S   1     bf    4 -     4          0.000000000000          0.000000000000          0.412113450682
      0.2297283136D+00  0.1000000000D+01
 Atom C1       Shell     5 S   1     bf    5 -     5          0.000000000000          0.000000000000          0.412113450682
      0.9516444003D-01  0.1000000000D+01
 Atom C1       Shell     6 P   4     bf    6 -     8          0.000000000000          0.000000000000          0.412113450682
      0.3469723224D+02  0.1132722000D-01
      0.7958262283D+01  0.7616965920D-01
      0.2378082688D+01  0.3019225220D+00
      0.8143320818D+00  0.7278502735D+00
 Atom C1       Shell     7 P   1     bf    9 -    11          0.000000000000          0.000000000000          0.412113450682
      0.2888754725D+00  0.1000000000D+01
 Atom C1       Shell     8 P   1     bf   12 -    14          0.000000000000          0.000000000000          0.412113450682
      0.1005682367D+00  0.1000000000D+01
 Atom C1       Shell     9 D   1     bf   15 -    19          0.000000000000          0.000000000000          0.412113450682
      0.1097000000D+01  0.1000000000D+01
 Atom C1       Shell    10 D   1     bf   20 -    24          0.000000000000          0.000000000000          0.412113450682
      0.3180000000D+00  0.1000000000D+01
 Atom C1       Shell    11 F   1     bf   25 -    31          0.000000000000          0.000000000000          0.412113450682
      0.7610000000D+00  0.1000000000D+01
 Atom C2       Shell    12 S   6     bf   32 -    32          0.000000000000          0.000000000000          2.678860734066
      0.1357534968D+05  0.6064550360D-03
      0.2035233368D+04  0.4697908888D-02
      0.4632256236D+03  0.2433247765D-01
      0.1312001960D+03  0.9739996831D-01
      0.4285301589D+02  0.3019558425D+00
      0.1558418577D+02  0.6623360914D+00
 Atom C2       Shell    13 S   2     bf   33 -    33          0.000000000000          0.000000000000          2.678860734066
      0.6206713851D+01  0.6559530854D+00
      0.2576489653D+01  0.3758563329D+00
 Atom C2       Shell    14 S   1     bf   34 -    34          0.000000000000          0.000000000000          2.678860734066
      0.5769633942D+00  0.1000000000D+01
 Atom C2       Shell    15 S   1     bf   35 -    35          0.000000000000          0.000000000000          2.678860734066
      0.2297283136D+00  0.1000000000D+01
 Atom C2       Shell    16 S   1     bf   36 -    36          0.000000000000          0.000000000000          2.678860734066
      0.9516444003D-01  0.1000000000D+01
 Atom C2       Shell    17 P   4     bf   37 -    39          0.000000000000          0.000000000000          2.678860734066
      0.3469723224D+02  0.1132722000D-01
      0.7958262283D+01  0.7616965920D-01
      0.2378082688D+01  0.3019225220D+00
      0.8143320818D+00  0.7278502735D+00
 Atom C2       Shell    18 P   1     bf   40 -    42          0.000000000000          0.000000000000          2.678860734066
      0.2888754725D+00  0.1000000000D+01
 Atom C2       Shell    19 P   1     bf   43 -    45          0.000000000000          0.000000000000          2.678860734066
      0.1005682367D+00  0.1000000000D+01
 Atom C2       Shell    20 D   1     bf   46 -    50          0.000000000000          0.000000000000          2.678860734066
      0.1097000000D+01  0.1000000000D+01
 Atom C2       Shell    21 D   1     bf   51 -    55          0.000000000000          0.000000000000          2.678860734066
      0.3180000000D+00  0.1000000000D+01
 Atom C2       Shell    22 F   1     bf   56 -    62          0.000000000000          0.000000000000          2.678860734066
      0.7610000000D+00  0.1000000000D+01
 Atom H3       Shell    23 S   3     bf   63 -    63          0.000000000000          0.000000000000          4.685591150196
      0.3406134100D+02  0.2543930721D-01
      0.5123574600D+01  0.1900859489D+00
      0.1164662600D+01  0.8524411301D+00
 Atom H3       Shell    24 S   1     bf   64 -    64          0.000000000000          0.000000000000          4.685591150196
      0.3272304100D+00  0.1000000000D+01
 Atom H3       Shell    25 S   1     bf   65 -    65          0.000000000000          0.000000000000          4.685591150196
      0.1030724100D+00  0.1000000000D+01
 Atom H3       Shell    26 P   1     bf   66 -    68          0.000000000000          0.000000000000          4.685591150196
      0.8000000000D+00  0.1000000000D+01
 Atom C4       Shell    27 S   6     bf   69 -    69          0.000000000000          0.000000000000         -2.335729760242
      0.1357534968D+05  0.6064550360D-03
      0.2035233368D+04  0.4697908888D-02
      0.4632256236D+03  0.2433247765D-01
      0.1312001960D+03  0.9739996831D-01
      0.4285301589D+02  0.3019558425D+00
      0.1558418577D+02  0.6623360914D+00
 Atom C4       Shell    28 S   2     bf   70 -    70          0.000000000000          0.000000000000         -2.335729760242
      0.6206713851D+01  0.6559530854D+00
      0.2576489653D+01  0.3758563329D+00
 Atom C4       Shell    29 S   1     bf   71 -    71          0.000000000000          0.000000000000         -2.335729760242
      0.5769633942D+00  0.1000000000D+01
 Atom C4       Shell    30 S   1     bf   72 -    72          0.000000000000          0.000000000000         -2.335729760242
      0.2297283136D+00  0.1000000000D+01
 Atom C4       Shell    31 S   1     bf   73 -    73          0.000000000000          0.000000000000         -2.335729760242
      0.9516444003D-01  0.1000000000D+01
 Atom C4       Shell    32 P   4     bf   74 -    76          0.000000000000          0.000000000000         -2.335729760242
      0.3469723224D+02  0.1132722000D-01
      0.7958262283D+01  0.7616965920D-01
      0.2378082688D+01  0.3019225220D+00
      0.8143320818D+00  0.7278502735D+00
 Atom C4       Shell    33 P   1     bf   77 -    79          0.000000000000          0.000000000000         -2.335729760242
      0.2888754725D+00  0.1000000000D+01
 Atom C4       Shell    34 P   1     bf   80 -    82          0.000000000000          0.000000000000         -2.335729760242
      0.1005682367D+00  0.1000000000D+01
 Atom C4       Shell    35 D   1     bf   83 -    87          0.000000000000          0.000000000000         -2.335729760242
      0.1097000000D+01  0.1000000000D+01
 Atom C4       Shell    36 D   1     bf   88 -    92          0.000000000000          0.000000000000         -2.335729760242
      0.3180000000D+00  0.1000000000D+01
 Atom C4       Shell    37 F   1     bf   93 -    99          0.000000000000          0.000000000000         -2.335729760242
      0.7610000000D+00  0.1000000000D+01
 Atom H5       Shell    38 S   3     bf  100 -   100          0.000000000000          1.927335462382         -3.072352565745
      0.3406134100D+02  0.2543930721D-01
      0.5123574600D+01  0.1900859489D+00
      0.1164662600D+01  0.8524411301D+00
 Atom H5       Shell    39 S   1     bf  101 -   101          0.000000000000          1.927335462382         -3.072352565745
      0.3272304100D+00  0.1000000000D+01
 Atom H5       Shell    40 S   1     bf  102 -   102          0.000000000000          1.927335462382         -3.072352565745
      0.1030724100D+00  0.1000000000D+01
 Atom H5       Shell    41 P   1     bf  103 -   105          0.000000000000          1.927335462382         -3.072352565745
      0.8000000000D+00  0.1000000000D+01
 Atom H6       Shell    42 S   3     bf  106 -   106          1.669121472038         -0.963667731191         -3.072352565745
      0.3406134100D+02  0.2543930721D-01
      0.5123574600D+01  0.1900859489D+00
      0.1164662600D+01  0.8524411301D+00
 Atom H6       Shell    43 S   1     bf  107 -   107          1.669121472038         -0.963667731191         -3.072352565745
      0.3272304100D+00  0.1000000000D+01
 Atom H6       Shell    44 S   1     bf  108 -   108          1.669121472038         -0.963667731191         -3.072352565745
      0.1030724100D+00  0.1000000000D+01
 Atom H6       Shell    45 P   1     bf  109 -   111          1.669121472038         -0.963667731191         -3.072352565745
      0.8000000000D+00  0.1000000000D+01
 Atom H7       Shell    46 S   3     bf  112 -   112         -1.669121472038         -0.963667731191         -3.072352565745
      0.3406134100D+02  0.2543930721D-01
      0.5123574600D+01  0.1900859489D+00
      0.1164662600D+01  0.8524411301D+00
 Atom H7       Shell    47 S   1     bf  113 -   113         -1.669121472038         -0.963667731191         -3.072352565745
      0.3272304100D+00  0.1000000000D+01
 Atom H7       Shell    48 S   1     bf  114 -   114         -1.669121472038         -0.963667731191         -3.072352565745
      0.1030724100D+00  0.1000000000D+01
 Atom H7       Shell    49 P   1     bf  115 -   117         -1.669121472038         -0.963667731191         -3.072352565745
      0.8000000000D+00  0.1000000000D+01
 There are    91 symmetry adapted cartesian basis functions of A'  symmetry.
 There are    41 symmetry adapted cartesian basis functions of A"  symmetry.
 There are    79 symmetry adapted basis functions of A'  symmetry.
 There are    38 symmetry adapted basis functions of A"  symmetry.
   117 basis functions,   185 primitive gaussians,   132 cartesian basis functions
    11 alpha electrons       11 beta electrons
       nuclear repulsion energy        58.8962806290 Hartrees.
 IExCor= 4639 DFT=T Ex+Corr=wB97XD ExCW=0 ScaHFX=  1.000000
 ScaDFX=  1.000000  1.000000  1.000000  1.000000 ScalE2=  1.000000  1.000000
 IRadAn=      5 IRanWt=     -1 IRanGd=            0 ICorTp=0 IEmpDi=121
  HFx wShort=  0.000000 wLong=  0.200000 cFull=  0.222036 cShort=  0.000000 cLong=  0.777964
  DFx wShort=  0.000000 wLong=  0.200000 cFull=  0.000000 cShort=  0.000000 cLong=  1.000000
 NAtoms=    7 NActive=    7 NUniq=    5 SFac= 1.96D+00 NAtFMM=   60 NAOKFM=F Big=F
 Integral buffers will be    131072 words long.
 Raffenetti 2 integral format.
 Two-electron integral symmetry is turned on.
 R6Disp:  Grimme-D2 Dispersion energy=       -0.0010657110 Hartrees.
 Nuclear repulsion after empirical dispersion term =       58.8952149180 Hartrees.
 Leave Link  301 at Fri Jul  9 19:19:36 2021, MaxMem=  4194304000 cpu:         0.6
 (Enter /home/minenky/programs//g09/l302.exe)
 NPDir=0 NMtPBC=     1 NCelOv=     1 NCel=       1 NClECP=     1 NCelD=      1
         NCelK=      1 NCelE2=     1 NClLst=     1 CellRange=     0.0.
 One-electron integrals computed using PRISM.
 One-electron integral symmetry used in STVInt
   6 Symmetry operations used in ECPInt.
 ECPInt:  NShTT=    1225 NPrTT=    3648 LenC2=    1224 LenP2D=    3230.
 LDataN:  DoStor=T MaxTD1= 6 Len=  172
 NBasis=   117 RedAO= T EigKep=  3.19D-05  NBF=    79    38
 NBsUse=   117 1.00D-06 EigRej= -1.00D+00 NBFU=    79    38
 Precomputing XC quadrature grid using
 IXCGrd= 4 IRadAn=           5 IRanWt=          -1 IRanGd=           0 AccXCQ= 0.00D+00.
 Generated NRdTot=       0 NPtTot=           0 NUsed=           0 NTot=          32
 NSgBfM=   132   132   132   132   132 MxSgAt=     7 MxSgA2=     7.
 Leave Link  302 at Fri Jul  9 19:19:40 2021, MaxMem=  4194304000 cpu:        35.6
 (Enter /home/minenky/programs//g09/l303.exe)
 DipDrv:  MaxL=1.
 Leave Link  303 at Fri Jul  9 19:19:41 2021, MaxMem=  4194304000 cpu:         3.3
 (Enter /home/minenky/programs//g09/l401.exe)
 ExpMin= 9.52D-02 ExpMax= 1.36D+04 ExpMxC= 4.63D+02 IAcc=3 IRadAn=         5 AccDes= 0.00D+00
 Harris functional with IExCor= 4639 and IRadAn=       5 diagonalized for initial guess.
 HarFok:  IExCor= 4639 AccDes= 0.00D+00 IRadAn=         5 IDoV= 1 UseB2=F ITyADJ=14
 ICtDFT=  3500011 ScaDFX=  1.000000  1.000000  1.000000  1.000000
 FoFCou: FMM=F IPFlag=           0 FMFlag=      100000 FMFlg1=           0
         NFxFlg=           0 DoJE=T BraDBF=F KetDBF=T FulRan=T
         wScrn=  0.000000 ICntrl=     500 IOpCl=  0 I1Cent=   200000004 NGrid=           0
         NMat0=    1 NMatS0=      1 NMatT0=    0 NMatD0=    1 NMtDS0=    0 NMtDT0=    0
 Petite list used in FoFCou.
 Harris En= -111.142285748888    
 JPrj=0 DoOrth=F DoCkMO=F.
 Initial guess orbital symmetries:
       Occupied  (A1) (A1) (A1) (A1) (A1) (A1) (A1) (E) (E) (E)
                 (E)
       Virtual   (E) (E) (A1) (A1) (E) (E) (A1) (A1) (E) (E) (A1)
                 (E) (E) (E) (E) (A1) (A1) (A1) (E) (E) (A1) (E)
                 (E) (A1) (E) (E) (A1) (E) (E) (A1) (A1) (E) (E)
                 (E) (E) (A1) (A1) (E) (E) (E) (E) (A1) (A2) (E)
                 (E) (E) (E) (A1) (A1) (A1) (E) (E) (A1) (A1) (E)
                 (E) (E) (E) (E) (E) (A1) (A2) (A1) (E) (E) (E)
                 (E) (A1) (A1) (A1) (E) (E) (A1) (A2) (E) (E) (E)
                 (E) (A1) (E) (E) (E) (E) (A1) (A2) (E) (E) (E)
                 (E) (A1) (E) (E) (A1) (E) (E) (A1) (E) (E) (A1)
                 (E) (E) (A1) (A1) (A1) (A1) (A1)
 The electronic state of the initial guess is 1-A1.
 Leave Link  401 at Fri Jul  9 19:19:44 2021, MaxMem=  4194304000 cpu:        32.4
 (Enter /home/minenky/programs//g09/l502.exe)
 Closed shell SCF:
 Using DIIS extrapolation, IDIIS=  1040.
 Integral symmetry usage will be decided dynamically.
 Keep R1 ints in memory in symmetry-blocked form, NReq=72113940.
 IVT=      203548 IEndB=      203548 NGot=  4194304000 MDV=  4181966844
 LenX=  4181966844 LenY=  4181948979
 Requested convergence on RMS density matrix=1.00D-08 within 380 cycles.
 Requested convergence on MAX density matrix=1.00D-06.
 Requested convergence on             energy=1.00D-06.
 No special actions if energy rises.
 FoFCou: FMM=F IPFlag=           0 FMFlag=           0 FMFlg1=           0
         NFxFlg=           0 DoJE=F BraDBF=F KetDBF=F FulRan=T
         wScrn=  0.000000 ICntrl=     600 IOpCl=  0 I1Cent=           0 NGrid=           0
         NMat0=    1 NMatS0=   6903 NMatT0=    0 NMatD0=    1 NMtDS0=    0 NMtDT0=    0
 Petite list used in FoFCou.
 Integral accuracy reduced to 1.0D-05 until final iterations.

 Cycle   1  Pass 0  IDiag  1:
 E= -116.612143740316    
 DIIS: error= 5.55D-02 at cycle   1 NSaved=   1.
 NSaved= 1 IEnMin= 1 EnMin= -116.612143740316     IErMin= 1 ErrMin= 5.55D-02
 ErrMax= 5.55D-02  0.00D+00 EMaxC= 1.00D-01 BMatC= 2.57D-01 BMatP= 2.57D-01
 IDIUse=3 WtCom= 4.45D-01 WtEn= 5.55D-01
 Coeff-Com:  0.100D+01
 Coeff-En:   0.100D+01
 Coeff:      0.100D+01
 Gap=     0.454 Goal=   None    Shift=    0.000
 GapD=    0.454 DampG=2.000 DampE=0.500 DampFc=1.0000 IDamp=-1.
 RMSDP=4.07D-03 MaxDP=8.67D-02              OVMax= 5.99D-02

 Cycle   2  Pass 0  IDiag  1:
 E= -116.648196913967     Delta-E=       -0.036053173651 Rises=F Damp=F
 DIIS: error= 9.43D-03 at cycle   2 NSaved=   2.
 NSaved= 2 IEnMin= 2 EnMin= -116.648196913967     IErMin= 2 ErrMin= 9.43D-03
 ErrMax= 9.43D-03  0.00D+00 EMaxC= 1.00D-01 BMatC= 7.43D-03 BMatP= 2.57D-01
 IDIUse=3 WtCom= 9.06D-01 WtEn= 9.43D-02
 Coeff-Com:  0.848D-01 0.915D+00
 Coeff-En:   0.000D+00 0.100D+01
 Coeff:      0.768D-01 0.923D+00
 Gap=     0.480 Goal=   None    Shift=    0.000
 RMSDP=1.14D-03 MaxDP=2.25D-02 DE=-3.61D-02 OVMax= 4.09D-02

 Cycle   3  Pass 0  IDiag  1:
 E= -116.651673661770     Delta-E=       -0.003476747803 Rises=F Damp=F
 DIIS: error= 5.39D-03 at cycle   3 NSaved=   3.
 NSaved= 3 IEnMin= 3 EnMin= -116.651673661770     IErMin= 3 ErrMin= 5.39D-03
 ErrMax= 5.39D-03  0.00D+00 EMaxC= 1.00D-01 BMatC= 3.56D-03 BMatP= 7.43D-03
 IDIUse=3 WtCom= 9.46D-01 WtEn= 5.39D-02
 Coeff-Com:  0.264D-01 0.417D+00 0.556D+00
 Coeff-En:   0.000D+00 0.283D+00 0.717D+00
 Coeff:      0.250D-01 0.410D+00 0.565D+00
 Gap=     0.469 Goal=   None    Shift=    0.000
 RMSDP=3.50D-04 MaxDP=9.18D-03 DE=-3.48D-03 OVMax= 2.40D-02

 Cycle   4  Pass 0  IDiag  1:
 E= -116.654575257713     Delta-E=       -0.002901595943 Rises=F Damp=F
 DIIS: error= 2.26D-03 at cycle   4 NSaved=   4.
 NSaved= 4 IEnMin= 4 EnMin= -116.654575257713     IErMin= 4 ErrMin= 2.26D-03
 ErrMax= 2.26D-03  0.00D+00 EMaxC= 1.00D-01 BMatC= 3.17D-04 BMatP= 3.56D-03
 IDIUse=3 WtCom= 9.77D-01 WtEn= 2.26D-02
 Coeff-Com:  0.117D-01 0.185D+00 0.312D+00 0.491D+00
 Coeff-En:   0.000D+00 0.000D+00 0.000D+00 0.100D+01
 Coeff:      0.114D-01 0.181D+00 0.305D+00 0.503D+00
 Gap=     0.469 Goal=   None    Shift=    0.000
 RMSDP=9.39D-05 MaxDP=2.11D-03 DE=-2.90D-03 OVMax= 6.13D-03

 Cycle   5  Pass 0  IDiag  1:
 E= -116.654868878407     Delta-E=       -0.000293620694 Rises=F Damp=F
 DIIS: error= 1.65D-04 at cycle   5 NSaved=   5.
 NSaved= 5 IEnMin= 5 EnMin= -116.654868878407     IErMin= 5 ErrMin= 1.65D-04
 ErrMax= 1.65D-04  0.00D+00 EMaxC= 1.00D-01 BMatC= 3.36D-06 BMatP= 3.17D-04
 IDIUse=3 WtCom= 9.98D-01 WtEn= 1.65D-03
 Coeff-Com: -0.157D-02-0.224D-01-0.238D-01 0.585D-01 0.989D+00
 Coeff-En:   0.000D+00 0.000D+00 0.000D+00 0.000D+00 0.100D+01
 Coeff:     -0.157D-02-0.223D-01-0.237D-01 0.584D-01 0.989D+00
 Gap=     0.469 Goal=   None    Shift=    0.000
 RMSDP=4.13D-05 MaxDP=1.05D-03 DE=-2.94D-04 OVMax= 6.66D-04

 Cycle   6  Pass 0  IDiag  1:
 E= -116.654873319583     Delta-E=       -0.000004441176 Rises=F Damp=F
 DIIS: error= 3.09D-05 at cycle   6 NSaved=   6.
 NSaved= 6 IEnMin= 6 EnMin= -116.654873319583     IErMin= 6 ErrMin= 3.09D-05
 ErrMax= 3.09D-05  0.00D+00 EMaxC= 1.00D-01 BMatC= 5.85D-08 BMatP= 3.36D-06
 IDIUse=1 WtCom= 1.00D+00 WtEn= 0.00D+00
 Coeff-Com: -0.486D-03-0.815D-02-0.124D-01-0.172D-01 0.492D-01 0.989D+00
 Coeff:     -0.486D-03-0.815D-02-0.124D-01-0.172D-01 0.492D-01 0.989D+00
 Gap=     0.469 Goal=   None    Shift=    0.000
 RMSDP=7.66D-06 MaxDP=1.78D-04 DE=-4.44D-06 OVMax= 1.56D-04

 Initial convergence to 1.0D-05 achieved.  Increase integral accuracy.
 Cycle   7  Pass 1  IDiag  1:
 E= -116.654888040843     Delta-E=       -0.000014721260 Rises=F Damp=F
 DIIS: error= 2.65D-05 at cycle   1 NSaved=   1.
 NSaved= 1 IEnMin= 1 EnMin= -116.654888040843     IErMin= 1 ErrMin= 2.65D-05
 ErrMax= 2.65D-05  0.00D+00 EMaxC= 1.00D-01 BMatC= 9.45D-08 BMatP= 9.45D-08
 IDIUse=1 WtCom= 1.00D+00 WtEn= 0.00D+00
 Coeff-Com:  0.100D+01
 Coeff:      0.100D+01
 Gap=     0.469 Goal=   None    Shift=    0.000
 RMSDP=7.66D-06 MaxDP=1.78D-04 DE=-1.47D-05 OVMax= 6.44D-05

 Cycle   8  Pass 1  IDiag  1:
 E= -116.654888089819     Delta-E=       -0.000000048976 Rises=F Damp=F
 DIIS: error= 7.61D-06 at cycle   2 NSaved=   2.
 NSaved= 2 IEnMin= 2 EnMin= -116.654888089819     IErMin= 2 ErrMin= 7.61D-06
 ErrMax= 7.61D-06  0.00D+00 EMaxC= 1.00D-01 BMatC= 6.18D-09 BMatP= 9.45D-08
 IDIUse=1 WtCom= 1.00D+00 WtEn= 0.00D+00
 Coeff-Com:  0.829D-01 0.917D+00
 Coeff:      0.829D-01 0.917D+00
 Gap=     0.469 Goal=   None    Shift=    0.000
 RMSDP=1.97D-06 MaxDP=5.58D-05 DE=-4.90D-08 OVMax= 3.31D-05

 Cycle   9  Pass 1  IDiag  1:
 E= -116.654888093723     Delta-E=       -0.000000003904 Rises=F Damp=F
 DIIS: error= 4.09D-06 at cycle   3 NSaved=   3.
 NSaved= 3 IEnMin= 3 EnMin= -116.654888093723     IErMin= 3 ErrMin= 4.09D-06
 ErrMax= 4.09D-06  0.00D+00 EMaxC= 1.00D-01 BMatC= 2.19D-09 BMatP= 6.18D-09
 IDIUse=1 WtCom= 1.00D+00 WtEn= 0.00D+00
 Coeff-Com: -0.314D-01 0.361D+00 0.671D+00
 Coeff:     -0.314D-01 0.361D+00 0.671D+00
 Gap=     0.469 Goal=   None    Shift=    0.000
 RMSDP=3.83D-07 MaxDP=8.54D-06 DE=-3.90D-09 OVMax= 1.16D-05

 Cycle  10  Pass 1  IDiag  1:
 E= -116.654888095688     Delta-E=       -0.000000001965 Rises=F Damp=F
 DIIS: error= 3.63D-07 at cycle   4 NSaved=   4.
 NSaved= 4 IEnMin= 4 EnMin= -116.654888095688     IErMin= 4 ErrMin= 3.63D-07
 ErrMax= 3.63D-07  0.00D+00 EMaxC= 1.00D-01 BMatC= 8.65D-12 BMatP= 2.19D-09
 IDIUse=1 WtCom= 1.00D+00 WtEn= 0.00D+00
 Coeff-Com: -0.232D-02-0.289D-02 0.188D-01 0.986D+00
 Coeff:     -0.232D-02-0.289D-02 0.188D-01 0.986D+00
 Gap=     0.469 Goal=   None    Shift=    0.000
 RMSDP=9.47D-08 MaxDP=3.26D-06 DE=-1.96D-09 OVMax= 1.61D-06

 Cycle  11  Pass 1  IDiag  1:
 E= -116.654888095700     Delta-E=       -0.000000000013 Rises=F Damp=F
 DIIS: error= 1.86D-07 at cycle   5 NSaved=   5.
 NSaved= 5 IEnMin= 5 EnMin= -116.654888095700     IErMin= 5 ErrMin= 1.86D-07
 ErrMax= 1.86D-07  0.00D+00 EMaxC= 1.00D-01 BMatC= 3.99D-12 BMatP= 8.65D-12
 IDIUse=1 WtCom= 1.00D+00 WtEn= 0.00D+00
 Coeff-Com:  0.720D-03-0.214D-01-0.317D-01 0.413D+00 0.640D+00
 Coeff:      0.720D-03-0.214D-01-0.317D-01 0.413D+00 0.640D+00
 Gap=     0.469 Goal=   None    Shift=    0.000
 RMSDP=2.61D-08 MaxDP=7.57D-07 DE=-1.26D-11 OVMax= 1.06D-06

 Cycle  12  Pass 1  IDiag  1:
 E= -116.654888095704     Delta-E=       -0.000000000004 Rises=F Damp=F
 DIIS: error= 1.32D-07 at cycle   6 NSaved=   6.
 NSaved= 6 IEnMin= 6 EnMin= -116.654888095704     IErMin= 6 ErrMin= 1.32D-07
 ErrMax= 1.32D-07  0.00D+00 EMaxC= 1.00D-01 BMatC= 9.34D-13 BMatP= 3.99D-12
 IDIUse=1 WtCom= 1.00D+00 WtEn= 0.00D+00
 Coeff-Com:  0.107D-02-0.136D-01-0.266D-01 0.271D-01 0.336D+00 0.676D+00
 Coeff:      0.107D-02-0.136D-01-0.266D-01 0.271D-01 0.336D+00 0.676D+00
 Gap=     0.469 Goal=   None    Shift=    0.000
 RMSDP=1.04D-08 MaxDP=2.36D-07 DE=-3.58D-12 OVMax= 2.88D-07

 Cycle  13  Pass 1  IDiag  1:
 E= -116.654888095704     Delta-E=       -0.000000000001 Rises=F Damp=F
 DIIS: error= 1.22D-08 at cycle   7 NSaved=   7.
 NSaved= 7 IEnMin= 7 EnMin= -116.654888095704     IErMin= 7 ErrMin= 1.22D-08
 ErrMax= 1.22D-08  0.00D+00 EMaxC= 1.00D-01 BMatC= 1.58D-14 BMatP= 9.34D-13
 IDIUse=1 WtCom= 1.00D+00 WtEn= 0.00D+00
 Coeff-Com:  0.195D-03-0.162D-02-0.409D-02-0.159D-01 0.400D-01 0.160D+00
 Coeff-Com:  0.821D+00
 Coeff:      0.195D-03-0.162D-02-0.409D-02-0.159D-01 0.400D-01 0.160D+00
 Coeff:      0.821D+00
 Gap=     0.469 Goal=   None    Shift=    0.000
 RMSDP=2.36D-09 MaxDP=3.89D-08 DE=-6.54D-13 OVMax= 5.54D-08

 SCF Done:  E(RwB97XD) =  -116.654888096     A.U. after   13 cycles
            NFock= 13  Conv=0.24D-08     -V/T= 2.0054
 KE= 1.160289859890D+02 PE=-3.880399958739D+02 EE= 9.646090687119D+01
 Leave Link  502 at Fri Jul  9 19:20:12 2021, MaxMem=  4194304000 cpu:       323.7
 (Enter /home/minenky/programs//g09/l601.exe)
 Copying SCF densities to generalized density rwf, IOpCl= 0 IROHF=0.

 **********************************************************************

            Population analysis using the SCF density.

 **********************************************************************

 Orbital symmetries:
       Occupied  (A1) (A1) (A1) (A1) (A1) (A1) (A1) (E) (E) (E)
                 (E)
       Virtual   (E) (E) (A1) (A1) (E) (E) (A1) (A1) (E) (E) (A1)
                 (E) (E) (E) (E) (A1) (A1) (A1) (E) (E) (A1) (E)
                 (E) (A1) (A1) (E) (E) (E) (E) (A1) (A1) (E) (E)
                 (E) (E) (A1) (A1) (E) (E) (E) (E) (A1) (A2) (E)
                 (E) (E) (E) (A1) (A1) (A1) (E) (E) (A1) (A1) (E)
                 (E) (E) (E) (E) (E) (A1) (A2) (A1) (E) (E) (E)
                 (E) (A1) (A1) (A1) (A1) (E) (E) (A2) (E) (E) (A1)
                 (E) (E) (E) (E) (E) (E) (A1) (A2) (E) (E) (E)
                 (E) (A1) (E) (E) (A1) (E) (E) (A1) (E) (E) (A1)
                 (E) (E) (A1) (A1) (A1) (A1) (A1)
 The electronic state is 1-A1.
 Alpha  occ. eigenvalues --  -10.30576 -10.28834 -10.27145  -0.88279  -0.80099
 Alpha  occ. eigenvalues --   -0.61877  -0.54272  -0.52162  -0.52162  -0.35353
 Alpha  occ. eigenvalues --   -0.35353
 Alpha virt. eigenvalues --    0.11527   0.11527   0.12011   0.15675   0.20191
 Alpha virt. eigenvalues --    0.20191   0.21902   0.23781   0.28422   0.28422
 Alpha virt. eigenvalues --    0.31450   0.34871   0.34871   0.44573   0.44573
 Alpha virt. eigenvalues --    0.45068   0.47921   0.52004   0.53332   0.53332
 Alpha virt. eigenvalues --    0.58078   0.68352   0.68352   0.68639   0.74481
 Alpha virt. eigenvalues --    0.75778   0.75778   0.92911   0.92911   0.96926
 Alpha virt. eigenvalues --    1.05587   1.07462   1.07462   1.14181   1.14181
 Alpha virt. eigenvalues --    1.22033   1.35490   1.45274   1.45274   1.54062
 Alpha virt. eigenvalues --    1.54062   1.56208   1.60300   1.63332   1.63332
 Alpha virt. eigenvalues --    1.69687   1.69687   1.71616   1.83792   1.93625
 Alpha virt. eigenvalues --    2.05659   2.05659   2.15915   2.25808   2.28489
 Alpha virt. eigenvalues --    2.28489   2.41797   2.41797   2.51882   2.51882
 Alpha virt. eigenvalues --    2.59610   2.60924   2.61364   2.61677   2.61677
 Alpha virt. eigenvalues --    2.77093   2.77093   2.83095   2.92798   2.94152
 Alpha virt. eigenvalues --    2.99331   2.99714   2.99714   3.00430   3.02819
 Alpha virt. eigenvalues --    3.02819   3.10827   3.11975   3.11975   3.18025
 Alpha virt. eigenvalues --    3.18025   3.30318   3.30318   3.30548   3.43373
 Alpha virt. eigenvalues --    3.48325   3.48325   3.61458   3.61458   3.68611
 Alpha virt. eigenvalues --    4.01851   4.01851   4.11115   4.22777   4.22777
 Alpha virt. eigenvalues --    4.46996   4.55179   4.55179   4.94569   5.02783
 Alpha virt. eigenvalues --    5.02783   5.11547   5.57699  22.50723  22.64226
 Alpha virt. eigenvalues --   23.50709
          Condensed to atoms (all electrons):
               1          2          3          4          5          6
     1  C    5.116821   0.848836  -0.030444   0.293582  -0.046986  -0.046986
     2  C    0.848836   5.018544   0.417852  -0.081706  -0.012639  -0.012639
     3  H   -0.030444   0.417852   0.420980  -0.000643  -0.000085  -0.000085
     4  C    0.293582  -0.081706  -0.000643   4.891652   0.427397   0.427397
     5  H   -0.046986  -0.012639  -0.000085   0.427397   0.537406  -0.026882
     6  H   -0.046986  -0.012639  -0.000085   0.427397  -0.026882   0.537406
     7  H   -0.046986  -0.012639  -0.000085   0.427397  -0.026882  -0.026882
               7
     1  C   -0.046986
     2  C   -0.012639
     3  H   -0.000085
     4  C    0.427397
     5  H   -0.026882
     6  H   -0.026882
     7  H    0.537406
 Mulliken charges:
               1
     1  C   -0.087836
     2  C   -0.165610
     3  H    0.192509
     4  C   -0.385076
     5  H    0.148671
     6  H    0.148671
     7  H    0.148671
 Sum of Mulliken charges =   0.00000
 Mulliken charges with hydrogens summed into heavy atoms:
               1
     1  C   -0.087836
     2  C    0.026899
     4  C    0.060937
 Electronic spatial extent (au):  <R**2>=            177.6375
 Charge=              0.0000 electrons
 Dipole moment (field-independent basis, Debye):
    X=              0.0000    Y=              0.0000    Z=             -0.8234  Tot=              0.8234
 Quadrupole moment (field-independent basis, Debye-Ang):
   XX=            -19.6000   YY=            -19.6000   ZZ=            -13.8081
   XY=              0.0000   XZ=              0.0000   YZ=              0.0000
 Traceless Quadrupole moment (field-independent basis, Debye-Ang):
   XX=             -1.9306   YY=             -1.9306   ZZ=              3.8612
   XY=              0.0000   XZ=              0.0000   YZ=              0.0000
 Octapole moment (field-independent basis, Debye-Ang**2):
  XXX=              0.0000  YYY=              0.7589  ZZZ=              8.8582  XYY=              0.0000
  XXY=             -0.7589  XXZ=             -3.1860  XZZ=              0.0000  YZZ=              0.0000
  YYZ=             -3.1860  XYZ=              0.0000
 Hexadecapole moment (field-independent basis, Debye-Ang**3):
 XXXX=            -28.9451 YYYY=            -28.9451 ZZZZ=           -155.4479 XXXY=              0.0000
 XXXZ=              0.0000 YYYX=              0.0000 YYYZ=             -1.2933 ZZZX=              0.0000
 ZZZY=              0.0000 XXYY=             -9.6484 XXZZ=            -37.2468 YYZZ=            -37.2468
 XXYZ=              1.2933 YYXZ=              0.0000 ZZXY=              0.0000
 N-N= 5.889521491799D+01 E-N=-3.880399949530D+02  KE= 1.160289859890D+02
 Symmetry A'   KE= 1.117872892035D+02
 Symmetry A"   KE= 4.241696785491D+00
 No NMR shielding tensors so no spin-rotation constants.
 Leave Link  601 at Fri Jul  9 19:20:18 2021, MaxMem=  4194304000 cpu:        47.1
 (Enter /home/minenky/programs//g09/l701.exe)
 Compute integral first derivatives.
 ... and contract with generalized density number  0.
 R6Disp: Adding Grimme-D2 dispersion energy 1st derivatives to the gradient.
   6 Symmetry operations used in ECPInt.
 ECPInt:  NShTT=    1225 NPrTT=    3648 LenC2=    1224 LenP2D=    3230.
 LDataN:  DoStor=T MaxTD1= 7 Len=  274
 Leave Link  701 at Fri Jul  9 19:20:21 2021, MaxMem=  4194304000 cpu:        21.6
 (Enter /home/minenky/programs//g09/l702.exe)
 L702 exits ... SP integral derivatives will be done elsewhere.
 Leave Link  702 at Fri Jul  9 19:20:21 2021, MaxMem=  4194304000 cpu:         0.0
 (Enter /home/minenky/programs//g09/l703.exe)
 Compute integral first derivatives, UseDBF=F ICtDFT=           0.
 Integral derivatives from FoFJK, PRISM(SPDF).
 Calling FoFJK, ICntrl=      2127 FMM=F ISym2X=1 I1Cent= 0 IOpClX= 0 NMat=1 NMatS=1 NMatT=0.
 FoFJK:  IHMeth= 1 ICntrl=    2127 DoSepK=T KAlg= 0 I1Cent=   0 FoldK=F
 IRaf=         1 NMat=   1 IRICut=       1 DoRegI=T DoRafI=F ISym2E= 1.
 FoFCou: FMM=F IPFlag=           0 FMFlag=      100000 FMFlg1=         800
         NFxFlg=           0 DoJE=F BraDBF=F KetDBF=F FulRan=T
         wScrn=  0.000000 ICntrl=    2527 IOpCl=  0 I1Cent=           0 NGrid=           0
         NMat0=    1 NMatS0=      1 NMatT0=    0 NMatD0=    1 NMtDS0=    0 NMtDT0=    0
 Petite list used in FoFCou.
 Leave Link  703 at Fri Jul  9 19:20:27 2021, MaxMem=  4194304000 cpu:        38.0
 (Enter /home/minenky/programs//g09/l716.exe)
 Dipole        = 4.44089210D-16 0.00000000D+00-3.23959958D-01
 ***** Axes restored to original set *****
 -------------------------------------------------------------------
 Center     Atomic                   Forces (Hartrees/Bohr)
 Number     Number              X              Y              Z
 -------------------------------------------------------------------
      1        6           0.000000000    0.000000000    0.005631426
      2        6           0.000000000    0.000000000   -0.006362615
      3        1           0.000000000    0.000000000    0.001094290
      4        6           0.000000000    0.000000000   -0.002327218
      5        1           0.000000000   -0.000336405    0.000654706
      6        1          -0.000291335    0.000168202    0.000654706
      7        1           0.000291335    0.000168202    0.000654706
 -------------------------------------------------------------------
 Cartesian Forces:  Max     0.006362615 RMS     0.001957095
 Leave Link  716 at Fri Jul  9 19:20:27 2021, MaxMem=  4194304000 cpu:         0.1
 (Enter /home/minenky/programs//g09/l103.exe)

 GradGradGradGradGradGradGradGradGradGradGradGradGradGradGradGradGradGrad
 Berny optimization.
 FormGI is forming the generalized inverse of G from B-inverse, IUseBI=4.
 Internal  Forces:  Max     0.005268325 RMS     0.001347305
 Search for a local minimum.
 Step number   1 out of a maximum of   27
 All quantities printed in internal units (Hartrees-Bohrs-Radians)
 RMS Force = .13473D-02 SwitMx=.10000D-02 MixMth= 1
 Mixed Optimization -- RFO/linear search
 Second derivative matrix not updated -- first step.
 The second derivative matrix:
                          R1        R2        R3        R4        R5
           R1           1.05069
           R2           0.00000   0.37713
           R3           0.00000   0.00000   0.38271
           R4           0.00000   0.00000   0.00000   0.34599
           R5           0.00000   0.00000   0.00000   0.00000   0.34599
           R6           0.00000   0.00000   0.00000   0.00000   0.00000
           A1           0.00000   0.00000   0.00000   0.00000   0.00000
           A2           0.00000   0.00000   0.00000   0.00000   0.00000
           A3           0.00000   0.00000   0.00000   0.00000   0.00000
           A4           0.00000   0.00000   0.00000   0.00000   0.00000
           A5           0.00000   0.00000   0.00000   0.00000   0.00000
           A6           0.00000   0.00000   0.00000   0.00000   0.00000
           A7           0.00000   0.00000   0.00000   0.00000   0.00000
           A8           0.00000   0.00000   0.00000   0.00000   0.00000
           A9           0.00000   0.00000   0.00000   0.00000   0.00000
           A10          0.00000   0.00000   0.00000   0.00000   0.00000
           D1           0.00000   0.00000   0.00000   0.00000   0.00000
                          R6        A1        A2        A3        A4
           R6           0.34599
           A1           0.00000   0.16000
           A2           0.00000   0.00000   0.16000
           A3           0.00000   0.00000   0.00000   0.16000
           A4           0.00000   0.00000   0.00000   0.00000   0.16000
           A5           0.00000   0.00000   0.00000   0.00000   0.00000
           A6           0.00000   0.00000   0.00000   0.00000   0.00000
           A7           0.00000   0.00000   0.00000   0.00000   0.00000
           A8           0.00000   0.00000   0.00000   0.00000   0.00000
           A9           0.00000   0.00000   0.00000   0.00000   0.00000
           A10          0.00000   0.00000   0.00000   0.00000   0.00000
           D1           0.00000   0.00000   0.00000   0.00000   0.00000
                          A5        A6        A7        A8        A9
           A5           0.16000
           A6           0.00000   0.16000
           A7           0.00000   0.00000   0.01373
           A8           0.00000   0.00000   0.00000   0.00606
           A9           0.00000   0.00000   0.00000   0.00000   0.01373
           A10          0.00000   0.00000   0.00000   0.00000   0.00000
           D1           0.00000   0.00000   0.00000   0.00000   0.00000
                          A10       D1
           A10          0.00606
           D1           0.00000   0.00230
 ITU=  0
     Eigenvalues ---    0.00606   0.00606   0.01373   0.01373   0.07569
     Eigenvalues ---    0.16000   0.16000   0.16000   0.16000   0.34599
     Eigenvalues ---    0.34599   0.34599   0.37713   0.38271   1.05069
 RFO step:  Lambda=-4.15390409D-05 EMin= 6.06327541D-03
 Linear search not attempted -- first point.
 Iteration  1 RMS(Cart)=  0.00252563 RMS(Int)=  0.00000740
 Iteration  2 RMS(Cart)=  0.00000479 RMS(Int)=  0.00000549
 Iteration  3 RMS(Cart)=  0.00000000 RMS(Int)=  0.00000549
 ITry= 1 IFail=0 DXMaxC= 6.13D-03 DCOld= 1.00D+10 DXMaxT= 3.00D-01 DXLimC= 3.00D+00 Rises=F
 ClnCor:  largest displacement from symmetrization is 3.91D-05 for atom     7.
 Variable       Old X    -DE/DX   Delta X   Delta X   Delta X     New X
                                 (Linear)    (Quad)   (Total)
    R1        2.26675  -0.00527   0.00000  -0.00501  -0.00501   2.26173
    R2        2.74784   0.00036   0.00000   0.00096   0.00096   2.74881
    R3        2.00673   0.00109   0.00000   0.00286   0.00286   2.00959
    R4        2.06331  -0.00055   0.00000  -0.00158  -0.00159   2.06171
    R5        2.06331  -0.00055   0.00000  -0.00158  -0.00159   2.06171
    R6        2.06331  -0.00055   0.00000  -0.00158  -0.00159   2.06171
    A1        1.93586  -0.00029   0.00000  -0.00297  -0.00297   1.93290
    A2        1.93586  -0.00029   0.00000  -0.00297  -0.00297   1.93290
    A3        1.93586  -0.00029   0.00000  -0.00297  -0.00297   1.93290
    A4        1.88474   0.00007   0.00000   0.00308   0.00311   1.88785
    A5        1.88474   0.00042   0.00000   0.00315   0.00311   1.88785
    A6        1.88474   0.00042   0.00000   0.00315   0.00311   1.88785
    A7        3.14159   0.00000   0.00000   0.00000   0.00000   3.14159
    A8        3.14159   0.00000   0.00000   0.00000   0.00000   3.14159
    A9        3.14159   0.00000   0.00000   0.00000   0.00000   3.14159
   A10        3.14159   0.00000   0.00000   0.00000   0.00000   3.14159
    D1        2.03397   0.00052   0.00000   0.00692   0.00696   2.04093
         Item               Value     Threshold  Converged?
 Maximum Force            0.005268     0.000015     NO 
 RMS     Force            0.001347     0.000010     NO 
 Maximum Displacement     0.006135     0.000060     NO 
 RMS     Displacement     0.002524     0.000040     NO 
 Predicted change in Energy=-2.078398D-05
 Lowest energy point so far.  Saving SCF results.
 GradGradGradGradGradGradGradGradGradGradGradGradGradGradGradGradGradGrad

 Leave Link  103 at Fri Jul  9 19:20:38 2021, MaxMem=  4194304000 cpu:        56.8
 (Enter /home/minenky/programs//g09/l202.exe)
                          Input orientation:                          
 ---------------------------------------------------------------------
 Center     Atomic      Atomic             Coordinates (Angstroms)
 Number     Number       Type             X           Y           Z
 ---------------------------------------------------------------------
      1          6           0        0.000000    0.000000    0.217488
      2          6           0        0.000000    0.000000    1.414346
      3          1           0        0.000000    0.000000    2.477775
      4          6           0        0.000000    0.000000   -1.237117
      5          1           0        0.000000    1.020265   -1.623596
      6          1           0        0.883575   -0.510132   -1.623596
      7          1           0       -0.883575   -0.510132   -1.623596
 ---------------------------------------------------------------------
                    Distance matrix (angstroms):
                    1          2          3          4          5
     1  C    0.000000
     2  C    1.196858   0.000000
     3  H    2.260287   1.063429   0.000000
     4  C    1.454605   2.651463   3.714892   0.000000
     5  H    2.104883   3.204689   4.226367   1.091012   0.000000
     6  H    2.104883   3.204689   4.226367   1.091012   1.767151
     7  H    2.104883   3.204689   4.226367   1.091012   1.767151
                    6          7
     6  H    0.000000
     7  H    1.767151   0.000000
 Stoichiometry    C3H4
 Framework group  C3V[C3(CCCH),3SGV(H)]
 Deg. of freedom     5
 Full point group                 C3V     NOp   6
 RotChk:  IX=0 Diff= 3.93D-16
 Largest Abelian subgroup         CS      NOp   2
 Largest concise Abelian subgroup CS      NOp   2
                         Standard orientation:                         
 ---------------------------------------------------------------------
 Center     Atomic      Atomic             Coordinates (Angstroms)
 Number     Number       Type             X           Y           Z
 ---------------------------------------------------------------------
      1          6           0        0.000000    0.000000    0.218611
      2          6           0        0.000000    0.000000    1.415469
      3          1           0        0.000000    0.000000    2.478898
      4          6           0        0.000000    0.000000   -1.235994
      5          1           0        0.000000    1.020265   -1.622473
      6          1           0        0.883575   -0.510132   -1.622473
      7          1           0       -0.883575   -0.510132   -1.622473
 ---------------------------------------------------------------------
 Rotational constants (GHZ):    160.5775908      8.6339828      8.6339828
 Leave Link  202 at Fri Jul  9 19:20:38 2021, MaxMem=  4194304000 cpu:         0.0
 (Enter /home/minenky/programs//g09/l301.exe)
 Standard basis: def2TZVP (5D, 7F)
 Ernie: Thresh=  0.10000D-02 Tol=  0.10000D-05 Strict=F.
 There are    91 symmetry adapted cartesian basis functions of A'  symmetry.
 There are    41 symmetry adapted cartesian basis functions of A"  symmetry.
 There are    79 symmetry adapted basis functions of A'  symmetry.
 There are    38 symmetry adapted basis functions of A"  symmetry.
   117 basis functions,   185 primitive gaussians,   132 cartesian basis functions
    11 alpha electrons       11 beta electrons
       nuclear repulsion energy        58.9456702200 Hartrees.
 IExCor= 4639 DFT=T Ex+Corr=wB97XD ExCW=0 ScaHFX=  1.000000
 ScaDFX=  1.000000  1.000000  1.000000  1.000000 ScalE2=  1.000000  1.000000
 IRadAn=      5 IRanWt=     -1 IRanGd=            0 ICorTp=0 IEmpDi=121
  HFx wShort=  0.000000 wLong=  0.200000 cFull=  0.222036 cShort=  0.000000 cLong=  0.777964
  DFx wShort=  0.000000 wLong=  0.200000 cFull=  0.000000 cShort=  0.000000 cLong=  1.000000
 NAtoms=    7 NActive=    7 NUniq=    5 SFac= 1.96D+00 NAtFMM=   60 NAOKFM=F Big=F
 Integral buffers will be    131072 words long.
 Raffenetti 2 integral format.
 Two-electron integral symmetry is turned on.
 R6Disp:  Grimme-D2 Dispersion energy=       -0.0010670116 Hartrees.
 Nuclear repulsion after empirical dispersion term =       58.9446032084 Hartrees.
 Leave Link  301 at Fri Jul  9 19:20:39 2021, MaxMem=  4194304000 cpu:         0.1
 (Enter /home/minenky/programs//g09/l302.exe)
 NPDir=0 NMtPBC=     1 NCelOv=     1 NCel=       1 NClECP=     1 NCelD=      1
         NCelK=      1 NCelE2=     1 NClLst=     1 CellRange=     0.0.
 One-electron integrals computed using PRISM.
 One-electron integral symmetry used in STVInt
   6 Symmetry operations used in ECPInt.
 ECPInt:  NShTT=    1225 NPrTT=    3648 LenC2=    1224 LenP2D=    3230.
 LDataN:  DoStor=T MaxTD1= 6 Len=  172
 NBasis=   117 RedAO= T EigKep=  3.19D-05  NBF=    79    38
 NBsUse=   117 1.00D-06 EigRej= -1.00D+00 NBFU=    79    38
 Precomputing XC quadrature grid using
 IXCGrd= 4 IRadAn=           5 IRanWt=          -1 IRanGd=           0 AccXCQ= 0.00D+00.
 Generated NRdTot=       0 NPtTot=           0 NUsed=           0 NTot=          32
 NSgBfM=   132   132   132   132   132 MxSgAt=     7 MxSgA2=     7.
 Leave Link  302 at Fri Jul  9 19:20:43 2021, MaxMem=  4194304000 cpu:        39.7
 (Enter /home/minenky/programs//g09/l303.exe)
 DipDrv:  MaxL=1.
 Leave Link  303 at Fri Jul  9 19:20:44 2021, MaxMem=  4194304000 cpu:         3.7
 (Enter /home/minenky/programs//g09/l401.exe)
 Initial guess from the checkpoint file:  "m1_00_74-99-70_C3H4_wB97XD.chk"
 B after Tr=     0.000000    0.000000    0.000000
         Rot=    1.000000    0.000000    0.000000    0.000000 Ang=   0.00 deg.
 Guess basis will be translated and rotated to current coordinates.
 JPrj=2 DoOrth=T DoCkMO=T.
 Initial guess orbital symmetries:
       Occupied  (A1) (A1) (A1) (A1) (A1) (A1) (A1) (E) (E) (E)
                 (E)
       Virtual   (?A) (?A) (?A) (?A) (?A) (?A) (?A) (?A) (?A) (?A)
                 (?A) (?A) (?A) (?A) (?A) (?A) (?A) (?A) (?A) (?A)
                 (?A) (?A) (?A) (?A) (?A) (?A) (?A) (?A) (?A) (?A)
                 (?A) (?A) (?A) (?A) (?A) (?A) (?A) (?A) (?A) (?A)
                 (?A) (?A) (?A) (?A) (?A) (?A) (?A) (?A) (?A) (?A)
                 (?A) (?A) (?A) (?A) (?A) (?A) (?A) (?A) (?A) (?A)
                 (?A) (?A) (?A) (?A) (?A) (?A) (?A) (?A) (?A) (?A)
                 (?A) (?A) (?A) (?A) (?A) (?A) (?A) (?A) (?A) (?A)
                 (?A) (?A) (?A) (?A) (?A) (?A) (?A) (?A) (?A) (?A)
                 (?A) (?A) (?A) (?A) (?A) (?A) (?A) (?A) (?A) (?A)
                 (?A) (?A) (?A) (?A) (?A) (?A)
 The electronic state of the initial guess is 1-A1.
 Leave Link  401 at Fri Jul  9 19:20:48 2021, MaxMem=  4194304000 cpu:        22.3
 (Enter /home/minenky/programs//g09/l502.exe)
 Closed shell SCF:
 Using DIIS extrapolation, IDIIS=  1040.
 Integral symmetry usage will be decided dynamically.
 Keep R1 ints in memory in symmetry-blocked form, NReq=72113940.
 IVT=      203548 IEndB=      203548 NGot=  4194304000 MDV=  4181966844
 LenX=  4181966844 LenY=  4181948979
 Requested convergence on RMS density matrix=1.00D-08 within 380 cycles.
 Requested convergence on MAX density matrix=1.00D-06.
 Requested convergence on             energy=1.00D-06.
 No special actions if energy rises.
 FoFCou: FMM=F IPFlag=           0 FMFlag=           0 FMFlg1=           0
         NFxFlg=           0 DoJE=F BraDBF=F KetDBF=F FulRan=T
         wScrn=  0.000000 ICntrl=     600 IOpCl=  0 I1Cent=           0 NGrid=           0
         NMat0=    1 NMatS0=   6903 NMatT0=    0 NMatD0=    1 NMtDS0=    0 NMtDT0=    0
 Petite list used in FoFCou.

 Cycle   1  Pass 1  IDiag  1:
 E= -116.654903280102    
 DIIS: error= 3.00D-04 at cycle   1 NSaved=   1.
 NSaved= 1 IEnMin= 1 EnMin= -116.654903280102     IErMin= 1 ErrMin= 3.00D-04
 ErrMax= 3.00D-04  0.00D+00 EMaxC= 1.00D-01 BMatC= 1.20D-05 BMatP= 1.20D-05
 IDIUse=3 WtCom= 9.97D-01 WtEn= 3.00D-03
 Coeff-Com:  0.100D+01
 Coeff-En:   0.100D+01
 Coeff:      0.100D+01
 Gap=     0.946 Goal=   None    Shift=    0.000
 RMSDP=7.11D-05 MaxDP=1.70D-03              OVMax= 6.83D-04

 Cycle   2  Pass 1  IDiag  1:
 E= -116.654908529110     Delta-E=       -0.000005249007 Rises=F Damp=F
 DIIS: error= 9.33D-05 at cycle   2 NSaved=   2.
 NSaved= 2 IEnMin= 2 EnMin= -116.654908529110     IErMin= 2 ErrMin= 9.33D-05
 ErrMax= 9.33D-05  0.00D+00 EMaxC= 1.00D-01 BMatC= 6.37D-07 BMatP= 1.20D-05
 IDIUse=1 WtCom= 1.00D+00 WtEn= 0.00D+00
 Coeff-Com:  0.740D-01 0.926D+00
 Coeff:      0.740D-01 0.926D+00
 Gap=     0.470 Goal=   None    Shift=    0.000
 RMSDP=1.19D-05 MaxDP=2.08D-04 DE=-5.25D-06 OVMax= 3.61D-04

 Cycle   3  Pass 1  IDiag  1:
 E= -116.654908762228     Delta-E=       -0.000000233119 Rises=F Damp=F
 DIIS: error= 7.21D-05 at cycle   3 NSaved=   3.
 NSaved= 3 IEnMin= 3 EnMin= -116.654908762228     IErMin= 3 ErrMin= 7.21D-05
 ErrMax= 7.21D-05  0.00D+00 EMaxC= 1.00D-01 BMatC= 3.71D-07 BMatP= 6.37D-07
 IDIUse=1 WtCom= 1.00D+00 WtEn= 0.00D+00
 Coeff-Com: -0.830D-02 0.425D+00 0.583D+00
 Coeff:     -0.830D-02 0.425D+00 0.583D+00
 Gap=     0.470 Goal=   None    Shift=    0.000
 RMSDP=3.88D-06 MaxDP=8.97D-05 DE=-2.33D-07 OVMax= 2.48D-04

 Cycle   4  Pass 1  IDiag  1:
 E= -116.654909080455     Delta-E=       -0.000000318226 Rises=F Damp=F
 DIIS: error= 2.20D-05 at cycle   4 NSaved=   4.
 NSaved= 4 IEnMin= 4 EnMin= -116.654909080455     IErMin= 4 ErrMin= 2.20D-05
 ErrMax= 2.20D-05  0.00D+00 EMaxC= 1.00D-01 BMatC= 3.94D-08 BMatP= 3.71D-07
 IDIUse=1 WtCom= 1.00D+00 WtEn= 0.00D+00
 Coeff-Com: -0.798D-02 0.136D+00 0.298D+00 0.574D+00
 Coeff:     -0.798D-02 0.136D+00 0.298D+00 0.574D+00
 Gap=     0.470 Goal=   None    Shift=    0.000
 RMSDP=1.60D-06 MaxDP=2.85D-05 DE=-3.18D-07 OVMax= 7.45D-05

 Cycle   5  Pass 1  IDiag  1:
 E= -116.654909116312     Delta-E=       -0.000000035858 Rises=F Damp=F
 DIIS: error= 2.68D-06 at cycle   5 NSaved=   5.
 NSaved= 5 IEnMin= 5 EnMin= -116.654909116312     IErMin= 5 ErrMin= 2.68D-06
 ErrMax= 2.68D-06  0.00D+00 EMaxC= 1.00D-01 BMatC= 9.42D-10 BMatP= 3.94D-08
 IDIUse=1 WtCom= 1.00D+00 WtEn= 0.00D+00
 Coeff-Com: -0.583D-03-0.206D-01 0.588D-02 0.126D+00 0.890D+00
 Coeff:     -0.583D-03-0.206D-01 0.588D-02 0.126D+00 0.890D+00
 Gap=     0.470 Goal=   None    Shift=    0.000
 RMSDP=7.45D-07 MaxDP=1.49D-05 DE=-3.59D-08 OVMax= 1.28D-05

 Cycle   6  Pass 1  IDiag  1:
 E= -116.654909117440     Delta-E=       -0.000000001128 Rises=F Damp=F
 DIIS: error= 6.10D-07 at cycle   6 NSaved=   6.
 NSaved= 6 IEnMin= 6 EnMin= -116.654909117440     IErMin= 6 ErrMin= 6.10D-07
 ErrMax= 6.10D-07  0.00D+00 EMaxC= 1.00D-01 BMatC= 4.33D-11 BMatP= 9.42D-10
 IDIUse=1 WtCom= 1.00D+00 WtEn= 0.00D+00
 Coeff-Com:  0.245D-03-0.119D-01-0.130D-01-0.181D-02 0.191D+00 0.836D+00
 Coeff:      0.245D-03-0.119D-01-0.130D-01-0.181D-02 0.191D+00 0.836D+00
 Gap=     0.470 Goal=   None    Shift=    0.000
 RMSDP=2.26D-07 MaxDP=5.05D-06 DE=-1.13D-09 OVMax= 2.84D-06

 Cycle   7  Pass 1  IDiag  1:
 E= -116.654909117489     Delta-E=       -0.000000000049 Rises=F Damp=F
 DIIS: error= 2.30D-07 at cycle   7 NSaved=   7.
 NSaved= 7 IEnMin= 7 EnMin= -116.654909117489     IErMin= 7 ErrMin= 2.30D-07
 ErrMax= 2.30D-07  0.00D+00 EMaxC= 1.00D-01 BMatC= 3.83D-12 BMatP= 4.33D-11
 IDIUse=1 WtCom= 1.00D+00 WtEn= 0.00D+00
 Coeff-Com:  0.147D-03-0.201D-02-0.463D-02-0.110D-01-0.189D-01 0.228D+00
 Coeff-Com:  0.809D+00
 Coeff:      0.147D-03-0.201D-02-0.463D-02-0.110D-01-0.189D-01 0.228D+00
 Coeff:      0.809D+00
 Gap=     0.470 Goal=   None    Shift=    0.000
 RMSDP=7.28D-08 MaxDP=1.74D-06 DE=-4.92D-11 OVMax= 6.30D-07

 Cycle   8  Pass 1  IDiag  1:
 E= -116.654909117494     Delta-E=       -0.000000000005 Rises=F Damp=F
 DIIS: error= 2.93D-08 at cycle   8 NSaved=   8.
 NSaved= 8 IEnMin= 8 EnMin= -116.654909117494     IErMin= 8 ErrMin= 2.93D-08
 ErrMax= 2.93D-08  0.00D+00 EMaxC= 1.00D-01 BMatC= 8.80D-14 BMatP= 3.83D-12
 IDIUse=1 WtCom= 1.00D+00 WtEn= 0.00D+00
 Coeff-Com: -0.485D-05 0.582D-03 0.506D-03-0.409D-03-0.119D-01-0.293D-01
 Coeff-Com:  0.740D-01 0.967D+00
 Coeff:     -0.485D-05 0.582D-03 0.506D-03-0.409D-03-0.119D-01-0.293D-01
 Coeff:      0.740D-01 0.967D+00
 Gap=     0.470 Goal=   None    Shift=    0.000
 RMSDP=2.05D-08 MaxDP=4.19D-07 DE=-4.83D-12 OVMax= 1.45D-07

 Cycle   9  Pass 1  IDiag  1:
 E= -116.654909117495     Delta-E=       -0.000000000001 Rises=F Damp=F
 DIIS: error= 2.39D-09 at cycle   9 NSaved=   9.
 NSaved= 9 IEnMin= 9 EnMin= -116.654909117495     IErMin= 9 ErrMin= 2.39D-09
 ErrMax= 2.39D-09  0.00D+00 EMaxC= 1.00D-01 BMatC= 1.16D-15 BMatP= 8.80D-14
 IDIUse=1 WtCom= 1.00D+00 WtEn= 0.00D+00
 Coeff-Com: -0.327D-05 0.349D-04 0.981D-04 0.197D-03 0.812D-03-0.454D-02
 Coeff-Com: -0.226D-01-0.278D-01 0.105D+01
 Coeff:     -0.327D-05 0.349D-04 0.981D-04 0.197D-03 0.812D-03-0.454D-02
 Coeff:     -0.226D-01-0.278D-01 0.105D+01
 Gap=     0.470 Goal=   None    Shift=    0.000
 RMSDP=3.55D-09 MaxDP=6.52D-08 DE=-6.25D-13 OVMax= 2.02D-08

 SCF Done:  E(RwB97XD) =  -116.654909117     A.U. after    9 cycles
            NFock=  9  Conv=0.36D-08     -V/T= 2.0053
 KE= 1.160420935235D+02 PE=-3.881532483294D+02 EE= 9.651164248005D+01
 Leave Link  502 at Fri Jul  9 19:21:14 2021, MaxMem=  4194304000 cpu:       281.1
 (Enter /home/minenky/programs//g09/l701.exe)
 Compute integral first derivatives.
 ... and contract with generalized density number  0.
 R6Disp: Adding Grimme-D2 dispersion energy 1st derivatives to the gradient.
   6 Symmetry operations used in ECPInt.
 ECPInt:  NShTT=    1225 NPrTT=    3648 LenC2=    1224 LenP2D=    3230.
 LDataN:  DoStor=T MaxTD1= 7 Len=  274
 Leave Link  701 at Fri Jul  9 19:21:18 2021, MaxMem=  4194304000 cpu:        24.0
 (Enter /home/minenky/programs//g09/l702.exe)
 L702 exits ... SP integral derivatives will be done elsewhere.
 Leave Link  702 at Fri Jul  9 19:21:18 2021, MaxMem=  4194304000 cpu:         0.0
 (Enter /home/minenky/programs//g09/l703.exe)
 Compute integral first derivatives, UseDBF=F ICtDFT=           0.
 Integral derivatives from FoFJK, PRISM(SPDF).
 Calling FoFJK, ICntrl=      2127 FMM=F ISym2X=1 I1Cent= 0 IOpClX= 0 NMat=1 NMatS=1 NMatT=0.
 FoFJK:  IHMeth= 1 ICntrl=    2127 DoSepK=T KAlg= 0 I1Cent=   0 FoldK=F
 IRaf=         1 NMat=   1 IRICut=       1 DoRegI=T DoRafI=F ISym2E= 1.
 FoFCou: FMM=F IPFlag=           0 FMFlag=      100000 FMFlg1=         800
         NFxFlg=           0 DoJE=F BraDBF=F KetDBF=F FulRan=T
         wScrn=  0.000000 ICntrl=    2527 IOpCl=  0 I1Cent=           0 NGrid=           0
         NMat0=    1 NMatS0=      1 NMatT0=    0 NMatD0=    1 NMtDS0=    0 NMtDT0=    0
 Petite list used in FoFCou.
 Leave Link  703 at Fri Jul  9 19:21:23 2021, MaxMem=  4194304000 cpu:        38.4
 (Enter /home/minenky/programs//g09/l716.exe)
 Dipole        = 0.00000000D+00 1.11022302D-16-3.21911850D-01
 ***** Axes restored to original set *****
 -------------------------------------------------------------------
 Center     Atomic                   Forces (Hartrees/Bohr)
 Number     Number              X              Y              Z
 -------------------------------------------------------------------
      1        6           0.000000000    0.000000000    0.000039837
      2        6           0.000000000    0.000000000    0.000507126
      3        1           0.000000000    0.000000000   -0.000120671
      4        6           0.000000000    0.000000000   -0.000799788
      5        1           0.000000000   -0.000015985    0.000124499
      6        1          -0.000013844    0.000007993    0.000124499
      7        1           0.000013844    0.000007993    0.000124499
 -------------------------------------------------------------------
 Cartesian Forces:  Max     0.000799788 RMS     0.000213837
 Leave Link  716 at Fri Jul  9 19:21:23 2021, MaxMem=  4194304000 cpu:         0.0
 (Enter /home/minenky/programs//g09/l103.exe)

 GradGradGradGradGradGradGradGradGradGradGradGradGradGradGradGradGradGrad
 Berny optimization.
 Using GEDIIS/GDIIS optimizer.
 FormGI is forming the generalized inverse of G from B-inverse, IUseBI=4.
 Internal  Forces:  Max     0.000426291 RMS     0.000153451
 Search for a local minimum.
 Step number   2 out of a maximum of   27
 All quantities printed in internal units (Hartrees-Bohrs-Radians)
 RMS Force = .15345D-03 SwitMx=.10000D-02 MixMth= 2
 Mixed Optimization -- En-DIIS/RFO-DIIS
 Update second derivatives using D2CorX and points    1    2
 DE= -2.10D-05 DEPred=-2.08D-05 R= 1.01D+00
 TightC=F SS=  1.41D+00  RLast= 1.21D-02 DXNew= 5.0454D-01 3.6217D-02
 Trust test= 1.01D+00 RLast= 1.21D-02 DXMaxT set to 3.00D-01
 The second derivative matrix:
                          R1        R2        R3        R4        R5
           R1           1.16016
           R2           0.05477   0.37406
           R3          -0.02831  -0.01144   0.38978
           R4          -0.00272   0.00558   0.00008   0.34448
           R5          -0.00272   0.00558   0.00008  -0.00151   0.34448
           R6          -0.00272   0.00558   0.00008  -0.00151  -0.00151
           A1          -0.02960   0.00449   0.00593  -0.00366  -0.00366
           A2          -0.02960   0.00449   0.00593  -0.00366  -0.00366
           A3          -0.02960   0.00449   0.00593  -0.00366  -0.00366
           A4           0.05513  -0.00444  -0.01139   0.00592   0.00592
           A5           0.01878  -0.00485  -0.00358   0.00277   0.00277
           A6           0.01878  -0.00485  -0.00358   0.00277   0.00277
           A7           0.00000   0.00000   0.00000   0.00000   0.00000
           A8           0.00000   0.00000   0.00000   0.00000   0.00000
           A9           0.00000   0.00000   0.00000   0.00000   0.00000
           A10          0.00000   0.00000   0.00000   0.00000   0.00000
           D1          -0.05377  -0.00076   0.01157  -0.00461  -0.00461
                          R6        A1        A2        A3        A4
           R6           0.34448
           A1          -0.00366   0.15578
           A2          -0.00366  -0.00422   0.15578
           A3          -0.00366  -0.00422  -0.00422   0.15578
           A4           0.00592   0.00537   0.00537   0.00537   0.15411
           A5           0.00277   0.00394   0.00394   0.00394  -0.00551
           A6           0.00277   0.00394   0.00394   0.00394  -0.00551
           A7           0.00000   0.00000   0.00000   0.00000   0.00000
           A8           0.00000   0.00000   0.00000   0.00000   0.00000
           A9           0.00000   0.00000   0.00000   0.00000   0.00000
           A10          0.00000   0.00000   0.00000   0.00000   0.00000
           D1          -0.00461  -0.00201  -0.00201  -0.00201   0.00038
                          A5        A6        A7        A8        A9
           A5           0.15656
           A6          -0.00344   0.15656
           A7           0.00000   0.00000   0.01373
           A8           0.00000   0.00000   0.00000   0.00606
           A9           0.00000   0.00000   0.00000   0.00000   0.01373
           A10          0.00000   0.00000   0.00000   0.00000   0.00000
           D1           0.00299   0.00299   0.00000   0.00000   0.00000
                          A10       D1
           A10          0.00606
           D1           0.00000   0.00630
 ITU=  1  0
 Use linear search instead of GDIIS.
     Eigenvalues ---    0.00606   0.00606   0.01373   0.01373   0.06973
     Eigenvalues ---    0.15682   0.16000   0.16000   0.16000   0.33856
     Eigenvalues ---    0.34599   0.34599   0.36948   0.39300   1.16534
 RFO step:  Lambda=-1.17266801D-06 EMin= 6.06327541D-03
 Quartic linear search produced a step of  0.01069.
 Iteration  1 RMS(Cart)=  0.00036135 RMS(Int)=  0.00000052
 Iteration  2 RMS(Cart)=  0.00000029 RMS(Int)=  0.00000042
 ITry= 1 IFail=0 DXMaxC= 1.20D-03 DCOld= 1.00D+10 DXMaxT= 3.00D-01 DXLimC= 3.00D+00 Rises=F
 ClnCor:  largest displacement from symmetrization is 7.86D-06 for atom     7.
 Variable       Old X    -DE/DX   Delta X   Delta X   Delta X     New X
                                 (Linear)    (Quad)   (Total)
    R1        2.26173   0.00039  -0.00005   0.00029   0.00023   2.26197
    R2        2.74881   0.00043   0.00001   0.00116   0.00117   2.74998
    R3        2.00959  -0.00012   0.00003  -0.00027  -0.00024   2.00935
    R4        2.06171  -0.00006  -0.00002  -0.00020  -0.00022   2.06149
    R5        2.06171  -0.00006  -0.00002  -0.00020  -0.00022   2.06149
    R6        2.06171  -0.00006  -0.00002  -0.00020  -0.00022   2.06149
    A1        1.93290  -0.00006  -0.00003  -0.00073  -0.00076   1.93213
    A2        1.93290  -0.00006  -0.00003  -0.00073  -0.00076   1.93213
    A3        1.93290  -0.00006  -0.00003  -0.00073  -0.00076   1.93213
    A4        1.88785   0.00002   0.00003   0.00075   0.00080   1.88865
    A5        1.88785   0.00009   0.00003   0.00077   0.00080   1.88865
    A6        1.88785   0.00009   0.00003   0.00077   0.00080   1.88865
    A7        3.14159   0.00000   0.00000   0.00000   0.00000   3.14159
    A8        3.14159   0.00000   0.00000   0.00000   0.00000   3.14159
    A9        3.14159   0.00000   0.00000   0.00000   0.00000   3.14159
   A10        3.14159   0.00000   0.00000   0.00000   0.00000   3.14159
    D1        2.04093   0.00012   0.00007   0.00171   0.00179   2.04273
         Item               Value     Threshold  Converged?
 Maximum Force            0.000426     0.000015     NO 
 RMS     Force            0.000153     0.000010     NO 
 Maximum Displacement     0.001196     0.000060     NO 
 RMS     Displacement     0.000361     0.000040     NO 
 Predicted change in Energy=-5.893039D-07
 Lowest energy point so far.  Saving SCF results.
 GradGradGradGradGradGradGradGradGradGradGradGradGradGradGradGradGradGrad

 Leave Link  103 at Fri Jul  9 19:21:32 2021, MaxMem=  4194304000 cpu:        44.5
 (Enter /home/minenky/programs//g09/l202.exe)
                          Input orientation:                          
 ---------------------------------------------------------------------
 Center     Atomic      Atomic             Coordinates (Angstroms)
 Number     Number       Type             X           Y           Z
 ---------------------------------------------------------------------
      1          6           0        0.000000    0.000000    0.217474
      2          6           0        0.000000    0.000000    1.414454
      3          1           0        0.000000    0.000000    2.477757
      4          6           0        0.000000    0.000000   -1.237750
      5          1           0        0.000000    1.020450   -1.623411
      6          1           0        0.883736   -0.510225   -1.623411
      7          1           0       -0.883736   -0.510225   -1.623411
 ---------------------------------------------------------------------
                    Distance matrix (angstroms):
                    1          2          3          4          5
     1  C    0.000000
     2  C    1.196980   0.000000
     3  H    2.260283   1.063303   0.000000
     4  C    1.455224   2.652205   3.715507   0.000000
     5  H    2.104798   3.204675   4.226215   1.090896   0.000000
     6  H    2.104798   3.204675   4.226215   1.090896   1.767472
     7  H    2.104798   3.204675   4.226215   1.090896   1.767472
                    6          7
     6  H    0.000000
     7  H    1.767472   0.000000
 Stoichiometry    C3H4
 Framework group  C3V[C3(CCCH),3SGV(H)]
 Deg. of freedom     5
 Full point group                 C3V     NOp   6
 RotChk:  IX=0 Diff= 8.64D-16
 Largest Abelian subgroup         CS      NOp   2
 Largest concise Abelian subgroup CS      NOp   2
                         Standard orientation:                         
 ---------------------------------------------------------------------
 Center     Atomic      Atomic             Coordinates (Angstroms)
 Number     Number       Type             X           Y           Z
 ---------------------------------------------------------------------
      1          6           0        0.000000    0.000000    0.218720
      2          6           0        0.000000    0.000000    1.415700
      3          1           0        0.000000    0.000000    2.479003
      4          6           0        0.000000    0.000000   -1.236505
      5          1           0        0.000000    1.020450   -1.622165
      6          1           0        0.883736   -0.510225   -1.622165
      7          1           0       -0.883736   -0.510225   -1.622165
 ---------------------------------------------------------------------
 Rotational constants (GHZ):    160.5191775      8.6307749      8.6307749
 Leave Link  202 at Fri Jul  9 19:21:32 2021, MaxMem=  4194304000 cpu:         0.6
 (Enter /home/minenky/programs//g09/l301.exe)
 Standard basis: def2TZVP (5D, 7F)
 Ernie: Thresh=  0.10000D-02 Tol=  0.10000D-05 Strict=F.
 There are    91 symmetry adapted cartesian basis functions of A'  symmetry.
 There are    41 symmetry adapted cartesian basis functions of A"  symmetry.
 There are    79 symmetry adapted basis functions of A'  symmetry.
 There are    38 symmetry adapted basis functions of A"  symmetry.
   117 basis functions,   185 primitive gaussians,   132 cartesian basis functions
    11 alpha electrons       11 beta electrons
       nuclear repulsion energy        58.9376510176 Hartrees.
 IExCor= 4639 DFT=T Ex+Corr=wB97XD ExCW=0 ScaHFX=  1.000000
 ScaDFX=  1.000000  1.000000  1.000000  1.000000 ScalE2=  1.000000  1.000000
 IRadAn=      5 IRanWt=     -1 IRanGd=            0 ICorTp=0 IEmpDi=121
  HFx wShort=  0.000000 wLong=  0.200000 cFull=  0.222036 cShort=  0.000000 cLong=  0.777964
  DFx wShort=  0.000000 wLong=  0.200000 cFull=  0.000000 cShort=  0.000000 cLong=  1.000000
 NAtoms=    7 NActive=    7 NUniq=    5 SFac= 1.96D+00 NAtFMM=   60 NAOKFM=F Big=F
 Integral buffers will be    131072 words long.
 Raffenetti 2 integral format.
 Two-electron integral symmetry is turned on.
 R6Disp:  Grimme-D2 Dispersion energy=       -0.0010672712 Hartrees.
 Nuclear repulsion after empirical dispersion term =       58.9365837463 Hartrees.
 Leave Link  301 at Fri Jul  9 19:21:33 2021, MaxMem=  4194304000 cpu:         0.1
 (Enter /home/minenky/programs//g09/l302.exe)
 NPDir=0 NMtPBC=     1 NCelOv=     1 NCel=       1 NClECP=     1 NCelD=      1
         NCelK=      1 NCelE2=     1 NClLst=     1 CellRange=     0.0.
 One-electron integrals computed using PRISM.
 One-electron integral symmetry used in STVInt
   6 Symmetry operations used in ECPInt.
 ECPInt:  NShTT=    1225 NPrTT=    3648 LenC2=    1224 LenP2D=    3230.
 LDataN:  DoStor=T MaxTD1= 6 Len=  172
 NBasis=   117 RedAO= T EigKep=  3.19D-05  NBF=    79    38
 NBsUse=   117 1.00D-06 EigRej= -1.00D+00 NBFU=    79    38
 Precomputing XC quadrature grid using
 IXCGrd= 4 IRadAn=           5 IRanWt=          -1 IRanGd=           0 AccXCQ= 0.00D+00.
 Generated NRdTot=       0 NPtTot=           0 NUsed=           0 NTot=          32
 NSgBfM=   132   132   132   132   132 MxSgAt=     7 MxSgA2=     7.
 Leave Link  302 at Fri Jul  9 19:21:40 2021, MaxMem=  4194304000 cpu:        55.1
 (Enter /home/minenky/programs//g09/l303.exe)
 DipDrv:  MaxL=1.
 Leave Link  303 at Fri Jul  9 19:21:41 2021, MaxMem=  4194304000 cpu:         4.3
 (Enter /home/minenky/programs//g09/l401.exe)
 Initial guess from the checkpoint file:  "m1_00_74-99-70_C3H4_wB97XD.chk"
 B after Tr=     0.000000    0.000000    0.000000
         Rot=    1.000000    0.000000    0.000000    0.000000 Ang=   0.00 deg.
 Guess basis will be translated and rotated to current coordinates.
 JPrj=2 DoOrth=T DoCkMO=T.
 Initial guess orbital symmetries:
       Occupied  (A1) (A1) (A1) (A1) (A1) (A1) (A1) (E) (E) (E)
                 (E)
       Virtual   (?A) (?A) (?A) (?A) (?A) (?A) (?A) (?A) (?A) (?A)
                 (?A) (?A) (?A) (?A) (?A) (?A) (?A) (?A) (?A) (?A)
                 (?A) (?A) (?A) (?A) (?A) (?A) (?A) (?A) (?A) (?A)
                 (?A) (?A) (?A) (?A) (?A) (?A) (?A) (?A) (?A) (?A)
                 (?A) (?A) (?A) (?A) (?A) (?A) (?A) (?A) (?A) (?A)
                 (?A) (?A) (?A) (?A) (?A) (?A) (?A) (?A) (?A) (?A)
                 (?A) (?A) (?A) (?A) (?A) (?A) (?A) (?A) (?A) (?A)
                 (?A) (?A) (?A) (?A) (?A) (?A) (?A) (?A) (?A) (?A)
                 (?A) (?A) (?A) (?A) (?A) (?A) (?A) (?A) (?A) (?A)
                 (?A) (?A) (?A) (?A) (?A) (?A) (?A) (?A) (?A) (?A)
                 (?A) (?A) (?A) (?A) (?A) (?A)
 The electronic state of the initial guess is 1-A1.
 Leave Link  401 at Fri Jul  9 19:21:45 2021, MaxMem=  4194304000 cpu:        23.1
 (Enter /home/minenky/programs//g09/l502.exe)
 Closed shell SCF:
 Using DIIS extrapolation, IDIIS=  1040.
 Integral symmetry usage will be decided dynamically.
 Keep R1 ints in memory in symmetry-blocked form, NReq=72113940.
 IVT=      203548 IEndB=      203548 NGot=  4194304000 MDV=  4181966844
 LenX=  4181966844 LenY=  4181948979
 Requested convergence on RMS density matrix=1.00D-08 within 380 cycles.
 Requested convergence on MAX density matrix=1.00D-06.
 Requested convergence on             energy=1.00D-06.
 No special actions if energy rises.
 FoFCou: FMM=F IPFlag=           0 FMFlag=           0 FMFlg1=           0
         NFxFlg=           0 DoJE=F BraDBF=F KetDBF=F FulRan=T
         wScrn=  0.000000 ICntrl=     600 IOpCl=  0 I1Cent=           0 NGrid=           0
         NMat0=    1 NMatS0=   6903 NMatT0=    0 NMatD0=    1 NMtDS0=    0 NMtDT0=    0
 Petite list used in FoFCou.

 Cycle   1  Pass 1  IDiag  1:
 E= -116.654909631665    
 DIIS: error= 6.62D-05 at cycle   1 NSaved=   1.
 NSaved= 1 IEnMin= 1 EnMin= -116.654909631665     IErMin= 1 ErrMin= 6.62D-05
 ErrMax= 6.62D-05  0.00D+00 EMaxC= 1.00D-01 BMatC= 3.41D-07 BMatP= 3.41D-07
 IDIUse=1 WtCom= 1.00D+00 WtEn= 0.00D+00
 Coeff-Com:  0.100D+01
 Coeff:      0.100D+01
 Gap=     0.946 Goal=   None    Shift=    0.000
 RMSDP=7.12D-06 MaxDP=2.04D-04              OVMax= 1.19D-04

 Cycle   2  Pass 1  IDiag  1:
 E= -116.654909832971     Delta-E=       -0.000000201306 Rises=F Damp=F
 DIIS: error= 1.31D-05 at cycle   2 NSaved=   2.
 NSaved= 2 IEnMin= 2 EnMin= -116.654909832971     IErMin= 2 ErrMin= 1.31D-05
 ErrMax= 1.31D-05  0.00D+00 EMaxC= 1.00D-01 BMatC= 1.88D-08 BMatP= 3.41D-07
 IDIUse=1 WtCom= 1.00D+00 WtEn= 0.00D+00
 Coeff-Com:  0.505D-01 0.950D+00
 Coeff:      0.505D-01 0.950D+00
 Gap=     0.470 Goal=   None    Shift=    0.000
 RMSDP=1.67D-06 MaxDP=3.40D-05 DE=-2.01D-07 OVMax= 8.00D-05

 Cycle   3  Pass 1  IDiag  1:
[...]
                                                                                                           X                         
                                                                                                           X                         
 
 ***** Axes restored to original set *****
 -------------------------------------------------------------------
 Center     Atomic                   Forces (Hartrees/Bohr)
 Number     Number              X              Y              Z
 -------------------------------------------------------------------
      1        6           0.000000000    0.000000000    0.000001390
      2        6           0.000000000    0.000000000    0.000000749
      3        1           0.000000000    0.000000000   -0.000001164
      4        6           0.000000000    0.000000000   -0.000000478
      5        1           0.000000000   -0.000000075   -0.000000166
      6        1          -0.000000065    0.000000038   -0.000000166
      7        1           0.000000065    0.000000038   -0.000000166
 -------------------------------------------------------------------
 Cartesian Forces:  Max     0.000001390 RMS     0.000000446
 Force constants in Cartesian coordinates: 
                1             2             3             4             5 
      1  0.967590D-01
      2  0.000000D+00  0.967854D-01
      3  0.000000D+00 -0.245613D-04  0.146814D+01
      4 -0.367444D-01  0.000000D+00  0.000000D+00  0.512972D-01
      5  0.000000D+00 -0.367460D-01  0.122710D-05  0.000000D+00  0.512974D-01
      6  0.000000D+00  0.000000D+00 -0.112598D+01  0.000000D+00  0.000000D+00
      7  0.257363D-02  0.000000D+00  0.000000D+00 -0.227635D-01  0.000000D+00
      8  0.000000D+00  0.257245D-02  0.154032D-05  0.000000D+00 -0.227635D-01
      9  0.000000D+00  0.000000D+00  0.474175D-02  0.000000D+00  0.000000D+00
     10 -0.669664D-01  0.000000D+00  0.000000D+00  0.737343D-02  0.000000D+00
     11  0.000000D+00 -0.669714D-01 -0.537411D-05  0.000000D+00  0.737344D-02
     12  0.000000D+00  0.277632D-04 -0.291380D+00  0.000000D+00 -0.227913D-05
     13 -0.185277D-02  0.000000D+00  0.000000D+00  0.724504D-03  0.000000D+00
     14  0.000000D+00  0.477993D-02  0.280857D-02  0.000000D+00 -0.166487D-03
     15  0.000000D+00  0.334937D-01 -0.184986D-01  0.000000D+00 -0.156033D-02
     16  0.311863D-02 -0.287204D-02  0.242914D-02  0.563313D-04  0.385775D-03
     17 -0.287421D-02 -0.202387D-03 -0.139749D-02  0.385905D-03  0.502167D-03
     18  0.290105D-01 -0.167475D-01 -0.185066D-01 -0.135161D-02  0.780238D-03
     19  0.311862D-02  0.287204D-02 -0.242914D-02  0.563314D-04 -0.385775D-03
     20  0.287421D-02 -0.202386D-03 -0.139749D-02 -0.385905D-03  0.502167D-03
     21 -0.290105D-01 -0.167475D-01 -0.185066D-01  0.135161D-02  0.780238D-03
                6             7             8             9            10 
      6  0.155361D+01
      7  0.000000D+00  0.147492D-01
      8  0.000000D+00  0.000000D+00  0.147493D-01
      9 -0.419219D+00  0.000000D+00  0.000000D+00  0.413477D+00
     10  0.000000D+00  0.547268D-02  0.000000D+00  0.000000D+00  0.549596D+00
     11  0.270910D-05  0.000000D+00  0.547278D-02  0.000000D+00  0.000000D+00
     12 -0.522584D-02  0.000000D+00 -0.137244D-05  0.861957D-03  0.000000D+00
     13  0.000000D+00  0.120292D-03  0.000000D+00  0.000000D+00 -0.449034D-01
     14 -0.180064D-02  0.000000D+00 -0.141808D-03  0.374906D-04  0.000000D+00
     15 -0.106269D-02  0.000000D+00 -0.122644D-02  0.460127D-04  0.000000D+00
     16 -0.155867D-02 -0.762168D-04  0.113437D-03  0.324378D-04 -0.225296D+00
     17  0.899689D-03  0.113465D-03  0.550770D-04 -0.187465D-04  0.104167D+00
     18 -0.106371D-02 -0.106224D-02  0.613248D-03  0.460307D-04  0.754921D-01
     19  0.155867D-02 -0.762168D-04 -0.113437D-03 -0.324378D-04 -0.225296D+00
     20  0.899689D-03 -0.113465D-03  0.550770D-04 -0.187465D-04 -0.104167D+00
     21 -0.106371D-02  0.106224D-02  0.613248D-03  0.460307D-04 -0.754920D-01
               11            12            13            14            15 
     11  0.549608D+00
     12  0.000000D+00  0.524281D+00
     13  0.000000D+00  0.000000D+00  0.441612D-01
     14 -0.285441D+00  0.861330D-01  0.000000D+00  0.306881D+00
     15  0.871740D-01 -0.761947D-01  0.000000D+00 -0.958890D-01  0.877352D-01
     16  0.104161D+00  0.745993D-01  0.870034D-03 -0.105376D-02 -0.132572D-02
     17 -0.105029D+00 -0.430726D-01  0.249927D-01 -0.129511D-01 -0.109996D-01
     18 -0.435864D-01 -0.761829D-01 -0.101888D-01  0.435167D-02  0.398739D-02
     19 -0.104161D+00 -0.745992D-01  0.870034D-03  0.105376D-02  0.132572D-02
     20 -0.105029D+00 -0.430726D-01 -0.249927D-01 -0.129511D-01 -0.109996D-01
     21 -0.435864D-01 -0.761829D-01  0.101888D-01  0.435168D-02  0.398739D-02
               16            17            18            19            20 
     16  0.241201D+00
     17 -0.113761D+00  0.109841D+00
     18 -0.830423D-01  0.479445D-01  0.877352D-01
     19 -0.198617D-01 -0.130232D-01 -0.886304D-02  0.241201D+00
     20  0.130232D-01  0.778060D-02  0.664788D-02  0.113761D+00  0.109841D+00
     21  0.886304D-02  0.664788D-02  0.398739D-02  0.830423D-01  0.479445D-01
               21 
     21  0.877352D-01
 FormGI is forming the generalized inverse of G from B-inverse, IUseBI=4.
 Force constants in internal coordinates: 
                1             2             3             4             5 
      1  0.112865D+01
      2  0.741191D-02  0.354311D+00
      3 -0.574209D-02 -0.100263D-02  0.413477D+00
      4 -0.128859D-02  0.787609D-02  0.197540D-04  0.342909D+00
      5 -0.128741D-02  0.787341D-02  0.195131D-04  0.249079D-02  0.342909D+00
      6 -0.128741D-02  0.787341D-02  0.195131D-04  0.249079D-02  0.249252D-02
      7  0.915883D-03  0.104026D-01 -0.331342D-04  0.987348D-02 -0.627746D-02
      8  0.917140D-03  0.104255D-01 -0.325650D-04 -0.627848D-02  0.987442D-02
      9  0.917140D-03  0.104255D-01 -0.325650D-04 -0.627848D-02 -0.628016D-02
     10 -0.229118D-03 -0.261302D-02  0.839724D-05  0.488584D-02  0.488668D-02
     11 -0.131958D-02 -0.150091D-01  0.474472D-04  0.788470D-02 -0.997001D-02
     12 -0.132207D-02 -0.150019D-01  0.467289D-04 -0.996938D-02  0.788418D-02
     13 -0.189035D-05 -0.474149D-04  0.000000D+00 -0.218503D-02  0.109833D-02
     14  0.000000D+00 -0.152651D-04  0.000000D+00 -0.605658D-03  0.304612D-03
     15  0.000000D+00  0.000000D+00  0.000000D+00  0.000000D+00 -0.919315D-03
     16  0.000000D+00  0.000000D+00  0.000000D+00  0.000000D+00  0.167446D-03
     17 -0.169272D-02 -0.192425D-01  0.606173D-04  0.465514D-02  0.465552D-02
                6             7             8             9            10 
      6  0.342909D+00
      7 -0.827720D-02  0.110950D+00
      8 -0.827991D-02 -0.427979D-01  0.110950D+00
      9  0.787468D-02 -0.427047D-01 -0.427048D-01  0.111136D+00
     10 -0.859836D-02  0.519865D-02  0.519856D-02  0.582750D-02  0.495046D-01
     11  0.883157D-02 -0.162975D-01 -0.154648D-01 -0.163417D-01 -0.332203D-01
     12  0.882997D-02 -0.154644D-01 -0.162969D-01 -0.163410D-01 -0.332205D-01
     13  0.109833D-02 -0.158706D-01  0.819071D-02  0.819071D-02  0.114927D-02
     14  0.304612D-03 -0.476432D-02  0.241136D-02  0.241136D-02  0.131549D-03
     15  0.919315D-03  0.142698D-03 -0.659769D-02  0.688309D-02  0.962263D-03
     16 -0.167446D-03 -0.106671D-04  0.130956D-02 -0.133089D-02 -0.719319D-04
     17 -0.661060D-03 -0.109481D-01 -0.109480D-01 -0.107001D-01  0.227756D-01
               11            12            13            14            15 
     11  0.106200D+00
     12 -0.227663D-01  0.106199D+00
     13  0.144134D-02 -0.312381D-02  0.912895D-01
     14  0.165004D-03 -0.357518D-03  0.229959D-01  0.595083D-01
     15 -0.134164D-02 -0.674893D-04  0.000000D+00  0.000000D+00  0.214461D-01
     16  0.100291D-03  0.504502D-05  0.000000D+00  0.000000D+00 -0.354731D-02
     17  0.562557D-02  0.562442D-02  0.453379D-03  0.519319D-04  0.379380D-03
               16            17 
     16  0.603418D-02
     17 -0.283597D-04  0.329857D-01
 Leave Link  716 at Fri Jul  9 19:24:10 2021, MaxMem=  4194304000 cpu:        10.9
 (Enter /home/minenky/programs//g09/l103.exe)

 GradGradGradGradGradGradGradGradGradGradGradGradGradGradGradGradGradGrad
 Berny optimization.
 Red2BG is reusing G-inverse.
 Internal  Forces:  Max     0.000001164 RMS     0.000000391
 Search for a local minimum.
 Step number   1 out of a maximum of    2
 All quantities printed in internal units (Hartrees-Bohrs-Radians)
 Second derivative matrix not updated -- analytic derivatives used.
 The second derivative matrix:
                          R1        R2        R3        R4        R5
           R1           1.12865
           R2           0.00741   0.35431
           R3          -0.00574  -0.00100   0.41348
           R4          -0.00129   0.00788   0.00002   0.34291
           R5          -0.00129   0.00787   0.00002   0.00249   0.34291
           R6          -0.00129   0.00787   0.00002   0.00249   0.00249
           A1           0.00092   0.01040  -0.00003   0.00987  -0.00628
           A2           0.00092   0.01043  -0.00003  -0.00628   0.00987
           A3           0.00092   0.01043  -0.00003  -0.00628  -0.00628
           A4          -0.00023  -0.00261   0.00001   0.00489   0.00489
           A5          -0.00132  -0.01501   0.00005   0.00788  -0.00997
           A6          -0.00132  -0.01500   0.00005  -0.00997   0.00788
           A7           0.00000  -0.00005   0.00000  -0.00219   0.00110
           A8           0.00000  -0.00002   0.00000  -0.00061   0.00030
           A9           0.00000   0.00000   0.00000   0.00000  -0.00092
           A10          0.00000   0.00000   0.00000   0.00000   0.00017
           D1          -0.00169  -0.01924   0.00006   0.00466   0.00466
                          R6        A1        A2        A3        A4
           R6           0.34291
           A1          -0.00828   0.11095
           A2          -0.00828  -0.04280   0.11095
           A3           0.00787  -0.04270  -0.04270   0.11114
           A4          -0.00860   0.00520   0.00520   0.00583   0.04950
           A5           0.00883  -0.01630  -0.01546  -0.01634  -0.03322
           A6           0.00883  -0.01546  -0.01630  -0.01634  -0.03322
           A7           0.00110  -0.01587   0.00819   0.00819   0.00115
           A8           0.00030  -0.00476   0.00241   0.00241   0.00013
           A9           0.00092   0.00014  -0.00660   0.00688   0.00096
           A10         -0.00017  -0.00001   0.00131  -0.00133  -0.00007
           D1          -0.00066  -0.01095  -0.01095  -0.01070   0.02278
                          A5        A6        A7        A8        A9
           A5           0.10620
           A6          -0.02277   0.10620
           A7           0.00144  -0.00312   0.09129
           A8           0.00017  -0.00036   0.02300   0.05951
           A9          -0.00134  -0.00007   0.00000   0.00000   0.02145
           A10          0.00010   0.00001   0.00000   0.00000  -0.00355
           D1           0.00563   0.00562   0.00045   0.00005   0.00038
                          A10       D1
           A10          0.00603
           D1          -0.00003   0.03299
 ITU=  0
     Eigenvalues ---    0.00526   0.02148   0.04726   0.05865   0.09608
     Eigenvalues ---    0.12663   0.12737   0.15326   0.15985   0.33983
     Eigenvalues ---    0.34323   0.34334   0.36690   0.41345   1.12879
 Angle between quadratic step and forces=  32.53 degrees.
 Linear search not attempted -- first point.
 Iteration  1 RMS(Cart)=  0.00000117 RMS(Int)=  0.00000000
 Iteration  2 RMS(Cart)=  0.00000000 RMS(Int)=  0.00000000
 ITry= 1 IFail=0 DXMaxC= 2.75D-06 DCOld= 1.00D+10 DXMaxT= 3.00D-01 DXLimC= 3.00D+00 Rises=F
 ClnCor:  largest displacement from symmetrization is 3.31D-09 for atom     6.
 Variable       Old X    -DE/DX   Delta X   Delta X   Delta X     New X
                                 (Linear)    (Quad)   (Total)
    R1        2.26207   0.00000   0.00000   0.00000   0.00000   2.26207
    R2        2.75034   0.00000   0.00000   0.00000   0.00000   2.75034
    R3        2.00931   0.00000   0.00000   0.00000   0.00000   2.00931
    R4        2.06146   0.00000   0.00000   0.00000   0.00000   2.06146
    R5        2.06146   0.00000   0.00000   0.00000   0.00000   2.06146
    R6        2.06146   0.00000   0.00000   0.00000   0.00000   2.06146
    A1        1.93186   0.00000   0.00000   0.00000   0.00000   1.93186
    A2        1.93186   0.00000   0.00000   0.00000   0.00000   1.93186
    A3        1.93186   0.00000   0.00000   0.00000   0.00000   1.93186
    A4        1.88894   0.00000   0.00000   0.00000   0.00000   1.88894
    A5        1.88894   0.00000   0.00000   0.00000   0.00000   1.88894
    A6        1.88894   0.00000   0.00000   0.00000   0.00000   1.88894
    A7        3.14159   0.00000   0.00000   0.00000   0.00000   3.14159
    A8        3.14159   0.00000   0.00000   0.00000   0.00000   3.14159
    A9        3.14159   0.00000   0.00000   0.00000   0.00000   3.14159
   A10        3.14159   0.00000   0.00000   0.00000   0.00000   3.14159
    D1        2.04338   0.00000   0.00000   0.00000   0.00000   2.04338
         Item               Value     Threshold  Converged?
 Maximum Force            0.000001     0.000015     YES
 RMS     Force            0.000000     0.000010     YES
 Maximum Displacement     0.000003     0.000060     YES
 RMS     Displacement     0.000001     0.000040     YES
 Predicted change in Energy=-3.484251D-12
 Optimization completed.
    -- Stationary point found.
                           ----------------------------
                           !   Optimized Parameters   !
                           ! (Angstroms and Degrees)  !
 --------------------------                            --------------------------
 ! Name  Definition              Value          Derivative Info.                !
 --------------------------------------------------------------------------------
 ! R1    R(1,2)                  1.197          -DE/DX =    0.0                 !
 ! R2    R(1,4)                  1.4554         -DE/DX =    0.0                 !
 ! R3    R(2,3)                  1.0633         -DE/DX =    0.0                 !
 ! R4    R(4,5)                  1.0909         -DE/DX =    0.0                 !
 ! R5    R(4,6)                  1.0909         -DE/DX =    0.0                 !
 ! R6    R(4,7)                  1.0909         -DE/DX =    0.0                 !
 ! A1    A(1,4,5)              110.6873         -DE/DX =    0.0                 !
 ! A2    A(1,4,6)              110.6873         -DE/DX =    0.0                 !
 ! A3    A(1,4,7)              110.6873         -DE/DX =    0.0                 !
 ! A4    A(5,4,6)              108.2282         -DE/DX =    0.0                 !
 ! A5    A(5,4,7)              108.2282         -DE/DX =    0.0                 !
 ! A6    A(6,4,7)              108.2282         -DE/DX =    0.0                 !
 ! A7    L(2,1,4,5,-1)         180.0            -DE/DX =    0.0                 !
 ! A8    L(1,2,3,5,-1)         180.0            -DE/DX =    0.0                 !
 ! A9    L(2,1,4,5,-2)         180.0            -DE/DX =    0.0                 !
 ! A10   L(1,2,3,5,-2)         180.0            -DE/DX =    0.0                 !
 ! D1    D(5,4,7,6)            117.0769         -DE/DX =    0.0                 !
 --------------------------------------------------------------------------------
 GradGradGradGradGradGradGradGradGradGradGradGradGradGradGradGradGradGrad

 Leave Link  103 at Fri Jul  9 19:24:13 2021, MaxMem=  4194304000 cpu:        26.5
 (Enter /home/minenky/programs//g09/l9999.exe)
 1\1\GINC-CN514-06-R\Freq\RwB97XD\def2TZVP\C3H4\MINENKY\09-Jul-2021\0\\
 #P Geom=AllCheck Guess=TCheck SCRF=Check GenChk RwB97XD/def2TZVP Freq\
 \The PBEPBE optimization and frequencies\\0,1\C,0.,0.,0.2174464699\C,0
 .,0.,1.4144836607\H,0.,0.,2.4777635728\C,0.,0.,-1.2379690217\H,-0.0000
 000207,1.0205403394,-1.6233410119\H,0.8838138699,-0.5102701518,-1.6233
 410119\H,-0.8838138492,-0.5102701876,-1.6233410119\\Version=AM64L-G09R
 evD.01\State=1-A1\HF=-116.6549099\RMSD=7.519e-10\RMSF=4.460e-07\ZeroPo
 int=0.0560984\Thermal=0.0599905\Dipole=0.,0.,-0.3221067\DipoleDeriv=-0
 .1664784,0.,0.,0.,-0.1665796,-0.0001927,0.,0.0001032,0.3307053,-0.2669
 301,0.,0.,0.,-0.2669152,0.0000086,0.,0.0000077,-0.5408914,0.228265,0.,
 0.,0.,0.2282655,0.0000116,0.,0.0000004,0.2031241,0.1257363,0.,0.,0.,0.
 1254631,0.0000792,0.,-0.0001073,0.0623443,0.1001187,0.,0.,0.,-0.046973
 ,0.0667483,0.,0.024541,-0.0182937,-0.0102779,0.0636782,0.0578619,0.063
 6665,0.0633577,-0.0333508,0.0213262,-0.0122715,-0.018394,-0.0102779,-0
 .0636782,-0.0578619,-0.0636665,0.0633577,-0.0333508,-0.0213262,-0.0122
 715,-0.018394\Polar=24.9333147,0.,24.9345054,0.,-0.0015046,48.9695569\
 PG=C03V [C3(C1C1C1H1),3SGV(H1)]\NImag=0\\0.09675901,0.,0.09678537,0.,-
 0.00002456,1.46814290,-0.03674444,0.,0.,0.05129717,0.,-0.03674601,0.00
 000123,0.,0.05129736,0.,-0.00000067,-1.12597660,0.,0.00000076,1.553613
 29,0.00257363,0.,0.,-0.02276347,0.,0.,0.01474918,0.,0.00257245,0.00000
 154,0.,-0.02276345,-0.00000028,0.,0.01474926,0.,0.00000006,0.00474175,
 0.,0.,-0.41921869,0.,0.,0.41347688,-0.06696642,0.,0.,0.00737343,0.,0.,
 0.00547268,0.,0.,0.54959566,0.,-0.06697139,-0.00000537,0.,0.00737344,0
 .00000271,0.,0.00547278,-0.00000005,0.,0.54960776,0.,0.00002776,-0.291
 38026,0.,-0.00000228,-0.00522584,0.,-0.00000137,0.00086196,0.,0.000000
 28,0.52428093,-0.00185277,0.,0.,0.00072450,0.,0.,0.00012029,0.,0.,-0.0
 4490344,0.,0.,0.04416125,0.,0.00477993,0.00280857,0.,-0.00016649,-0.00
 180064,0.,-0.00014181,0.00003749,0.,-0.28544072,0.08613304,0.,0.306881
 36,0.,0.03349372,-0.01849855,0.,-0.00156033,-0.00106269,0.,-0.00122644
 ,0.00004601,0.,0.08717399,-0.07619473,0.,-0.09588900,0.08773518,0.0031
 1863,-0.00287204,0.00242914,0.00005633,0.00038577,-0.00155867,-0.00007
 622,0.00011344,0.00003244,-0.22529618,0.10416148,0.07459925,0.00087003
 ,-0.00105376,-0.00132572,0.24120133,-0.00287421,-0.00020239,-0.0013974
 9,0.00038591,0.00050217,0.00089969,0.00011347,0.00005508,-0.00001875,0
 .10416661,-0.10502934,-0.04307262,0.02499265,-0.01295109,-0.01099956,-
 0.11376114,0.10984127,0.02901051,-0.01674751,-0.01850659,-0.00135161,0
 .00078024,-0.00106371,-0.00106224,0.00061325,0.00004603,0.07549205,-0.
 04358638,-0.07618288,-0.01018876,0.00435167,0.00398739,-0.08304231,0.0
 4794450,0.08773518,0.00311862,0.00287204,-0.00242914,0.00005633,-0.000
 38577,0.00155867,-0.00007622,-0.00011344,-0.00003244,-0.22529617,-0.10
 416148,-0.07459925,0.00087003,0.00105376,0.00132572,-0.01986165,-0.013
 02321,-0.00886304,0.24120132,0.00287421,-0.00020239,-0.00139749,-0.000
 38591,0.00050217,0.00089969,-0.00011347,0.00005508,-0.00001875,-0.1041
 6661,-0.10502935,-0.04307262,-0.02499265,-0.01295109,-0.01099956,0.013
 02321,0.00778060,0.00664788,0.11376115,0.10984128,-0.02901051,-0.01674
 751,-0.01850659,0.00135161,0.00078024,-0.00106371,0.00106224,0.0006132
 5,0.00004603,-0.07549205,-0.04358639,-0.07618288,0.01018876,0.00435168
 ,0.00398739,0.00886304,0.00664788,0.00398739,0.08304231,0.04794450,0.0
 8773518\\0.,0.,-0.00000139,0.,0.,-0.00000075,0.,0.,0.00000116,0.,0.,0.
 00000048,0.,0.00000008,0.00000017,0.00000007,-0.00000004,0.00000017,-0
 .00000007,-0.00000004,0.00000017\\\@


 BUT 'GLORY' DOESN'T MEAN 'A NICE KNOCK DOWN ARGUMENT', ALICE OBJECTED.
 WHEN I USE A WORD, HUMPTY DUMPTY SAID, IN A RATHER SCORNFUL TONE,
 IT MEANS JUST WHAT I CHOOSE IT TO MEAN....
 NEITHER MORE NOR LESS....
 THE QUESTION IS, SAID ALICE,
 WHETHER YOU CAN MAKE WORDS MEAN SO MANY DIFFERENT THINGS...
 THE QUESTION IS, SAID HUMPTY DUMPTY,
 WHICH IS TO BE MASTER....
 THAT IS ALL.....

 ALICE THROUGH THE LOOKING GLASS
 Job cpu time:       0 days  0 hours 12 minutes  3.8 seconds.
 File lengths (MBytes):  RWF=     12 Int=      0 D2E=      0 Chk=      2 Scr=      1
 Normal termination of Gaussian 09 at Fri Jul  9 19:24:13 2021.
