 Entering Gaussian System, Link 0=g09
 Initial command:
 /home/minenky/programs//g09/l1.exe "/local/scratch/minenky/m1_00_120835-98-5-C32H16_wB97XD/Gau-22013.inp" -scrdir="/local/scratch/minenky/m1_00_120835-98-5-C32H16_wB97XD/"
 Entering Link 1 = /home/minenky/programs//g09/l1.exe PID=     22014.
  
 Copyright (c) 1988,1990,1992,1993,1995,1998,2003,2009,2013,
            Gaussian, Inc.  All Rights Reserved.
  
 This is part of the Gaussian(R) 09 program.  It is based on
 the Gaussian(R) 03 system (copyright 2003, Gaussian, Inc.),
 the Gaussian(R) 98 system (copyright 1998, Gaussian, Inc.),
 the Gaussian(R) 94 system (copyright 1995, Gaussian, Inc.),
 the Gaussian 92(TM) system (copyright 1992, Gaussian, Inc.),
 the Gaussian 90(TM) system (copyright 1990, Gaussian, Inc.),
 the Gaussian 88(TM) system (copyright 1988, Gaussian, Inc.),
 the Gaussian 86(TM) system (copyright 1986, Carnegie Mellon
 University), and the Gaussian 82(TM) system (copyright 1983,
 Carnegie Mellon University). Gaussian is a federally registered
 trademark of Gaussian, Inc.
  
 This software contains proprietary and confidential information,
 including trade secrets, belonging to Gaussian, Inc.
  
 This software is provided under written license and may be
 used, copied, transmitted, or stored only in accord with that
 written license.
  
 The following legend is applicable only to US Government
 contracts under FAR:
  
                    RESTRICTED RIGHTS LEGEND
  
 Use, reproduction and disclosure by the US Government is
 subject to restrictions as set forth in subparagraphs (a)
 and (c) of the Commercial Computer Software - Restricted
 Rights clause in FAR 52.227-19.
  
 Gaussian, Inc.
 340 Quinnipiac St., Bldg. 40, Wallingford CT 06492
  
  
 ---------------------------------------------------------------
 Warning -- This program may not be used in any manner that
 competes with the business of Gaussian, Inc. or will provide
 assistance to any competitor of Gaussian, Inc.  The licensee
 of this program is prohibited from giving any competitor of
 Gaussian, Inc. access to this program.  By using this program,
 the user acknowledges that Gaussian, Inc. is engaged in the
 business of creating and licensing software in the field of
 computational chemistry and represents and warrants to the
 licensee that it is not a competitor of Gaussian, Inc. and that
 it will not use this program in any manner prohibited above.
 ---------------------------------------------------------------
  

 Cite this work as:
 Gaussian 09, Revision D.01,
 M. J. Frisch, G. W. Trucks, H. B. Schlegel, G. E. Scuseria, 
 M. A. Robb, J. R. Cheeseman, G. Scalmani, V. Barone, B. Mennucci, 
 G. A. Petersson, H. Nakatsuji, M. Caricato, X. Li, H. P. Hratchian, 
 A. F. Izmaylov, J. Bloino, G. Zheng, J. L. Sonnenberg, M. Hada, 
 M. Ehara, K. Toyota, R. Fukuda, J. Hasegawa, M. Ishida, T. Nakajima, 
 Y. Honda, O. Kitao, H. Nakai, T. Vreven, J. A. Montgomery, Jr., 
 J. E. Peralta, F. Ogliaro, M. Bearpark, J. J. Heyd, E. Brothers, 
 K. N. Kudin, V. N. Staroverov, T. Keith, R. Kobayashi, J. Normand, 
 K. Raghavachari, A. Rendell, J. C. Burant, S. S. Iyengar, J. Tomasi, 
 M. Cossi, N. Rega, J. M. Millam, M. Klene, J. E. Knox, J. B. Cross, 
 V. Bakken, C. Adamo, J. Jaramillo, R. Gomperts, R. E. Stratmann, 
 O. Yazyev, A. J. Austin, R. Cammi, C. Pomelli, J. W. Ochterski, 
 R. L. Martin, K. Morokuma, V. G. Zakrzewski, G. A. Voth, 
 P. Salvador, J. J. Dannenberg, S. Dapprich, A. D. Daniels, 
 O. Farkas, J. B. Foresman, J. V. Ortiz, J. Cioslowski, 
 and D. J. Fox, Gaussian, Inc., Wallingford CT, 2013.
 
 ******************************************
 Gaussian 09:  AM64L-G09RevD.01 24-Apr-2013
                27-Jul-2019 
 ******************************************
 %Mem=32000MB
 %NProcShared=16
 Will use up to   16 processors via shared memory.
 %Chk=m1_00_120835-98-5-C32H16_wB97XD
 ----------------------------------------------------------------------
 #P wB97XD/def2tzvp opt=(tight) freq integral(Grid=ultrafine) # SCF(Max
 Cycle=380) 5d 7f GFPrint
 ----------------------------------------------------------------------
 1/7=10,14=-1,18=20,19=15,26=4,38=1/1,3;
 2/9=110,12=2,17=6,18=5,40=1/2;
 3/5=44,7=101,8=11,11=2,16=1,24=100,25=1,30=1,71=1,74=-58,75=-5/1,2,3;
 4//1;
 5/5=2,7=380,38=5/2;
 6/7=2,8=2,9=2,10=2,28=1/1;
 7//1,2,3,16;
 1/7=10,14=-1,18=20,19=15,26=4/3(2);
 2/9=110/2;
 99//99;
 2/9=110/2;
 3/5=44,7=101,8=11,11=2,16=1,25=1,30=1,71=1,74=-58,75=-5/1,2,3;
 4/5=5,16=3,69=1/1;
 5/5=2,7=380,38=5/2;
 7//1,2,3,16;
 1/7=10,14=-1,18=20,19=15,26=4/3(-5);
 2/9=110/2;
 6/7=2,8=2,9=2,10=2,19=2,28=1/1;
 99/9=1/99;
 Leave Link    1 at Sat Jul 27 12:19:09 2019, MaxMem=  4194304000 cpu:         1.4
 (Enter /home/minenky/programs//g09/l101.exe)
 ---------------------------------------
 The PBEPBE optimization and frequencies
 ---------------------------------------
 Symbolic Z-matrix:
 Charge =  0 Multiplicity = 1
 C                     0.08984   2.50464   0. 
 C                     0.38401   3.85663   0. 
 C                    -0.63901   4.81931   0. 
 C                    -1.9561    4.43128   0. 
 C                    -1.27031   2.08512   0. 
 C                    -2.29133   3.05654   0. 
 C                    -3.6544    2.63792   0. 
 C                    -3.9705    1.31365   0. 
 C                    -2.95543   0.31253   0. 
 C                    -1.61763   0.69624   0. 
 C                    -2.29203  -2.06762   0. 
 C                    -3.30545  -1.09321   0. 
 C                    -4.65408  -1.5063    0. 
 C                    -4.98507  -2.84329   0. 
 C                    -3.97472  -3.81469   0. 
 C                    -2.65172  -3.43118   0. 
 C                     1.15202   1.50113   0. 
 C                     2.47013   1.86475   0. 
 C                     0.78514   0.10574   0. 
 C                    -0.5715   -0.29669   0. 
 C                    -0.89845  -1.66471   0. 
 C                     0.12797  -2.62594   0. 
 C                     3.51714   0.88936   0. 
 C                     5.53088  -1.06388   0. 
 C                     5.85971   0.29159   0. 
 C                     4.87092   1.26123   0. 
 C                     4.19571  -1.46256   0. 
 C                     3.17605  -0.48011   0. 
 C                     1.79945  -0.86906   0. 
 C                     1.46131  -2.24866   0. 
 C                     2.52204  -3.2289    0. 
 C                     3.82021  -2.85642   0. 
 H                     1.43711   4.17803   0. 
 H                    -0.37302   5.8815    0. 
 H                    -2.75968   5.17637   0. 
 H                    -4.4397    3.40249   0. 
 H                    -5.02143   0.98608   0. 
 H                    -5.44171  -0.73749   0. 
 H                    -6.03536  -3.15233   0. 
 H                    -4.2421   -4.87634   0. 
 H                    -1.85228  -4.18779   0. 
 H                     2.74255   2.93279   0. 
 H                    -0.14406  -3.69371   0. 
 H                     6.32506  -1.81899   0. 
 H                     6.91358   0.58974   0. 
 H                     5.13878   2.32377   0. 
 H                     2.23872  -4.28779   0. 
 H                     4.62293  -3.60276   0. 
 
 NAtoms=     48 NQM=       48 NQMF=       0 NMMI=      0 NMMIF=      0
                NMic=       0 NMicF=      0.
                    Isotopes and Nuclear Properties:
 (Nuclear quadrupole moments (NQMom) in fm**2, nuclear magnetic moments (NMagM)
  in nuclear magnetons)

  Atom         1           2           3           4           5           6           7           8           9          10
 IAtWgt=          12          12          12          12          12          12          12          12          12          12
 AtmWgt=  12.0000000  12.0000000  12.0000000  12.0000000  12.0000000  12.0000000  12.0000000  12.0000000  12.0000000  12.0000000
 NucSpn=           0           0           0           0           0           0           0           0           0           0
 AtZEff=   0.0000000   0.0000000   0.0000000   0.0000000   0.0000000   0.0000000   0.0000000   0.0000000   0.0000000   0.0000000
 NQMom=    0.0000000   0.0000000   0.0000000   0.0000000   0.0000000   0.0000000   0.0000000   0.0000000   0.0000000   0.0000000
 NMagM=    0.0000000   0.0000000   0.0000000   0.0000000   0.0000000   0.0000000   0.0000000   0.0000000   0.0000000   0.0000000
 AtZNuc=   6.0000000   6.0000000   6.0000000   6.0000000   6.0000000   6.0000000   6.0000000   6.0000000   6.0000000   6.0000000

  Atom        11          12          13          14          15          16          17          18          19          20
 IAtWgt=          12          12          12          12          12          12          12          12          12          12
 AtmWgt=  12.0000000  12.0000000  12.0000000  12.0000000  12.0000000  12.0000000  12.0000000  12.0000000  12.0000000  12.0000000
 NucSpn=           0           0           0           0           0           0           0           0           0           0
 AtZEff=   0.0000000   0.0000000   0.0000000   0.0000000   0.0000000   0.0000000   0.0000000   0.0000000   0.0000000   0.0000000
 NQMom=    0.0000000   0.0000000   0.0000000   0.0000000   0.0000000   0.0000000   0.0000000   0.0000000   0.0000000   0.0000000
 NMagM=    0.0000000   0.0000000   0.0000000   0.0000000   0.0000000   0.0000000   0.0000000   0.0000000   0.0000000   0.0000000
 AtZNuc=   6.0000000   6.0000000   6.0000000   6.0000000   6.0000000   6.0000000   6.0000000   6.0000000   6.0000000   6.0000000

  Atom        21          22          23          24          25          26          27          28          29          30
 IAtWgt=          12          12          12          12          12          12          12          12          12          12
 AtmWgt=  12.0000000  12.0000000  12.0000000  12.0000000  12.0000000  12.0000000  12.0000000  12.0000000  12.0000000  12.0000000
 NucSpn=           0           0           0           0           0           0           0           0           0           0
 AtZEff=   0.0000000   0.0000000   0.0000000   0.0000000   0.0000000   0.0000000   0.0000000   0.0000000   0.0000000   0.0000000
 NQMom=    0.0000000   0.0000000   0.0000000   0.0000000   0.0000000   0.0000000   0.0000000   0.0000000   0.0000000   0.0000000
 NMagM=    0.0000000   0.0000000   0.0000000   0.0000000   0.0000000   0.0000000   0.0000000   0.0000000   0.0000000   0.0000000
 AtZNuc=   6.0000000   6.0000000   6.0000000   6.0000000   6.0000000   6.0000000   6.0000000   6.0000000   6.0000000   6.0000000

  Atom        31          32          33          34          35          36          37          38          39          40
 IAtWgt=          12          12           1           1           1           1           1           1           1           1
 AtmWgt=  12.0000000  12.0000000   1.0078250   1.0078250   1.0078250   1.0078250   1.0078250   1.0078250   1.0078250   1.0078250
 NucSpn=           0           0           1           1           1           1           1           1           1           1
 AtZEff=   0.0000000   0.0000000   0.0000000   0.0000000   0.0000000   0.0000000   0.0000000   0.0000000   0.0000000   0.0000000
 NQMom=    0.0000000   0.0000000   0.0000000   0.0000000   0.0000000   0.0000000   0.0000000   0.0000000   0.0000000   0.0000000
 NMagM=    0.0000000   0.0000000   2.7928460   2.7928460   2.7928460   2.7928460   2.7928460   2.7928460   2.7928460   2.7928460
 AtZNuc=   6.0000000   6.0000000   1.0000000   1.0000000   1.0000000   1.0000000   1.0000000   1.0000000   1.0000000   1.0000000

  Atom        41          42          43          44          45          46          47          48
 IAtWgt=           1           1           1           1           1           1           1           1
 AtmWgt=   1.0078250   1.0078250   1.0078250   1.0078250   1.0078250   1.0078250   1.0078250   1.0078250
 NucSpn=           1           1           1           1           1           1           1           1
 AtZEff=   0.0000000   0.0000000   0.0000000   0.0000000   0.0000000   0.0000000   0.0000000   0.0000000
 NQMom=    0.0000000   0.0000000   0.0000000   0.0000000   0.0000000   0.0000000   0.0000000   0.0000000
 NMagM=    2.7928460   2.7928460   2.7928460   2.7928460   2.7928460   2.7928460   2.7928460   2.7928460
 AtZNuc=   1.0000000   1.0000000   1.0000000   1.0000000   1.0000000   1.0000000   1.0000000   1.0000000
 Leave Link  101 at Sat Jul 27 12:19:09 2019, MaxMem=  4194304000 cpu:         4.2
 (Enter /home/minenky/programs//g09/l103.exe)

 GradGradGradGradGradGradGradGradGradGradGradGradGradGradGradGradGradGrad
 Berny optimization.
 Initialization pass.
                           ----------------------------
                           !    Initial Parameters    !
                           ! (Angstroms and Degrees)  !
 --------------------------                            --------------------------
 ! Name  Definition              Value          Derivative Info.                !
 --------------------------------------------------------------------------------
 ! R1    R(1,2)                  1.3836         estimate D2E/DX2                !
 ! R2    R(1,5)                  1.4234         estimate D2E/DX2                !
 ! R3    R(1,17)                 1.4612         estimate D2E/DX2                !
 ! R4    R(2,3)                  1.4048         estimate D2E/DX2                !
 ! R5    R(2,33)                 1.101          estimate D2E/DX2                !
 ! R6    R(3,4)                  1.3731         estimate D2E/DX2                !
 ! R7    R(3,34)                 1.095          estimate D2E/DX2                !
 ! R8    R(4,6)                  1.415          estimate D2E/DX2                !
 ! R9    R(4,35)                 1.0959         estimate D2E/DX2                !
 ! R10   R(5,6)                  1.4093         estimate D2E/DX2                !
 ! R11   R(5,10)                 1.4316         estimate D2E/DX2                !
 ! R12   R(6,7)                  1.4259         estimate D2E/DX2                !
 ! R13   R(7,8)                  1.3615         estimate D2E/DX2                !
 ! R14   R(7,36)                 1.096          estimate D2E/DX2                !
 ! R15   R(8,9)                  1.4257         estimate D2E/DX2                !
 ! R16   R(8,37)                 1.1008         estimate D2E/DX2                !
 ! R17   R(9,10)                 1.3917         estimate D2E/DX2                !
 ! R18   R(9,12)                 1.4487         estimate D2E/DX2                !
 ! R19   R(10,20)                1.4423         estimate D2E/DX2                !
 ! R20   R(11,12)                1.4059         estimate D2E/DX2                !
 ! R21   R(11,16)                1.4102         estimate D2E/DX2                !
 ! R22   R(11,21)                1.4507         estimate D2E/DX2                !
 ! R23   R(12,13)                1.4105         estimate D2E/DX2                !
 ! R24   R(13,14)                1.3773         estimate D2E/DX2                !
 ! R25   R(13,38)                1.1007         estimate D2E/DX2                !
 ! R26   R(14,15)                1.4016         estimate D2E/DX2                !
 ! R27   R(14,39)                1.0948         estimate D2E/DX2                !
 ! R28   R(15,16)                1.3775         estimate D2E/DX2                !
 ! R29   R(15,40)                1.0948         estimate D2E/DX2                !
 ! R30   R(16,41)                1.1007         estimate D2E/DX2                !
 ! R31   R(17,18)                1.3673         estimate D2E/DX2                !
 ! R32   R(17,19)                1.4428         estimate D2E/DX2                !
 ! R33   R(18,23)                1.4309         estimate D2E/DX2                !
 ! R34   R(18,42)                1.1022         estimate D2E/DX2                !
 ! R35   R(19,20)                1.4151         estimate D2E/DX2                !
 ! R36   R(19,29)                1.4068         estimate D2E/DX2                !
 ! R37   R(20,21)                1.4065         estimate D2E/DX2                !
 ! R38   R(21,22)                1.4062         estimate D2E/DX2                !
 ! R39   R(22,30)                1.3857         estimate D2E/DX2                !
 ! R40   R(22,43)                1.1019         estimate D2E/DX2                !
 ! R41   R(23,26)                1.4039         estimate D2E/DX2                !
 ! R42   R(23,28)                1.4113         estimate D2E/DX2                !
 ! R43   R(24,25)                1.3948         estimate D2E/DX2                !
 ! R44   R(24,27)                1.3934         estimate D2E/DX2                !
 ! R45   R(24,44)                1.0959         estimate D2E/DX2                !
 ! R46   R(25,26)                1.3849         estimate D2E/DX2                !
 ! R47   R(25,45)                1.0952         estimate D2E/DX2                !
 ! R48   R(26,46)                1.0958         estimate D2E/DX2                !
 ! R49   R(27,28)                1.4159         estimate D2E/DX2                !
 ! R50   R(27,32)                1.4435         estimate D2E/DX2                !
 ! R51   R(28,29)                1.4305         estimate D2E/DX2                !
 ! R52   R(29,30)                1.4204         estimate D2E/DX2                !
 ! R53   R(30,31)                1.4443         estimate D2E/DX2                !
 ! R54   R(31,32)                1.3505         estimate D2E/DX2                !
 ! R55   R(31,47)                1.0961         estimate D2E/DX2                !
 ! R56   R(32,48)                1.0961         estimate D2E/DX2                !
 ! A1    A(2,1,5)              119.4172         estimate D2E/DX2                !
 ! A2    A(2,1,17)             121.0975         estimate D2E/DX2                !
 ! A3    A(5,1,17)             119.4852         estimate D2E/DX2                !
 ! A4    A(1,2,3)              120.9841         estimate D2E/DX2                !
 ! A5    A(1,2,33)             119.2476         estimate D2E/DX2                !
 ! A6    A(3,2,33)             119.7684         estimate D2E/DX2                !
 ! A7    A(2,3,4)              120.3249         estimate D2E/DX2                !
 ! A8    A(2,3,34)             119.201          estimate D2E/DX2                !
 ! A9    A(4,3,34)             120.4741         estimate D2E/DX2                !
 ! A10   A(3,4,6)              120.1198         estimate D2E/DX2                !
 ! A11   A(3,4,35)             120.7475         estimate D2E/DX2                !
 ! A12   A(6,4,35)             119.1327         estimate D2E/DX2                !
 ! A13   A(1,5,6)              119.2843         estimate D2E/DX2                !
 ! A14   A(1,5,10)             121.1822         estimate D2E/DX2                !
 ! A15   A(6,5,10)             119.5334         estimate D2E/DX2                !
 ! A16   A(4,6,5)              119.8697         estimate D2E/DX2                !
 ! A17   A(4,6,7)              120.7769         estimate D2E/DX2                !
 ! A18   A(5,6,7)              119.3534         estimate D2E/DX2                !
 ! A19   A(6,7,8)              120.4978         estimate D2E/DX2                !
 ! A20   A(6,7,36)             118.6939         estimate D2E/DX2                !
 ! A21   A(8,7,36)             120.8083         estimate D2E/DX2                !
 ! A22   A(7,8,9)              121.1782         estimate D2E/DX2                !
 ! A23   A(7,8,37)             120.7372         estimate D2E/DX2                !
 ! A24   A(9,8,37)             118.0846         estimate D2E/DX2                !
 ! A25   A(8,9,10)             119.3926         estimate D2E/DX2                !
 ! A26   A(8,9,12)             120.6213         estimate D2E/DX2                !
 ! A27   A(10,9,12)            119.9861         estimate D2E/DX2                !
 ! A28   A(5,10,9)             120.0444         estimate D2E/DX2                !
 ! A29   A(5,10,20)            119.4649         estimate D2E/DX2                !
 ! A30   A(9,10,20)            120.4907         estimate D2E/DX2                !
 ! A31   A(12,11,16)           119.0984         estimate D2E/DX2                !
 ! A32   A(12,11,21)           119.9984         estimate D2E/DX2                !
 ! A33   A(16,11,21)           120.9032         estimate D2E/DX2                !
 ! A34   A(9,12,11)            119.8938         estimate D2E/DX2                !
 ! A35   A(9,12,13)            121.0123         estimate D2E/DX2                !
 ! A36   A(11,12,13)           119.094          estimate D2E/DX2                !
 ! A37   A(12,13,14)           120.9349         estimate D2E/DX2                !
 ! A38   A(12,13,38)           118.6623         estimate D2E/DX2                !
 ! A39   A(14,13,38)           120.4029         estimate D2E/DX2                !
 ! A40   A(13,14,15)           119.9694         estimate D2E/DX2                !
 ! A41   A(13,14,39)           120.3009         estimate D2E/DX2                !
 ! A42   A(15,14,39)           119.7297         estimate D2E/DX2                !
 ! A43   A(14,15,16)           119.96           estimate D2E/DX2                !
 ! A44   A(14,15,40)           119.738          estimate D2E/DX2                !
 ! A45   A(16,15,40)           120.302          estimate D2E/DX2                !
 ! A46   A(11,16,15)           120.9434         estimate D2E/DX2                !
 ! A47   A(11,16,41)           118.6459         estimate D2E/DX2                !
 ! A48   A(15,16,41)           120.4107         estimate D2E/DX2                !
 ! A49   A(1,17,18)            121.2051         estimate D2E/DX2                !
 ! A50   A(1,17,19)            118.6421         estimate D2E/DX2                !
 ! A51   A(18,17,19)           120.1528         estimate D2E/DX2                !
 ! A52   A(17,18,23)           121.6064         estimate D2E/DX2                !
 ! A53   A(17,18,42)           119.7307         estimate D2E/DX2                !
 ! A54   A(23,18,42)           118.6629         estimate D2E/DX2                !
 ! A55   A(17,19,20)           121.2535         estimate D2E/DX2                !
 ! A56   A(17,19,29)           119.1312         estimate D2E/DX2                !
 ! A57   A(20,19,29)           119.6153         estimate D2E/DX2                !
 ! A58   A(10,20,19)           119.972          estimate D2E/DX2                !
 ! A59   A(10,20,21)           120.064          estimate D2E/DX2                !
 ! A60   A(19,20,21)           119.964          estimate D2E/DX2                !
 ! A61   A(11,21,20)           119.5671         estimate D2E/DX2                !
 ! A62   A(11,21,22)           120.7529         estimate D2E/DX2                !
 ! A63   A(20,21,22)           119.68           estimate D2E/DX2                !
 ! A64   A(21,22,30)           121.0793         estimate D2E/DX2                !
 ! A65   A(21,22,43)           118.8285         estimate D2E/DX2                !
 ! A66   A(30,22,43)           120.0922         estimate D2E/DX2                !
 ! A67   A(18,23,26)           121.6688         estimate D2E/DX2                !
 ! A68   A(18,23,28)           118.9858         estimate D2E/DX2                !
 ! A69   A(26,23,28)           119.3454         estimate D2E/DX2                !
 ! A70   A(25,24,27)           120.2618         estimate D2E/DX2                !
 ! A71   A(25,24,44)           119.9195         estimate D2E/DX2                !
 ! A72   A(27,24,44)           119.8187         estimate D2E/DX2                !
 ! A73   A(24,25,26)           120.8034         estimate D2E/DX2                !
 ! A74   A(24,25,45)           119.433          estimate D2E/DX2                !
 ! A75   A(26,25,45)           119.7636         estimate D2E/DX2                !
 ! A76   A(23,26,25)           120.201          estimate D2E/DX2                !
 ! A77   A(23,26,46)           119.5088         estimate D2E/DX2                !
 ! A78   A(25,26,46)           120.2903         estimate D2E/DX2                !
 ! A79   A(24,27,28)           119.439          estimate D2E/DX2                !
 ! A80   A(24,27,32)           121.7027         estimate D2E/DX2                !
 ! A81   A(28,27,32)           118.8583         estimate D2E/DX2                !
 ! A82   A(23,28,27)           119.9495         estimate D2E/DX2                !
 ! A83   A(23,28,29)           119.7631         estimate D2E/DX2                !
 ! A84   A(27,28,29)           120.2874         estimate D2E/DX2                !
 ! A85   A(19,29,28)           120.3607         estimate D2E/DX2                !
 ! A86   A(19,29,30)           120.0901         estimate D2E/DX2                !
 ! A87   A(28,29,30)           119.5492         estimate D2E/DX2                !
 ! A88   A(22,30,29)           119.5713         estimate D2E/DX2                !
 ! A89   A(22,30,31)           121.4592         estimate D2E/DX2                !
 ! A90   A(29,30,31)           118.9695         estimate D2E/DX2                !
 ! A91   A(30,31,32)           121.249          estimate D2E/DX2                !
 ! A92   A(30,31,47)           117.7622         estimate D2E/DX2                !
 ! A93   A(32,31,47)           120.9887         estimate D2E/DX2                !
 ! A94   A(27,32,31)           121.0865         estimate D2E/DX2                !
 ! A95   A(27,32,48)           117.8388         estimate D2E/DX2                !
 ! A96   A(31,32,48)           121.0746         estimate D2E/DX2                !
 ! D1    D(5,1,2,3)              0.0            estimate D2E/DX2                !
 ! D2    D(5,1,2,33)           180.0            estimate D2E/DX2                !
 ! D3    D(17,1,2,3)           180.0            estimate D2E/DX2                !
 ! D4    D(17,1,2,33)            0.0            estimate D2E/DX2                !
 ! D5    D(2,1,5,6)              0.0            estimate D2E/DX2                !
 ! D6    D(2,1,5,10)           180.0            estimate D2E/DX2                !
 ! D7    D(17,1,5,6)           180.0            estimate D2E/DX2                !
 ! D8    D(17,1,5,10)            0.0            estimate D2E/DX2                !
 ! D9    D(2,1,17,18)            0.0            estimate D2E/DX2                !
 ! D10   D(2,1,17,19)          180.0            estimate D2E/DX2                !
 ! D11   D(5,1,17,18)          180.0            estimate D2E/DX2                !
 ! D12   D(5,1,17,19)            0.0            estimate D2E/DX2                !
 ! D13   D(1,2,3,4)              0.0            estimate D2E/DX2                !
 ! D14   D(1,2,3,34)           180.0            estimate D2E/DX2                !
 ! D15   D(33,2,3,4)           180.0            estimate D2E/DX2                !
 ! D16   D(33,2,3,34)            0.0            estimate D2E/DX2                !
 ! D17   D(2,3,4,6)              0.0            estimate D2E/DX2                !
 ! D18   D(2,3,4,35)           180.0            estimate D2E/DX2                !
 ! D19   D(34,3,4,6)           180.0            estimate D2E/DX2                !
 ! D20   D(34,3,4,35)            0.0            estimate D2E/DX2                !
 ! D21   D(3,4,6,5)              0.0            estimate D2E/DX2                !
 ! D22   D(3,4,6,7)            180.0            estimate D2E/DX2                !
 ! D23   D(35,4,6,5)           180.0            estimate D2E/DX2                !
 ! D24   D(35,4,6,7)             0.0            estimate D2E/DX2                !
 ! D25   D(1,5,6,4)              0.0            estimate D2E/DX2                !
 ! D26   D(1,5,6,7)            180.0            estimate D2E/DX2                !
 ! D27   D(10,5,6,4)           180.0            estimate D2E/DX2                !
 ! D28   D(10,5,6,7)             0.0            estimate D2E/DX2                !
 ! D29   D(1,5,10,9)           180.0            estimate D2E/DX2                !
 ! D30   D(1,5,10,20)            0.0            estimate D2E/DX2                !
 ! D31   D(6,5,10,9)             0.0            estimate D2E/DX2                !
 ! D32   D(6,5,10,20)          180.0            estimate D2E/DX2                !
 ! D33   D(4,6,7,8)            180.0            estimate D2E/DX2                !
 ! D34   D(4,6,7,36)             0.0            estimate D2E/DX2                !
 ! D35   D(5,6,7,8)              0.0            estimate D2E/DX2                !
 ! D36   D(5,6,7,36)           180.0            estimate D2E/DX2                !
 ! D37   D(6,7,8,9)              0.0            estimate D2E/DX2                !
 ! D38   D(6,7,8,37)           180.0            estimate D2E/DX2                !
 ! D39   D(36,7,8,9)           180.0            estimate D2E/DX2                !
 ! D40   D(36,7,8,37)            0.0            estimate D2E/DX2                !
 ! D41   D(7,8,9,10)             0.0            estimate D2E/DX2                !
 ! D42   D(7,8,9,12)           180.0            estimate D2E/DX2                !
 ! D43   D(37,8,9,10)          180.0            estimate D2E/DX2                !
 ! D44   D(37,8,9,12)            0.0            estimate D2E/DX2                !
 ! D45   D(8,9,10,5)             0.0            estimate D2E/DX2                !
 ! D46   D(8,9,10,20)          180.0            estimate D2E/DX2                !
 ! D47   D(12,9,10,5)          180.0            estimate D2E/DX2                !
 ! D48   D(12,9,10,20)           0.0            estimate D2E/DX2                !
 ! D49   D(8,9,12,11)          180.0            estimate D2E/DX2                !
 ! D50   D(8,9,12,13)            0.0            estimate D2E/DX2                !
 ! D51   D(10,9,12,11)           0.0            estimate D2E/DX2                !
 ! D52   D(10,9,12,13)         180.0            estimate D2E/DX2                !
 ! D53   D(5,10,20,19)           0.0            estimate D2E/DX2                !
 ! D54   D(5,10,20,21)         180.0            estimate D2E/DX2                !
 ! D55   D(9,10,20,19)         180.0            estimate D2E/DX2                !
 ! D56   D(9,10,20,21)           0.0            estimate D2E/DX2                !
 ! D57   D(16,11,12,9)         180.0            estimate D2E/DX2                !
 ! D58   D(16,11,12,13)          0.0            estimate D2E/DX2                !
 ! D59   D(21,11,12,9)           0.0            estimate D2E/DX2                !
 ! D60   D(21,11,12,13)        180.0            estimate D2E/DX2                !
 ! D61   D(12,11,16,15)          0.0            estimate D2E/DX2                !
 ! D62   D(12,11,16,41)        180.0            estimate D2E/DX2                !
 ! D63   D(21,11,16,15)        180.0            estimate D2E/DX2                !
 ! D64   D(21,11,16,41)          0.0            estimate D2E/DX2                !
 ! D65   D(12,11,21,20)          0.0            estimate D2E/DX2                !
 ! D66   D(12,11,21,22)        180.0            estimate D2E/DX2                !
 ! D67   D(16,11,21,20)        180.0            estimate D2E/DX2                !
 ! D68   D(16,11,21,22)          0.0            estimate D2E/DX2                !
 ! D69   D(9,12,13,14)         180.0            estimate D2E/DX2                !
 ! D70   D(9,12,13,38)           0.0            estimate D2E/DX2                !
 ! D71   D(11,12,13,14)          0.0            estimate D2E/DX2                !
 ! D72   D(11,12,13,38)        180.0            estimate D2E/DX2                !
 ! D73   D(12,13,14,15)          0.0            estimate D2E/DX2                !
 ! D74   D(12,13,14,39)        180.0            estimate D2E/DX2                !
 ! D75   D(38,13,14,15)        180.0            estimate D2E/DX2                !
 ! D76   D(38,13,14,39)          0.0            estimate D2E/DX2                !
 ! D77   D(13,14,15,16)          0.0            estimate D2E/DX2                !
 ! D78   D(13,14,15,40)        180.0            estimate D2E/DX2                !
 ! D79   D(39,14,15,16)        180.0            estimate D2E/DX2                !
 ! D80   D(39,14,15,40)          0.0            estimate D2E/DX2                !
 ! D81   D(14,15,16,11)          0.0            estimate D2E/DX2                !
 ! D82   D(14,15,16,41)        180.0            estimate D2E/DX2                !
 ! D83   D(40,15,16,11)        180.0            estimate D2E/DX2                !
 ! D84   D(40,15,16,41)          0.0            estimate D2E/DX2                !
 ! D85   D(1,17,18,23)         180.0            estimate D2E/DX2                !
 ! D86   D(1,17,18,42)           0.0            estimate D2E/DX2                !
 ! D87   D(19,17,18,23)          0.0            estimate D2E/DX2                !
 ! D88   D(19,17,18,42)        180.0            estimate D2E/DX2                !
 ! D89   D(1,17,19,20)           0.0            estimate D2E/DX2                !
 ! D90   D(1,17,19,29)         180.0            estimate D2E/DX2                !
 ! D91   D(18,17,19,20)        180.0            estimate D2E/DX2                !
 ! D92   D(18,17,19,29)          0.0            estimate D2E/DX2                !
 ! D93   D(17,18,23,26)        180.0            estimate D2E/DX2                !
 ! D94   D(17,18,23,28)          0.0            estimate D2E/DX2                !
 ! D95   D(42,18,23,26)          0.0            estimate D2E/DX2                !
 ! D96   D(42,18,23,28)        180.0            estimate D2E/DX2                !
 ! D97   D(17,19,20,10)          0.0            estimate D2E/DX2                !
 ! D98   D(17,19,20,21)        180.0            estimate D2E/DX2                !
 ! D99   D(29,19,20,10)        180.0            estimate D2E/DX2                !
 ! D100  D(29,19,20,21)          0.0            estimate D2E/DX2                !
 ! D101  D(17,19,29,28)          0.0            estimate D2E/DX2                !
 ! D102  D(17,19,29,30)        180.0            estimate D2E/DX2                !
 ! D103  D(20,19,29,28)        180.0            estimate D2E/DX2                !
 ! D104  D(20,19,29,30)          0.0            estimate D2E/DX2                !
 ! D105  D(10,20,21,11)          0.0            estimate D2E/DX2                !
 ! D106  D(10,20,21,22)        180.0            estimate D2E/DX2                !
 ! D107  D(19,20,21,11)        180.0            estimate D2E/DX2                !
 ! D108  D(19,20,21,22)          0.0            estimate D2E/DX2                !
 ! D109  D(11,21,22,30)        180.0            estimate D2E/DX2                !
 ! D110  D(11,21,22,43)          0.0            estimate D2E/DX2                !
 ! D111  D(20,21,22,30)          0.0            estimate D2E/DX2                !
 ! D112  D(20,21,22,43)        180.0            estimate D2E/DX2                !
 ! D113  D(21,22,30,29)          0.0            estimate D2E/DX2                !
 ! D114  D(21,22,30,31)        180.0            estimate D2E/DX2                !
 ! D115  D(43,22,30,29)        180.0            estimate D2E/DX2                !
 ! D116  D(43,22,30,31)          0.0            estimate D2E/DX2                !
 ! D117  D(18,23,26,25)        180.0            estimate D2E/DX2                !
 ! D118  D(18,23,26,46)          0.0            estimate D2E/DX2                !
 ! D119  D(28,23,26,25)          0.0            estimate D2E/DX2                !
 ! D120  D(28,23,26,46)        180.0            estimate D2E/DX2                !
 ! D121  D(18,23,28,27)        180.0            estimate D2E/DX2                !
 ! D122  D(18,23,28,29)          0.0            estimate D2E/DX2                !
 ! D123  D(26,23,28,27)          0.0            estimate D2E/DX2                !
 ! D124  D(26,23,28,29)        180.0            estimate D2E/DX2                !
 ! D125  D(27,24,25,26)          0.0            estimate D2E/DX2                !
 ! D126  D(27,24,25,45)        180.0            estimate D2E/DX2                !
 ! D127  D(44,24,25,26)        180.0            estimate D2E/DX2                !
 ! D128  D(44,24,25,45)          0.0            estimate D2E/DX2                !
 ! D129  D(25,24,27,28)          0.0            estimate D2E/DX2                !
 ! D130  D(25,24,27,32)        180.0            estimate D2E/DX2                !
 ! D131  D(44,24,27,28)        180.0            estimate D2E/DX2                !
 ! D132  D(44,24,27,32)          0.0            estimate D2E/DX2                !
 ! D133  D(24,25,26,23)          0.0            estimate D2E/DX2                !
 ! D134  D(24,25,26,46)        180.0            estimate D2E/DX2                !
 ! D135  D(45,25,26,23)        180.0            estimate D2E/DX2                !
 ! D136  D(45,25,26,46)          0.0            estimate D2E/DX2                !
 ! D137  D(24,27,28,23)          0.0            estimate D2E/DX2                !
 ! D138  D(24,27,28,29)        180.0            estimate D2E/DX2                !
 ! D139  D(32,27,28,23)        180.0            estimate D2E/DX2                !
 ! D140  D(32,27,28,29)          0.0            estimate D2E/DX2                !
 ! D141  D(24,27,32,31)        180.0            estimate D2E/DX2                !
 ! D142  D(24,27,32,48)          0.0            estimate D2E/DX2                !
 ! D143  D(28,27,32,31)          0.0            estimate D2E/DX2                !
 ! D144  D(28,27,32,48)        180.0            estimate D2E/DX2                !
 ! D145  D(23,28,29,19)          0.0            estimate D2E/DX2                !
 ! D146  D(23,28,29,30)        180.0            estimate D2E/DX2                !
 ! D147  D(27,28,29,19)        180.0            estimate D2E/DX2                !
 ! D148  D(27,28,29,30)          0.0            estimate D2E/DX2                !
 ! D149  D(19,29,30,22)          0.0            estimate D2E/DX2                !
 ! D150  D(19,29,30,31)        180.0            estimate D2E/DX2                !
 ! D151  D(28,29,30,22)        180.0            estimate D2E/DX2                !
 ! D152  D(28,29,30,31)          0.0            estimate D2E/DX2                !
 ! D153  D(22,30,31,32)        180.0            estimate D2E/DX2                !
 ! D154  D(22,30,31,47)          0.0            estimate D2E/DX2                !
 ! D155  D(29,30,31,32)          0.0            estimate D2E/DX2                !
 ! D156  D(29,30,31,47)        180.0            estimate D2E/DX2                !
 ! D157  D(30,31,32,27)          0.0            estimate D2E/DX2                !
 ! D158  D(30,31,32,48)        180.0            estimate D2E/DX2                !
 ! D159  D(47,31,32,27)        180.0            estimate D2E/DX2                !
 ! D160  D(47,31,32,48)          0.0            estimate D2E/DX2                !
 --------------------------------------------------------------------------------
 Trust Radius=3.00D-01 FncErr=1.00D-07 GrdErr=1.00D-06
 Number of steps in this run=    288 maximum allowed number of steps=    288.
 GradGradGradGradGradGradGradGradGradGradGradGradGradGradGradGradGradGrad

 Leave Link  103 at Sat Jul 27 12:19:09 2019, MaxMem=  4194304000 cpu:         0.1
 (Enter /home/minenky/programs//g09/l202.exe)
                          Input orientation:                          
 ---------------------------------------------------------------------
 Center     Atomic      Atomic             Coordinates (Angstroms)
 Number     Number       Type             X           Y           Z
 ---------------------------------------------------------------------
      1          6           0        0.089839    2.504637    0.000000
      2          6           0        0.384014    3.856629    0.000000
      3          6           0       -0.639007    4.819311    0.000000
      4          6           0       -1.956100    4.431280    0.000000
      5          6           0       -1.270307    2.085116    0.000000
      6          6           0       -2.291334    3.056541    0.000000
      7          6           0       -3.654399    2.637919    0.000000
      8          6           0       -3.970499    1.313651    0.000000
      9          6           0       -2.955426    0.312533    0.000000
     10          6           0       -1.617635    0.696238    0.000000
     11          6           0       -2.292031   -2.067622    0.000000
     12          6           0       -3.305450   -1.093209    0.000000
     13          6           0       -4.654083   -1.506304    0.000000
     14          6           0       -4.985070   -2.843291    0.000000
     15          6           0       -3.974722   -3.814691    0.000000
     16          6           0       -2.651724   -3.431178    0.000000
     17          6           0        1.152017    1.501134    0.000000
     18          6           0        2.470133    1.864746    0.000000
     19          6           0        0.785139    0.105745    0.000000
     20          6           0       -0.571500   -0.296693    0.000000
     21          6           0       -0.898451   -1.664709    0.000000
     22          6           0        0.127970   -2.625936    0.000000
     23          6           0        3.517140    0.889362    0.000000
     24          6           0        5.530884   -1.063876    0.000000
     25          6           0        5.859712    0.291589    0.000000
     26          6           0        4.870917    1.261225    0.000000
     27          6           0        4.195705   -1.462561    0.000000
     28          6           0        3.176050   -0.480113    0.000000
     29          6           0        1.799454   -0.869060    0.000000
     30          6           0        1.461308   -2.248655    0.000000
     31          6           0        2.522042   -3.228895    0.000000
     32          6           0        3.820212   -2.856418    0.000000
     33          1           0        1.437107    4.178032    0.000000
     34          1           0       -0.373021    5.881505    0.000000
     35          1           0       -2.759685    5.176370    0.000000
     36          1           0       -4.439702    3.402486    0.000000
     37          1           0       -5.021426    0.986082    0.000000
     38          1           0       -5.441712   -0.737487    0.000000
     39          1           0       -6.035363   -3.152334    0.000000
     40          1           0       -4.242102   -4.876345    0.000000
     41          1           0       -1.852281   -4.187791    0.000000
     42          1           0        2.742550    2.932792    0.000000
     43          1           0       -0.144061   -3.693708    0.000000
     44          1           0        6.325060   -1.818988    0.000000
     45          1           0        6.913578    0.589740    0.000000
     46          1           0        5.138781    2.323769    0.000000
     47          1           0        2.238722   -4.287794    0.000000
     48          1           0        4.622929   -3.602763    0.000000
 ---------------------------------------------------------------------
                    Distance matrix (angstroms):
                    1          2          3          4          5
     1  C    0.000000
     2  C    1.383626   0.000000
     3  C    2.426712   1.404752   0.000000
     4  C    2.810306   2.409638   1.373063   0.000000
     5  C    1.423374   2.423847   2.806129   2.444340   0.000000
     6  C    2.444295   2.792423   2.416101   1.415023   1.409313
     7  C    3.746609   4.218297   3.721701   2.469891   2.447343
     8  C    4.231405   5.042670   4.836165   3.711794   2.808238
     9  C    3.752194   4.869545   5.067233   4.238246   2.445747
    10  C    2.487122   3.740945   4.237623   3.750347   1.431649
    11  C    5.155469   6.500612   7.082537   6.507578   4.276582
    12  C    4.946967   6.173576   6.485970   5.686890   3.774064
    13  C    6.212282   7.358225   7.492279   6.521811   4.934394
    14  C    7.372588   8.585802   8.809299   7.879978   6.171602
    15  C    7.513625   8.823136   9.255971   8.489457   6.490115
    16  C    6.538354   7.894798   8.492444   7.893170   5.686635
    17  C    1.461246   2.477536   3.770685   4.271551   2.491723
    18  C    2.464805   2.884353   4.289080   5.116507   3.746926
    19  C    2.497625   3.772272   4.924013   5.121001   2.853554
    20  C    2.878337   4.261818   5.116450   4.926546   2.482206
    21  C    4.284876   5.668323   6.489208   6.187059   3.768218
    22  C    5.130715   6.487619   7.484648   7.358508   4.914182
    23  C    3.788866   4.315223   5.719970   6.519321   4.934519
    24  C    6.506863   7.120509   8.525224   9.287178   7.494822
    25  C    6.179726   6.533971   7.920456   8.844431   7.352136
    26  C    4.940120   5.183476   6.558906   7.527112   6.196243
    27  C    5.709361   6.543911   7.926939   8.519511   6.516387
    28  C    4.293417   5.157790   6.529820   7.103573   5.133273
    29  C    3.782144   4.933113   6.188995   6.495983   4.260350
    30  C    4.947193   6.199602   7.373430   7.503347   5.122821
    31  C    6.228082   7.401069   8.646725   8.873108   6.528447
    32  C    6.531202   7.541384   8.877019   9.299265   7.094515
    33  H    2.148344   1.101048   2.172899   3.402645   3.422044
    34  H    3.408441   2.161763   1.094990   2.146926   3.900985
    35  H    3.906141   3.409480   2.150526   1.095858   3.431340
    36  H    4.617670   4.845047   4.056190   2.688251   3.432278
    37  H    5.332077   6.120361   5.822306   4.611465   3.908807
    38  H    6.411663   7.419230   7.344657   6.234231   5.036637
    39  H    8.337831   9.504418   9.626411   8.611131   7.080723
    40  H    8.558306   9.882600  10.343502   9.584241   7.569247
    41  H    6.968531   8.349474   9.088450   8.619697   6.299846
    42  H    2.687042   2.533016   3.872194   4.931814   4.101411
    43  H    6.202757   7.568782   8.527396   8.324598   5.887550
    44  H    7.587604   8.216366   9.621084  10.375138   8.540002
    45  H    7.087330   7.301218   8.656259   9.665849   8.319382
    46  H    5.052181   4.995746   6.293693   7.401280   6.413530
    47  H    7.124242   8.352938   9.550952   9.675680   7.275113
    48  H    7.605869   8.579682   9.930725  10.384097   8.190372
                    6          7          8          9         10
     6  C    0.000000
     7  C    1.425900   0.000000
     8  C    2.420178   1.361472   0.000000
     9  C    2.823225   2.428165   1.425697   0.000000
    10  C    2.454567   2.813989   2.432523   1.391730   0.000000
    11  C    5.124163   4.898792   3.774951   2.470876   2.844948
    12  C    4.271868   3.747410   2.497051   1.448663   2.459845
    13  C    5.138301   4.263092   2.901626   2.488696   3.751161
    14  C    6.485695   5.640422   4.278963   3.752157   4.885478
    15  C    7.074435   6.460556   5.128344   4.251228   5.089631
    16  C    6.497721   6.151365   4.924689   3.756009   4.254985
    17  C    3.778353   4.939019   5.125945   4.275962   2.884238
    18  C    4.908355   6.173143   6.464167   5.643231   4.251501
    19  C    4.262849   5.110910   4.906641   3.746276   2.474269
    20  C    3.768555   4.256314   3.761170   2.460540   1.442328
    21  C    4.922430   5.109584   4.278797   2.853178   2.468055
    22  C    6.176048   6.481858   5.684873   4.259334   3.752862
    23  C    6.199599   7.381627   7.499651   6.498218   5.138406
    24  C    8.841093   9.903167   9.794331   8.597206   7.362019
    25  C    8.607236   9.799161   9.883201   8.815162   7.488288
    26  C    7.383834   8.635757   8.841572   7.883632   6.513104
    27  C    7.905944   8.856527   8.625210   7.368150   6.201237
    28  C    6.511544   7.508472   7.368226   6.182498   4.935911
    29  C    5.669646   6.484089   6.169002   4.899494   3.758544
    30  C    6.498263   7.074536   6.495733   5.105607   4.260550
    31  C    7.916773   8.518681   7.923876   6.522604   5.704699
    32  C    8.503769   9.276721   8.836552   7.480075   6.495502
    33  H    3.893458   5.319340   6.119386   5.851190   4.631883
    34  H    3.414725   4.613923   5.814391   6.138588   5.332547
    35  H    2.170951   2.691513   4.048045   4.867774   4.623403
    36  H    2.176043   1.096022   2.140884   3.427957   3.909967
    37  H    3.426398   2.144139   1.100795   2.173023   3.416109
    38  H    4.931484   3.819405   2.524209   2.698919   4.084009
    39  H    7.250371   6.260672   4.920232   4.635873   5.858995
    40  H    8.169221   7.537211   6.195951   5.346025   6.159667
    41  H    7.257625   7.059600   5.895143   4.633556   4.889663
    42  H    5.035405   6.403742   6.905552   6.271578   4.900346
    43  H    7.083548   7.239612   6.302006   4.894256   4.630664
    44  H    9.900153  10.929484  10.761597   9.522122   8.331433
    45  H    9.529717  10.764626  10.908125   9.872896   8.531878
    46  H    7.466161   8.798790   9.165115   8.340339   6.949678
    47  H    8.629059   9.093644   8.362452   6.938456   6.301751
    48  H    9.599654  10.366304   9.900410   8.530005   7.577997
                   11         12         13         14         15
    11  C    0.000000
    12  C    1.405880   0.000000
    13  C    2.427833   1.410482   0.000000
    14  C    2.802521   2.425678   1.377348   0.000000
    15  C    2.425634   2.802569   2.406280   1.401579   0.000000
    16  C    1.410200   2.427644   2.777514   2.406266   1.377463
    17  C    4.959585   5.157482   6.538768   7.519167   7.385218
    18  C    6.175899   6.488980   7.881525   8.817351   8.590236
    19  C    3.767293   4.262676   5.673081   6.480134   6.166530
    20  C    2.469091   2.847616   4.258009   5.095563   4.894714
    21  C    1.450656   2.473915   3.758971   4.253177   3.753114
    22  C    2.483569   3.760003   4.911376   5.117658   4.271442
    23  C    6.518452   7.104810   8.515169   9.285488   8.846248
    24  C    7.887047   8.836383  10.194573  10.665441   9.895632
    25  C    8.486270   9.269188  10.666410  11.288790  10.657280
    26  C    7.898674   8.508604   9.918914  10.676495  10.198542
    27  C    6.515890   7.510243   8.849897   9.284022   8.502258
    28  C    5.693864   6.510432   7.897092   8.496382   7.890054
    29  C    4.263426   5.109822   6.484923   7.065930   6.482118
    30  C    3.757702   4.904798   6.160284   6.473746   5.657110
    31  C    4.952156   6.206514   7.379980   7.517009   6.523120
    32  C    6.162931   7.340570   8.581171   8.805293   7.853616
    33  H    7.274247   7.090686   8.331523   9.515427   9.652539
    34  H    8.177482   7.566093   8.538572   9.868793  10.343523
    35  H    7.259071   6.293288   6.945997   8.322698   9.072788
    36  H    5.876612   4.636572   4.913469   6.269542   7.232140
    37  H    4.095694   2.695927   2.519311   3.829546   4.913554
    38  H    3.419028   2.165676   1.100654   2.154747   3.408995
    39  H    3.897324   3.419418   2.148801   1.094816   2.164477
    40  H    3.419313   3.897363   3.395129   2.164557   1.094806
    41  H    2.165294   3.418793   3.878205   3.409113   2.154985
    42  H    7.095854   7.265465   8.626457   9.647759   9.521043
    43  H    2.694055   4.093529   5.012489   4.915138   3.832571
    44  H    8.620677   9.657820  10.983595  11.356419  10.491346
    45  H    9.581483  10.356682  11.756028  12.384004  11.745386
    46  H    8.631412   9.109378  10.515211  11.366217  10.988022
    47  H    5.045481   6.398689   7.432863   7.366801   6.231429
    48  H    7.083313   8.316072   9.510946   9.637969   8.600262
                   16         17         18         19         20
    16  C    0.000000
    17  C    6.228655   0.000000
    18  C    7.367512   1.367350   0.000000
    19  C    4.931719   1.442814   2.435835   0.000000
    20  C    3.761957   2.490521   3.731401   1.415071   0.000000
    21  C    2.488851   3.771867   4.878977   2.443150   1.406543
    22  C    2.893979   4.252220   5.064775   2.809617   2.432001
    23  C    7.531398   2.442964   1.430942   2.842162   4.257195
    24  C    8.518169   5.074816   4.236156   4.887751   6.150420
    25  C    9.289969   4.860596   3.736852   5.077975   6.458062
    26  C    8.866159   3.726631   2.475480   4.246024   5.661009
    27  C    7.124798   4.248238   3.748142   3.753870   4.907698
    28  C    6.532361   2.832323   2.448812   2.461642   3.752036
    29  C    5.135897   2.457030   2.814872   1.406797   2.439063
    30  C    4.279649   3.762523   4.235303   2.449572   2.818238
    31  C    5.177719   4.924444   5.093905   3.759874   4.262372
    32  C    6.497408   5.109553   4.910408   4.241000   5.083240
    33  H    8.638207   2.692036   2.533463   4.124147   4.904862
    34  H    9.587416   4.638252   4.921166   5.890733   6.181385
    35  H    8.608224   5.367379   6.190141   6.186842   5.894283
    36  H    7.063698   5.906137   7.078875   6.177983   5.352281
    37  H    5.012751   6.194891   7.542911   5.872920   4.631128
    38  H    3.878144   6.963381   8.328800   6.283686   4.890119
    39  H    3.395109   8.562312   9.874946   7.558725   6.165101
    40  H    2.148909   8.352769   9.512960   7.077737   5.869116
    41  H    1.100715   6.433481   7.437504   5.038892   4.096467
    42  H    8.342560   2.139963   1.102240   3.438554   4.627365
    43  H    2.521368   5.354083   6.142510   3.911426   3.423801
    44  H    9.120406   6.146836   5.332013   5.864753   7.062573
    45  H   10.376068   5.833201   4.622753   6.147521   7.537385
    46  H    9.685628   4.070752   2.707838   4.886086   6.282845
    47  H    4.964902   5.890044   6.156890   4.627751   4.881212
    48  H    7.276676   6.172277   5.876069   5.336821   6.157288
                   21         22         23         24         25
    21  C    0.000000
    22  C    1.406235   0.000000
    23  C    5.101051   4.883011   0.000000
    24  C    6.457349   5.624190   2.805406   0.000000
    25  C    7.035614   6.431548   2.417638   1.394780   0.000000
    26  C    6.468903   6.132338   1.403921   2.416951   1.384886
    27  C    5.098166   4.230829   2.447855   1.393432   2.417842
    28  C    4.243210   3.727647   1.411313   2.426113   2.792412
    29  C    2.812783   2.424968   2.458149   3.736513   4.222890
    30  C    2.430938   1.385688   3.751479   4.238532   5.079251
    31  C    3.761177   2.468834   4.236775   3.706810   4.851169
    32  C    4.866822   3.699429   3.758021   2.477823   3.750934
    33  H    6.292253   6.928767   3.891257   6.651061   5.887603
    34  H    7.564484   8.522179   6.328889   9.115613   8.372223
    35  H    7.089749   8.319526   7.601116  10.376618   9.907324
    36  H    6.181983   7.563431   8.344287  10.925245  10.758978
    37  H    4.901593   6.289909   8.539114  10.749585  10.903279
    38  H    4.636913   5.881122   9.105365  10.977450  11.348179
    39  H    5.347980   6.185771  10.372349  11.753286  12.383594
    40  H    4.636227   4.915472   9.666913  10.490290  11.346989
    41  H    2.697357   2.522060   7.389734   8.016856   8.918502
    42  H    5.864631   6.142921   2.185313   4.873208   4.085664
    43  H    2.164704   1.101880   5.865912   6.254680   7.206100
    44  H    7.225159   6.249407   3.901228   1.095861   2.161269
    45  H    8.130827   7.508998   3.409628   2.155525   1.095230
    46  H    7.235754   7.043281   2.165004   3.410261   2.156269
    47  H    4.089307   2.686456   5.332663   4.607817   5.838006
    48  H    5.851640   4.599875   4.626225   2.696356   4.086026
                   26         27         28         29         30
    26  C    0.000000
    27  C    2.806229   0.000000
    28  C    2.429986   1.415945   0.000000
    29  C    3.737914   2.468656   1.430488   0.000000
    30  C    4.893331   2.845149   2.463348   1.420431   0.000000
    31  C    5.067385   2.433328   2.825514   2.467986   1.444308
    32  C    4.249584   1.443549   2.462067   2.834265   2.435940
    33  H    4.505420   6.279024   4.972146   5.060082   6.426733
    34  H    6.988982   8.649194   7.284647   7.091528   8.334522
    35  H    8.576389   9.615240   8.199313   7.571853   8.540947
    36  H    9.553671   9.911556   8.548348   7.561294   8.170515
    37  H    9.896169   9.536842   8.327565   7.068660   7.244955
    38  H   10.504531   9.664654   8.621604   7.242361   7.066493
    39  H   11.765477  10.369671   9.591188   8.160741   7.550941
    40  H   10.987123   9.102225   8.622983   7.249740   6.279621
    41  H    8.654084   6.633628   6.247479   4.934485   3.839287
    42  H    2.706304   4.629339   3.440325   3.917079   5.337506
    43  H    7.049920   4.879712   4.620642   3.428686   2.159951
    44  H    3.406207   2.158980   3.421820   4.624227   4.882694
    45  H    2.150199   3.405697   3.887635   5.318117   6.146848
    46  H    1.095788   3.902010   3.422582   4.620093   5.867782
    47  H    6.141666   3.436819   3.921354   3.446839   2.182306
    48  H    4.870306   2.182427   3.441570   3.930031   3.439397
                   31         32         33         34         35
    31  C    0.000000
    32  C    1.350550   0.000000
    33  H    7.485964   7.427158   0.000000
    34  H    9.559329   9.691981   2.485635   0.000000
    35  H    9.926989  10.383676   4.313901   2.488650   0.000000
    36  H    9.614629  10.363400   5.927762   4.762713   2.443179
    37  H    8.641177   9.640507   7.204249   6.750766   4.761721
    38  H    8.344369   9.501216   8.454613   8.336827   6.493610
    39  H    8.557747   9.860017  10.467668  10.661724   8.949713
    40  H    6.961877   8.311499  10.688085  11.432459  10.161428
    41  H    4.478190   5.826640   8.989276  10.177374   9.408023
    42  H    6.165631   5.888659   1.804108   4.289719   5.942073
    43  H    2.706318   4.051730   8.028972   9.577950   9.247690
    44  H    4.055957   2.711185   7.736688  10.205973  11.465933
    45  H    5.819585   4.630866   6.547333   9.005403  10.705568
    46  H    6.138355   5.345368   4.140131   6.560293   8.397803
    47  H    1.096146   2.133061   8.503693  10.499325  10.703011
    48  H    2.133893   1.096077   8.407748  10.719648  11.470665
                   36         37         38         39         40
    36  H    0.000000
    37  H    2.485440   0.000000
    38  H    4.259507   1.774071   0.000000
    39  H    6.746243   4.260816   2.486746   0.000000
    40  H    8.281188   5.914000   4.309201   2.487569   0.000000
    41  H    8.019168   6.067326   4.978817   4.309333   2.487036
    42  H    7.197594   8.004312   8.969565  10.680848  10.477021
    43  H    8.295089   6.759374   6.066659   5.916124   4.265275
    44  H   11.964276  11.688078  11.816369  12.432131  11.000561
    45  H   11.696517  11.941584  12.426372  13.478806  12.422853
    46  H    9.639034  10.247889  11.014451  12.443842  11.825506
    47  H   10.185369   8.973489   8.461309   8.351631   6.507493
    48  H   11.454466  10.680406  10.464550  10.667805   8.956046
                   41         42         43         44         45
    41  H    0.000000
    42  H    8.474384   0.000000
    43  H    1.778239   7.227934   0.000000
    44  H    8.513527   5.950949   6.735288   0.000000
    45  H    9.983241   4.784074   8.255798   2.479582   0.000000
    46  H    9.553814   2.472414   8.007400   4.309257   2.481282
    47  H    4.092225   7.238142   2.455726   4.774218   6.756080
    48  H    6.501584   6.800684   4.767857   2.465584   4.777464
                   46         47         48
    46  H    0.000000
    47  H    7.219633   0.000000
    48  H    5.948940   2.480667   0.000000
 Stoichiometry    C32H16
 Framework group  CS[SG(C32H16)]
 Deg. of freedom    93
 Full point group                 CS      NOp   2
 Largest Abelian subgroup         CS      NOp   2
 Largest concise Abelian subgroup C1      NOp   1
                         Standard orientation:                         
 ---------------------------------------------------------------------
 Center     Atomic      Atomic             Coordinates (Angstroms)
 Number     Number       Type             X           Y           Z
 ---------------------------------------------------------------------
      1          6           0        2.184164   -1.233567    0.000000
      2          6           0        3.249786   -2.116103    0.000000
      3          6           0        4.574904   -1.649853    0.000000
      4          6           0        4.835490   -0.301744    0.000000
      5          6           0        2.436564    0.167250    0.000000
      6          6           0        3.768531    0.627713    0.000000
      7          6           0        4.023071    2.030710    0.000000
      8          6           0        2.992148    2.919981    0.000000
      9          6           0        1.636544    2.478450    0.000000
     10          6           0        1.362606    1.113946    0.000000
     11          6           0       -0.782278    2.982957    0.000000
     12          6           0        0.548847    3.435290    0.000000
     13          6           0        0.801664    4.822929    0.000000
     14          6           0       -0.233715    5.731267    0.000000
     15          6           0       -1.560753    5.280277    0.000000
     16          6           0       -1.828064    3.929000    0.000000
     17          6           0        0.804797   -1.715838    0.000000
     18          6           0        0.522053   -3.053635    0.000000
     19          6           0       -0.265962   -0.748787    0.000000
     20          6           0        0.000000    0.641066    0.000000
     21          6           0       -1.064792    1.560077    0.000000
     22          6           0       -2.390181    1.090137    0.000000
     23          6           0       -0.825369   -3.535353    0.000000
     24          6           0       -3.485521   -4.426360    0.000000
     25          6           0       -2.432738   -5.341270    0.000000
     26          6           0       -1.117171   -4.908614    0.000000
     27          6           0       -3.226087   -3.057292    0.000000
     28          6           0       -1.884960   -2.603113    0.000000
     29          6           0       -1.597846   -1.201735    0.000000
     30          6           0       -2.667779   -0.267460    0.000000
     31          6           0       -4.025822   -0.759138    0.000000
     32          6           0       -4.291526   -2.083293    0.000000
     33          1           0        3.051335   -3.199119    0.000000
     34          1           0        5.396088   -2.374187    0.000000
     35          1           0        5.866514    0.069597    0.000000
     36          1           0        5.062995    2.376864    0.000000
     37          1           0        3.184127    4.003906    0.000000
     38          1           0        1.846431    5.169195    0.000000
     39          1           0       -0.025573    6.806115    0.000000
     40          1           0       -2.380818    6.005601    0.000000
     41          1           0       -2.867422    3.566632    0.000000
     42          1           0        1.345480   -3.786370    0.000000
     43          1           0       -3.213543    1.822404    0.000000
     44          1           0       -4.521125   -4.784739    0.000000
     45          1           0       -2.652195   -6.414288    0.000000
     46          1           0       -0.296538   -5.634777    0.000000
     47          1           0       -4.836114   -0.020923    0.000000
     48          1           0       -5.323267   -2.453286    0.000000
 ---------------------------------------------------------------------
 Rotational constants (GHZ):      0.2190536      0.1292368      0.0812821
 Leave Link  202 at Sat Jul 27 12:19:10 2019, MaxMem=  4194304000 cpu:         0.3
 (Enter /home/minenky/programs//g09/l301.exe)
 Standard basis: def2TZVP (5D, 7F)
 ======================================================================================================
                                       Pseudopotential Parameters
 ======================================================================================================
  Center     Atomic      Valence      Angular      Power
  Number     Number     Electrons     Momentum     of R      Exponent        Coefficient   SO-Coeffient
 ======================================================================================================
    1          6
                                   No pseudopotential on this center.
    2          6
                                   No pseudopotential on this center.
    3          6
                                   No pseudopotential on this center.
    4          6
                                   No pseudopotential on this center.
    5          6
                                   No pseudopotential on this center.
    6          6
                                   No pseudopotential on this center.
    7          6
                                   No pseudopotential on this center.
    8          6
                                   No pseudopotential on this center.
    9          6
                                   No pseudopotential on this center.
   10          6
                                   No pseudopotential on this center.
   11          6
                                   No pseudopotential on this center.
   12          6
                                   No pseudopotential on this center.
   13          6
                                   No pseudopotential on this center.
   14          6
                                   No pseudopotential on this center.
   15          6
                                   No pseudopotential on this center.
   16          6
                                   No pseudopotential on this center.
   17          6
                                   No pseudopotential on this center.
   18          6
                                   No pseudopotential on this center.
   19          6
                                   No pseudopotential on this center.
   20          6
                                   No pseudopotential on this center.
   21          6
                                   No pseudopotential on this center.
   22          6
                                   No pseudopotential on this center.
   23          6
                                   No pseudopotential on this center.
   24          6
                                   No pseudopotential on this center.
   25          6
                                   No pseudopotential on this center.
   26          6
                                   No pseudopotential on this center.
   27          6
                                   No pseudopotential on this center.
   28          6
                                   No pseudopotential on this center.
   29          6
                                   No pseudopotential on this center.
   30          6
                                   No pseudopotential on this center.
   31          6
                                   No pseudopotential on this center.
   32          6
                                   No pseudopotential on this center.
   33          1
                                   No pseudopotential on this center.
   34          1
                                   No pseudopotential on this center.
   35          1
                                   No pseudopotential on this center.
   36          1
                                   No pseudopotential on this center.
   37          1
                                   No pseudopotential on this center.
   38          1
                                   No pseudopotential on this center.
   39          1
                                   No pseudopotential on this center.
   40          1
                                   No pseudopotential on this center.
   41          1
                                   No pseudopotential on this center.
   42          1
                                   No pseudopotential on this center.
   43          1
                                   No pseudopotential on this center.
   44          1
                                   No pseudopotential on this center.
   45          1
                                   No pseudopotential on this center.
   46          1
                                   No pseudopotential on this center.
   47          1
                                   No pseudopotential on this center.
   48          1
                                   No pseudopotential on this center.
 ======================================================================================================
 Ernie: Thresh=  0.10000D-02 Tol=  0.10000D-05 Strict=F.
 AO basis set (Overlap normalization):
 Atom C1       Shell     1 S   6     bf    1 -     1          4.127472479605         -2.331103150805          0.000000000000
      0.1357534968D+05  0.6064550360D-03
      0.2035233368D+04  0.4697908888D-02
      0.4632256236D+03  0.2433247765D-01
      0.1312001960D+03  0.9739996831D-01
      0.4285301589D+02  0.3019558425D+00
      0.1558418577D+02  0.6623360914D+00
 Atom C1       Shell     2 S   2     bf    2 -     2          4.127472479605         -2.331103150805          0.000000000000
      0.6206713851D+01  0.6559530854D+00
      0.2576489653D+01  0.3758563329D+00
 Atom C1       Shell     3 S   1     bf    3 -     3          4.127472479605         -2.331103150805          0.000000000000
      0.5769633942D+00  0.1000000000D+01
 Atom C1       Shell     4 S   1     bf    4 -     4          4.127472479605         -2.331103150805          0.000000000000
      0.2297283136D+00  0.1000000000D+01
 Atom C1       Shell     5 S   1     bf    5 -     5          4.127472479605         -2.331103150805          0.000000000000
      0.9516444003D-01  0.1000000000D+01
 Atom C1       Shell     6 P   4     bf    6 -     8          4.127472479605         -2.331103150805          0.000000000000
      0.3469723224D+02  0.1132722000D-01
      0.7958262283D+01  0.7616965920D-01
      0.2378082688D+01  0.3019225220D+00
      0.8143320818D+00  0.7278502735D+00
 Atom C1       Shell     7 P   1     bf    9 -    11          4.127472479605         -2.331103150805          0.000000000000
      0.2888754725D+00  0.1000000000D+01
 Atom C1       Shell     8 P   1     bf   12 -    14          4.127472479605         -2.331103150805          0.000000000000
      0.1005682367D+00  0.1000000000D+01
 Atom C1       Shell     9 D   1     bf   15 -    19          4.127472479605         -2.331103150805          0.000000000000
      0.1097000000D+01  0.1000000000D+01
 Atom C1       Shell    10 D   1     bf   20 -    24          4.127472479605         -2.331103150805          0.000000000000
      0.3180000000D+00  0.1000000000D+01
 Atom C1       Shell    11 F   1     bf   25 -    31          4.127472479605         -2.331103150805          0.000000000000
      0.7610000000D+00  0.1000000000D+01
 Atom C2       Shell    12 S   6     bf   32 -    32          6.141205494098         -3.998855848631          0.000000000000
      0.1357534968D+05  0.6064550360D-03
      0.2035233368D+04  0.4697908888D-02
      0.4632256236D+03  0.2433247765D-01
      0.1312001960D+03  0.9739996831D-01
      0.4285301589D+02  0.3019558425D+00
      0.1558418577D+02  0.6623360914D+00
 Atom C2       Shell    13 S   2     bf   33 -    33          6.141205494098         -3.998855848631          0.000000000000
      0.6206713851D+01  0.6559530854D+00
      0.2576489653D+01  0.3758563329D+00
 Atom C2       Shell    14 S   1     bf   34 -    34          6.141205494098         -3.998855848631          0.000000000000
      0.5769633942D+00  0.1000000000D+01
 Atom C2       Shell    15 S   1     bf   35 -    35          6.141205494098         -3.998855848631          0.000000000000
      0.2297283136D+00  0.1000000000D+01
 Atom C2       Shell    16 S   1     bf   36 -    36          6.141205494098         -3.998855848631          0.000000000000
      0.9516444003D-01  0.1000000000D+01
 Atom C2       Shell    17 P   4     bf   37 -    39          6.141205494098         -3.998855848631          0.000000000000
      0.3469723224D+02  0.1132722000D-01
      0.7958262283D+01  0.7616965920D-01
      0.2378082688D+01  0.3019225220D+00
      0.8143320818D+00  0.7278502735D+00
 Atom C2       Shell    18 P   1     bf   40 -    42          6.141205494098         -3.998855848631          0.000000000000
      0.2888754725D+00  0.1000000000D+01
 Atom C2       Shell    19 P   1     bf   43 -    45          6.141205494098         -3.998855848631          0.000000000000
      0.1005682367D+00  0.1000000000D+01
 Atom C2       Shell    20 D   1     bf   46 -    50          6.141205494098         -3.998855848631          0.000000000000
      0.1097000000D+01  0.1000000000D+01
 Atom C2       Shell    21 D   1     bf   51 -    55          6.141205494098         -3.998855848631          0.000000000000
      0.3180000000D+00  0.1000000000D+01
 Atom C2       Shell    22 F   1     bf   56 -    62          6.141205494098         -3.998855848631          0.000000000000
      0.7610000000D+00  0.1000000000D+01
 Atom C3       Shell    23 S   6     bf   63 -    63          8.645316208409         -3.117769817000          0.000000000000
      0.1357534968D+05  0.6064550360D-03
      0.2035233368D+04  0.4697908888D-02
      0.4632256236D+03  0.2433247765D-01
      0.1312001960D+03  0.9739996831D-01
      0.4285301589D+02  0.3019558425D+00
      0.1558418577D+02  0.6623360914D+00
 Atom C3       Shell    24 S   2     bf   64 -    64          8.645316208409         -3.117769817000          0.000000000000
      0.6206713851D+01  0.6559530854D+00
      0.2576489653D+01  0.3758563329D+00
 Atom C3       Shell    25 S   1     bf   65 -    65          8.645316208409         -3.117769817000          0.000000000000
      0.5769633942D+00  0.1000000000D+01
 Atom C3       Shell    26 S   1     bf   66 -    66          8.645316208409         -3.117769817000          0.000000000000
      0.2297283136D+00  0.1000000000D+01
 Atom C3       Shell    27 S   1     bf   67 -    67          8.645316208409         -3.117769817000          0.000000000000
      0.9516444003D-01  0.1000000000D+01
 Atom C3       Shell    28 P   4     bf   68 -    70          8.645316208409         -3.117769817000          0.000000000000
      0.3469723224D+02  0.1132722000D-01
      0.7958262283D+01  0.7616965920D-01
      0.2378082688D+01  0.3019225220D+00
      0.8143320818D+00  0.7278502735D+00
 Atom C3       Shell    29 P   1     bf   71 -    73          8.645316208409         -3.117769817000          0.000000000000
      0.2888754725D+00  0.1000000000D+01
 Atom C3       Shell    30 P   1     bf   74 -    76          8.645316208409         -3.117769817000          0.000000000000
      0.1005682367D+00  0.1000000000D+01
 Atom C3       Shell    31 D   1     bf   77 -    81          8.645316208409         -3.117769817000          0.000000000000
      0.1097000000D+01  0.1000000000D+01
 Atom C3       Shell    32 D   1     bf   82 -    86          8.645316208409         -3.117769817000          0.000000000000
      0.3180000000D+00  0.1000000000D+01
 Atom C3       Shell    33 F   1     bf   87 -    93          8.645316208409         -3.117769817000          0.000000000000
      0.7610000000D+00  0.1000000000D+01
 Atom C4       Shell    34 S   6     bf   94 -    94          9.137751210967         -0.570212724572          0.000000000000
      0.1357534968D+05  0.6064550360D-03
      0.2035233368D+04  0.4697908888D-02
      0.4632256236D+03  0.2433247765D-01
      0.1312001960D+03  0.9739996831D-01
      0.4285301589D+02  0.3019558425D+00
      0.1558418577D+02  0.6623360914D+00
 Atom C4       Shell    35 S   2     bf   95 -    95          9.137751210967         -0.570212724572          0.000000000000
      0.6206713851D+01  0.6559530854D+00
      0.2576489653D+01  0.3758563329D+00
 Atom C4       Shell    36 S   1     bf   96 -    96          9.137751210967         -0.570212724572          0.000000000000
      0.5769633942D+00  0.1000000000D+01
 Atom C4       Shell    37 S   1     bf   97 -    97          9.137751210967         -0.570212724572          0.000000000000
      0.2297283136D+00  0.1000000000D+01
 Atom C4       Shell    38 S   1     bf   98 -    98          9.137751210967         -0.570212724572          0.000000000000
      0.9516444003D-01  0.1000000000D+01
 Atom C4       Shell    39 P   4     bf   99 -   101          9.137751210967         -0.570212724572          0.000000000000
      0.3469723224D+02  0.1132722000D-01
      0.7958262283D+01  0.7616965920D-01
      0.2378082688D+01  0.3019225220D+00
      0.8143320818D+00  0.7278502735D+00
 Atom C4       Shell    40 P   1     bf  102 -   104          9.137751210967         -0.570212724572          0.000000000000
      0.2888754725D+00  0.1000000000D+01
 Atom C4       Shell    41 P   1     bf  105 -   107          9.137751210967         -0.570212724572          0.000000000000
      0.1005682367D+00  0.1000000000D+01
 Atom C4       Shell    42 D   1     bf  108 -   112          9.137751210967         -0.570212724572          0.000000000000
      0.1097000000D+01  0.1000000000D+01
 Atom C4       Shell    43 D   1     bf  113 -   117          9.137751210967         -0.570212724572          0.000000000000
      0.3180000000D+00  0.1000000000D+01
 Atom C4       Shell    44 F   1     bf  118 -   124          9.137751210967         -0.570212724572          0.000000000000
      0.7610000000D+00  0.1000000000D+01
 Atom C5       Shell    45 S   6     bf  125 -   125          4.604439062501          0.316057035596          0.000000000000
      0.1357534968D+05  0.6064550360D-03
      0.2035233368D+04  0.4697908888D-02
      0.4632256236D+03  0.2433247765D-01
      0.1312001960D+03  0.9739996831D-01
      0.4285301589D+02  0.3019558425D+00
      0.1558418577D+02  0.6623360914D+00
 Atom C5       Shell    46 S   2     bf  126 -   126          4.604439062501          0.316057035596          0.000000000000
      0.6206713851D+01  0.6559530854D+00
      0.2576489653D+01  0.3758563329D+00
 Atom C5       Shell    47 S   1     bf  127 -   127          4.604439062501          0.316057035596          0.000000000000
      0.5769633942D+00  0.1000000000D+01
 Atom C5       Shell    48 S   1     bf  128 -   128          4.604439062501          0.316057035596          0.000000000000
      0.2297283136D+00  0.1000000000D+01
 Atom C5       Shell    49 S   1     bf  129 -   129          4.604439062501          0.316057035596          0.000000000000
      0.9516444003D-01  0.1000000000D+01
 Atom C5       Shell    50 P   4     bf  130 -   132          4.604439062501          0.316057035596          0.000000000000
      0.3469723224D+02  0.1132722000D-01
      0.7958262283D+01  0.7616965920D-01
      0.2378082688D+01  0.3019225220D+00
      0.8143320818D+00  0.7278502735D+00
 Atom C5       Shell    51 P   1     bf  133 -   135          4.604439062501          0.316057035596          0.000000000000
      0.2888754725D+00  0.1000000000D+01
 Atom C5       Shell    52 P   1     bf  136 -   138          4.604439062501          0.316057035596          0.000000000000
      0.1005682367D+00  0.1000000000D+01
 Atom C5       Shell    53 D   1     bf  139 -   143          4.604439062501          0.316057035596          0.000000000000
      0.1097000000D+01  0.1000000000D+01
 Atom C5       Shell    54 D   1     bf  144 -   148          4.604439062501          0.316057035596          0.000000000000
      0.3180000000D+00  0.1000000000D+01
 Atom C5       Shell    55 F   1     bf  149 -   155          4.604439062501          0.316057035596          0.000000000000
      0.7610000000D+00  0.1000000000D+01
 Atom C6       Shell    56 S   6     bf  156 -   156          7.121491969696          1.186205522272          0.000000000000
      0.1357534968D+05  0.6064550360D-03
      0.2035233368D+04  0.4697908888D-02
      0.4632256236D+03  0.2433247765D-01
      0.1312001960D+03  0.9739996831D-01
      0.4285301589D+02  0.3019558425D+00
      0.1558418577D+02  0.6623360914D+00
[...]
 0675989,-0.00227535,0.,0.00000868,-0.00001031,0.,0.08211966,-0.0000275
 4,0.00001841,0.,-0.00000814,-0.00002263,0.,-0.00000658,0.00001206,0.,0
 .00004008,-0.00001606,0.,0.00037841,-0.00012755,0.,-0.00005924,-0.0000
 8293,0.,0.00005895,-0.00002531,0.,-0.00000877,0.00004452,0.,-0.0000171
 9,-0.00002662,0.,-0.00084521,-0.00069436,0.,-0.00164413,-0.00113036,0.
 ,0.00021247,-0.00009341,0.,-0.00009664,0.00001362,0.,-0.00015537,-0.00
 001960,0.,-0.00023116,0.00079145,0.,-0.00199191,-0.00064189,0.,0.00000
 878,-0.00001073,0.,-0.00001209,0.00000097,0.,0.00020259,0.00047345,0.,
 0.00376005,-0.00039259,0.,-0.00609775,-0.01696515,0.,-0.05767251,-0.33
 043836,0.,-0.00023252,0.00002660,0.,-0.00005267,-0.00002543,0.,-0.0000
 8606,0.00006554,0.,0.00011034,-0.00004101,0.,0.00017840,0.00017881,0.,
 0.00038389,-0.00047794,0.,-0.00151272,0.00137152,0.,-0.00067141,-0.007
 54485,0.,0.00220555,0.00123391,0.,-0.00034637,0.00002666,0.,-0.0000058
 4,-0.00000556,0.,-0.00000191,-0.00000881,0.,0.00000210,-0.00001486,0.,
 0.00000474,-0.00000381,0.,0.00003922,-0.00002758,0.,0.00001297,0.00000
 603,0.,-0.00006192,0.00006031,0.,0.00001005,-0.00001482,0.,-0.00299922
 ,0.00131686,0.,-0.00001364,-0.00002215,0.,0.06801101,0.35283427,0.,0.,
 -0.00005224,0.,0.,0.00007406,0.,0.,-0.00003338,0.,0.,0.00002128,0.,0.,
 0.00007045,0.,0.,-0.00009616,0.,0.,0.00004416,0.,0.,0.00001669,0.,0.,-
 0.00018065,0.,0.,0.00029446,0.,0.,-0.00271333,0.,0.,-0.00011793,0.,0.,
 0.00016722,0.,0.,-0.00006659,0.,0.,-0.00009324,0.,0.,-0.00078194,0.,0.
 ,-0.00077438,0.,0.,0.00001776,0.,0.,-0.00092920,0.,0.,0.00580245,0.,0.
 ,0.00281053,0.,0.,-0.03595882,0.,0.,-0.00013409,0.,0.,-0.00003316,0.,0
 .,0.00003008,0.,0.,0.00001762,0.,0.,0.00018122,0.,0.,0.00002476,0.,0.,
 0.00739077,0.,0.,0.00448927,0.,0.,-0.00465467,0.,0.,-0.00014564,0.,0.,
 -0.00001067,0.,0.,0.00000023,0.,0.,0.00000305,0.,0.,-0.00001222,0.,0.,
 0.00000288,0.,0.,0.00000642,0.,0.,0.00009377,0.,0.,-0.00007104,0.,0.,0
 .00218316,0.,0.,0.00015257,0.,0.,0.02247600,0.00002871,-0.00003270,0.,
 -0.00001552,0.00002492,0.,0.00001128,-0.00000503,0.,-0.00001772,-0.000
 00487,0.,-0.00000481,0.00000490,0.,0.00001081,0.00001042,0.,0.00000153
 ,-0.00000566,0.,-0.00001557,0.00000092,0.,-0.00002422,-0.00002128,0.,-
 0.00001056,-0.00004107,0.,0.00006861,0.00000343,0.,-0.00000581,0.00002
 862,0.,-0.00000640,-0.00001697,0.,-0.00001848,0.00001012,0.,0.00001499
 ,0.00000085,0.,-0.00002877,-0.00001175,0.,-0.00016882,-0.00022672,0.,0
 .00035580,0.00000638,0.,-0.00034728,-0.00013536,0.,-0.00010539,0.00009
 551,0.,-0.00010179,0.00008833,0.,0.00017562,-0.00012912,0.,-0.00055731
 ,-0.00078317,0.,-0.20621390,0.13904946,0.,0.00929104,-0.00720877,0.,0.
 00092403,-0.00217237,0.,-0.01735631,0.02310652,0.,-0.00443896,-0.00327
 542,0.,-0.00026851,0.00160575,0.,0.00005415,0.00012642,0.,0.00014215,-
 0.00041827,0.,0.00120174,0.00190558,0.,-0.00000007,-0.00000799,0.,-0.0
 0000068,0.00000335,0.,-0.00000270,0.00000149,0.,-0.00000248,0.00000168
 ,0.,-0.00000310,0.00000089,0.,-0.00000140,0.00000110,0.,-0.00000154,-0
 .00000033,0.,-0.00000242,-0.00000331,0.,0.00000151,-0.00000009,0.,-0.0
 0002528,0.00005152,0.,-0.00003124,-0.00002252,0.,0.21659598,-0.0000041
 2,0.00001798,0.,-0.00000797,-0.00001263,0.,0.00001519,0.00001107,0.,-0
 .00000087,-0.00001763,0.,0.00001084,-0.00001802,0.,0.00001323,0.000007
 48,0.,-0.00000665,-0.00001280,0.,-0.00001096,0.00001568,0.,-0.00001610
 ,-0.00004018,0.,0.00002593,-0.00000696,0.,0.00004696,0.00001272,0.,0.0
 0001296,0.00004638,0.,-0.00001865,-0.00000919,0.,0.00000050,0.00002462
 ,0.,0.00002531,-0.00000624,0.,-0.00000524,-0.00002162,0.,-0.00014159,-
 0.00014621,0.,0.00031917,-0.00001044,0.,0.00006655,0.00009608,0.,-0.00
 018180,-0.00005753,0.,-0.00011226,0.00017879,0.,0.00027649,-0.00006974
 ,0.,-0.00100745,-0.00008983,0.,0.13944739,-0.19320877,0.,0.02434194,-0
 .01545401,0.,-0.00290202,-0.00475651,0.,-0.00705038,0.00850770,0.,-0.0
 0229138,0.00015749,0.,-0.00029915,0.00037343,0.,-0.00030473,0.00013255
 ,0.,0.00046689,0.00003015,0.,-0.00158518,0.00112255,0.,-0.00000136,0.0
 0001209,0.,-0.00000102,-0.00000343,0.,0.00000388,-0.00000100,0.,0.0000
 0195,-0.00000261,0.,0.00000312,0.00000110,0.,0.00000150,-0.00000227,0.
 ,0.00000296,0.00000104,0.,0.00000163,0.00000307,0.,-0.00000392,-0.0000
 0347,0.,-0.00005473,0.00004041,0.,-0.00000302,0.00000344,0.,-0.1503226
 6,0.20326930,0.,0.,0.00008479,0.,0.,-0.00000957,0.,0.,-0.00000614,0.,0
 .,0.00000063,0.,0.,0.00000359,0.,0.,-0.00000272,0.,0.,-0.00000100,0.,0
 .,0.00002355,0.,0.,0.00000257,0.,0.,-0.00013191,0.,0.,-0.00001465,0.,0
 .,-0.00000836,0.,0.,0.00000186,0.,0.,-0.00000082,0.,0.,-0.00000682,0.,
 0.,0.00001108,0.,0.,0.00011561,0.,0.,-0.00089515,0.,0.,-0.00016185,0.,
 0.,0.00001962,0.,0.,0.00001762,0.,0.,-0.00004149,0.,0.,-0.00104280,0.,
 0.,-0.03569588,0.,0.,0.00251619,0.,0.,0.00692327,0.,0.,0.00320830,0.,0
 .,0.00708901,0.,0.,0.00014881,0.,0.,0.00021399,0.,0.,-0.00014623,0.,0.
 ,-0.00417212,0.,0.,0.00000604,0.,0.,0.00000218,0.,0.,0.00000196,0.,0.,
 -0.00000342,0.,0.,0.00000229,0.,0.,-0.00000031,0.,0.,0.00000096,0.,0.,
 0.00000317,0.,0.,-0.00000548,0.,0.,0.00004475,0.,0.,0.00004287,0.,0.,0
 .02482214,-0.00001294,-0.00009900,0.,-0.00001544,0.00003990,0.,-0.0000
 0337,-0.00003143,0.,-0.00001997,0.00002519,0.,-0.00002581,0.00005967,0
 .,-0.00001441,0.00001134,0.,-0.00001516,0.00000358,0.,0.00001647,0.000
 00062,0.,-0.00003275,-0.00001336,0.,0.00002274,-0.00003020,0.,0.000030
 78,0.00001895,0.,0.00000785,0.00004033,0.,-0.00000759,-0.00001547,0.,-
 0.00000400,0.00000703,0.,0.00000586,-0.00000845,0.,-0.00001477,-0.0000
 1184,0.,-0.00026860,0.00027038,0.,-0.00064887,-0.00083919,0.,0.0001050
 1,0.00012397,0.,-0.00007156,-0.00004376,0.,-0.00001829,0.00006039,0.,0
 .00007237,-0.00005510,0.,-0.00105016,0.00396371,0.,-0.00337710,0.00066
 298,0.,-0.32120424,-0.07378584,0.,-0.01703063,-0.00918377,0.,0.0017612
 9,-0.00104772,0.,0.00049946,0.00047994,0.,0.00002167,-0.00002867,0.,-0
 .00009923,-0.00000794,0.,0.00009539,-0.00020502,0.,-0.00038521,0.00014
 752,0.,0.00000198,-0.00001457,0.,-0.00000221,0.00001164,0.,-0.00000576
 ,0.00000082,0.,-0.00000354,0.00000365,0.,-0.00000649,-0.00000072,0.,-0
 .00000100,0.00000314,0.,-0.00000496,-0.00000119,0.,-0.00000134,-0.0000
 0419,0.,0.00000528,0.00000533,0.,0.00000880,0.00003633,0.,0.00000245,-
 0.00000390,0.,0.00075046,-0.00034261,0.,0.34013417,0.00005620,0.000097
 77,0.,0.00000622,-0.00002413,0.,-0.00001648,0.00001038,0.,0.00001866,0
 .00000841,0.,0.00000713,-0.00003239,0.,-0.00000472,-0.00001080,0.,0.00
 000366,0.00001388,0.,0.00001329,-0.00001288,0.,0.00003572,0.00006905,0
 .,-0.00006112,0.00000445,0.,-0.00007496,-0.00001524,0.,-0.00001412,-0.
 00006856,0.,0.00002398,0.00002113,0.,0.00000677,-0.00003115,0.,-0.0000
 3212,0.00000904,0.,0.00001812,0.00002664,0.,0.00045068,-0.00006427,0.,
 0.00044268,0.00080879,0.,-0.00027038,-0.00029096,0.,0.00019863,0.00015
 958,0.,0.00017319,-0.00021647,0.,-0.00032906,0.00010166,0.,0.00354092,
 -0.00307151,0.,-0.03092122,-0.00296614,0.,-0.07397990,-0.08166052,0.,0
 .02249971,0.01050364,0.,-0.00057097,-0.00584347,0.,0.00062530,-0.00098
 756,0.,-0.00014528,0.00006352,0.,0.00042360,-0.00003352,0.,-0.00025766
 ,-0.00049408,0.,-0.00125842,0.00054063,0.,0.00000231,0.00000755,0.,0.0
 0000214,-0.00000204,0.,0.00000054,0.00000051,0.,0.00000148,0.00000123,
 0.,-0.00000139,0.00000017,0.,-0.00000129,0.00000090,0.,-0.00000133,-0.
 00000048,0.,-0.00000082,-0.00000096,0.,0.00000290,0.00000428,0.,-0.000
 01682,-0.00002091,0.,0.00000782,0.00000357,0.,0.00044192,0.00084090,0.
 ,0.07948544,0.08184515,0.,0.,-0.00003488,0.,0.,-0.00000951,0.,0.,0.000
 00102,0.,0.,-0.00000278,0.,0.,0.00002364,0.,0.,0.00000251,0.,0.,-0.000
 00029,0.,0.,0.00000006,0.,0.,-0.00000591,0.,0.,-0.00000686,0.,0.,0.000
 00361,0.,0.,0.00000207,0.,0.,-0.00000236,0.,0.,-0.00000001,0.,0.,-0.00
 000290,0.,0.,0.00000038,0.,0.,-0.00050453,0.,0.,0.00020446,0.,0.,0.000
 08072,0.,0.,0.00004715,0.,0.,-0.00000385,0.,0.,0.00003865,0.,0.,0.0083
 7856,0.,0.,0.00244196,0.,0.,-0.03766902,0.,0.,0.00281789,0.,0.,0.00734
 754,0.,0.,-0.00089036,0.,0.,-0.00081270,0.,0.,0.00008710,0.,0.,-0.0003
 4790,0.,0.,0.00018667,0.,0.,-0.00000007,0.,0.,0.00000228,0.,0.,0.00000
 099,0.,0.,0.00000147,0.,0.,0.00000050,0.,0.,0.00000113,0.,0.,0.0000009
 2,0.,0.,0.00000079,0.,0.,0.00000250,0.,0.,0.00013149,0.,0.,-0.00000818
 ,0.,0.,-0.00359640,0.,0.,0.02631550,-0.00002050,0.00000353,0.,-0.00008
 008,-0.00006520,0.,0.00003042,0.00005185,0.,0.00001234,-0.00001157,0.,
 -0.00001932,-0.00002600,0.,0.00000976,-0.00001420,0.,-0.00000494,0.000
 01596,0.,0.00000682,0.00000020,0.,0.00003313,0.00003642,0.,-0.00004395
 ,-0.00000474,0.,-0.00002553,-0.00000296,0.,-0.00002785,-0.00006092,0.,
 0.00001850,0.00001801,0.,-0.00000774,-0.00001990,0.,-0.00001700,0.0000
 1841,0.,0.00000500,0.00000983,0.,0.00015155,0.00051559,0.,0.00137054,-
 0.00180202,0.,0.00002001,-0.00019859,0.,0.00017335,0.00020246,0.,0.000
 08349,-0.00014594,0.,-0.00016648,-0.00010431,0.,-0.00272900,-0.0299948
 9,0.,-0.00287803,0.00323068,0.,0.01005122,0.02325440,0.,-0.07703154,-0
 .06666483,0.,-0.00123260,0.00021337,0.,-0.00551740,-0.00019769,0.,0.00
 034413,-0.00160683,0.,-0.00026367,0.00001800,0.,-0.00024701,0.00010983
 ,0.,0.00033560,0.00015355,0.,-0.00000196,0.00004936,0.,-0.00000509,0.0
 0000134,0.,0.00000807,0.00000198,0.,0.00000153,-0.00000060,0.,0.000001
 49,0.00000075,0.,-0.00000451,-0.00000133,0.,0.00000085,0.00000058,0.,-
 0.00000056,0.00000028,0.,-0.00000036,0.00000560,0.,-0.00051800,0.00110
 771,0.,-0.00005176,-0.00002145,0.,0.00026715,0.00112535,0.,0.00083359,
 -0.00041048,0.,0.07713984,0.00002198,-0.00008521,0.,-0.00004045,0.0000
 3411,0.,0.00002280,0.00000002,0.,-0.00001845,-0.00000127,0.,-0.0000303
 7,0.00001381,0.,0.00000068,0.00000721,0.,-0.00001579,0.00000626,0.,0.0
 0000871,0.00000547,0.,-0.00003555,-0.00003342,0.,0.00004681,-0.0000388
 4,0.,0.00005893,0.00002727,0.,-0.00000965,0.00003169,0.,-0.00000812,-0
 .00001511,0.,-0.00001827,0.00001106,0.,0.00001332,0.00000410,0.,-0.000
 02076,-0.00001943,0.,-0.00045234,0.00001522,0.,0.00176523,0.00096234,0
 .,0.00013927,0.00027160,0.,-0.00010383,-0.00002055,0.,-0.00008532,0.00
 009836,0.,0.00013277,-0.00006605,0.,0.00008810,-0.00596409,0.,0.004012
 20,-0.00084007,0.,-0.00843747,-0.01640436,0.,-0.06661208,-0.32201847,0
 .,0.00027763,0.00054882,0.,-0.00138594,0.00134986,0.,0.00046109,-0.000
 37428,0.,-0.00028264,-0.00000414,0.,0.00001494,-0.00000912,0.,-0.00005
 076,-0.00004240,0.,-0.00000086,0.00000174,0.,-0.00000331,0.00000864,0.
 ,-0.00000207,0.00000182,0.,-0.00000243,0.00000268,0.,-0.00000351,-0.00
 000066,0.,-0.00000446,0.00000135,0.,-0.00000322,-0.00000033,0.,-0.0000
 0110,-0.00000345,0.,0.00000349,0.00000552,0.,-0.00067616,0.00038496,0.
 ,-0.00001583,-0.00001334,0.,-0.00039647,-0.00091253,0.,0.00034156,0.00
 078028,0.,0.07130247,0.34229589,0.,0.,0.00021813,0.,0.,-0.00005161,0.,
 0.,0.00000096,0.,0.,-0.00000506,0.,0.,-0.00000444,0.,0.,0.00000191,0.,
 0.,-0.00000095,0.,0.,0.00000027,0.,0.,0.00000009,0.,0.,0.00001145,0.,0
 .,-0.00001147,0.,0.,-0.00000016,0.,0.,0.00000045,0.,0.,-0.00000080,0.,
 0.,0.00000127,0.,0.,-0.00000240,0.,0.,-0.00023737,0.,0.,-0.00348574,0.
 ,0.,0.00015308,0.,0.,-0.00001838,0.,0.,0.00005462,0.,0.,-0.00000548,0.
 ,0.,0.00297565,0.,0.,0.00782067,0.,0.,0.00294428,0.,0.,-0.03549275,0.,
 0.,-0.00101989,0.,0.,0.00617272,0.,0.,0.00004765,0.,0.,0.00007273,0.,0
 .,0.00010638,0.,0.,-0.00104888,0.,0.,0.00003730,0.,0.,0.00000710,0.,0.
 ,0.00000254,0.,0.,-0.00000361,0.,0.,0.00000115,0.,0.,0.00000096,0.,0.,
 0.00000101,0.,0.,-0.00000006,0.,0.,0.00000013,0.,0.,0.00026353,0.,0.,-
 0.00012956,0.,0.,0.00013689,0.,0.,-0.00426505,0.,0.,0.02459891,0.00004
 256,0.00009652,0.,-0.00003050,0.00000227,0.,0.00000808,0.00001821,0.,0
 .00000434,-0.00000670,0.,0.00002151,-0.00000045,0.,-0.00000369,-0.0000
 1773,0.,-0.00000151,0.00001216,0.,-0.00000229,-0.00001719,0.,-0.000021
 44,0.00003824,0.,-0.00000156,-0.00007868,0.,-0.00001799,-0.00001205,0.
 ,0.00001695,0.00001341,0.,0.00001335,-0.00001306,0.,0.00000583,-0.0000
 0061,0.,0.00000784,-0.00003769,0.,-0.00002215,0.00007981,0.,-0.0003341
 8,0.00010521,0.,0.00001025,-0.00001578,0.,0.00059130,0.00103040,0.,0.0
 0017562,0.00011461,0.,0.00003927,-0.00040839,0.,0.00148864,0.00155917,
 0.,0.00018229,0.00009744,0.,0.00049910,-0.00136684,0.,-0.00043739,-0.0
 0018469,0.,-0.00013880,0.00007692,0.,-0.00553472,0.00025582,0.,-0.0005
 9731,0.00002133,0.,-0.00363016,0.00222343,0.,0.00837999,0.02207989,0.,
 -0.07636759,-0.06743776,0.,-0.00336052,-0.03201577,0.,0.00000198,0.000
 00294,0.,-0.00000299,0.00000058,0.,0.00000114,-0.00000031,0.,0.0000003
 6,-0.00000208,0.,-0.00000161,0.00000383,0.,0.00000513,-0.00000123,0.,0
 .00000680,-0.00000336,0.,-0.00000303,0.00000202,0.,-0.00001999,-0.0000
 3575,0.,0.00001696,-0.00001018,0.,-0.00055321,-0.00066420,0.,-0.000035
 12,0.00004438,0.,-0.00003968,-0.00015132,0.,0.00000956,-0.00001586,0.,
 0.07884330,-0.00010369,-0.00008040,0.,0.00003868,-0.00003138,0.,-0.000
 00686,0.00000605,0.,0.00000778,-0.00000824,0.,0.00000479,-0.00001759,0
 .,0.00000658,0.00000254,0.,0.00003453,-0.00000791,0.,-0.00001390,-0.00
 000501,0.,0.00005873,-0.00000263,0.,-0.00000087,0.00013330,0.,-0.00009
 084,-0.00007946,0.,-0.00000917,-0.00008380,0.,0.00000462,0.00003887,0.
 ,0.00001858,-0.00001617,0.,-0.00002423,0.00004800,0.,0.00007610,-0.000
 04354,0.,0.00038957,-0.00006508,0.,-0.00005578,0.00002081,0.,-0.001020
 72,-0.00080454,0.,0.00006493,0.00023306,0.,0.00043223,0.00005113,0.,-0
 .00179711,0.00113847,0.,0.00000267,-0.00007147,0.,0.00013592,-0.000397
 65,0.,-0.00023828,0.00002153,0.,0.00004532,0.00004685,0.,-0.00108832,0
 .00170951,0.,0.00042423,0.00049968,0.,0.00375595,-0.00068112,0.,-0.008
 05377,-0.01742625,0.,-0.06862361,-0.32127991,0.,0.00043032,-0.00440964
 ,0.,-0.00000482,0.00000572,0.,0.00000228,-0.00000927,0.,0.00000467,-0.
 00000147,0.,0.00000212,-0.00000307,0.,0.00001138,-0.00000507,0.,-0.000
 00062,-0.00000251,0.,0.00000087,0.00000445,0.,0.00000989,0.00000705,0.
 ,0.00001469,0.00002242,0.,-0.00001050,-0.00002125,0.,0.00112384,0.0004
 1203,0.,-0.00002457,0.00001263,0.,-0.00000718,-0.00003922,0.,-0.000013
 42,-0.00001823,0.,0.07439151,0.34027546,0.,0.,-0.00001628,0.,0.,-0.000
 00362,0.,0.,-0.00000120,0.,0.,0.00000013,0.,0.,-0.00000820,0.,0.,-0.00
 000167,0.,0.,-0.00000247,0.,0.,-0.00000195,0.,0.,0.00000121,0.,0.,0.00
 004061,0.,0.,0.00006391,0.,0.,0.00000661,0.,0.,-0.00001085,0.,0.,-0.00
 000140,0.,0.,-0.00000794,0.,0.,-0.00003580,0.,0.,0.00000865,0.,0.,0.00
 004219,0.,0.,0.00017908,0.,0.,-0.00001532,0.,0.,-0.00019745,0.,0.,-0.0
 0183733,0.,0.,-0.00073302,0.,0.,0.00003685,0.,0.,-0.00084472,0.,0.,0.0
 0012177,0.,0.,0.01069600,0.,0.,-0.00075883,0.,0.,0.00347522,0.,0.,0.00
 269435,0.,0.,-0.03701820,0.,0.,0.00445350,0.,0.,0.00000149,0.,0.,0.000
 00171,0.,0.,0.00000058,0.,0.,0.00000209,0.,0.,0.00000114,0.,0.,0.00000
 354,0.,0.,0.00000279,0.,0.,0.00000802,0.,0.,0.00004503,0.,0.,0.0000111
 6,0.,0.,0.00026054,0.,0.,0.00026273,0.,0.,-0.00002648,0.,0.,0.00010959
 ,0.,0.,0.02504271,0.00002110,0.00001048,0.,-0.00000784,0.00001113,0.,0
 .00000444,-0.00000268,0.,-0.00000444,0.00000081,0.,-0.00001539,0.00001
 405,0.,0.00000466,0.00000806,0.,-0.00001665,-0.00000109,0.,0.00000680,
 0.00001346,0.,-0.00001605,-0.00002952,0.,0.00003091,-0.00003481,0.,0.0
 0002079,0.00016299,0.,-0.00004663,-0.00000129,0.,-0.00001393,-0.000001
 75,0.,-0.00002229,0.00000609,0.,0.00001005,0.00000506,0.,-0.00002916,-
 0.00002355,0.,-0.00003030,-0.00001840,0.,-0.00005121,-0.00008983,0.,0.
 00019149,0.00005675,0.,-0.00006379,-0.00012923,0.,-0.00046925,-0.00014
 710,0.,-0.00033259,0.00136672,0.,0.00024395,-0.00038526,0.,0.00128889,
 -0.00119210,0.,0.00000272,0.00040904,0.,0.00026899,-0.00008759,0.,0.00
 787959,-0.00678468,0.,-0.00013036,-0.00197279,0.,-0.00014820,-0.000338
 96,0.,-0.00385649,-0.00365585,0.,-0.01756909,0.02385740,0.,-0.20364933
 ,0.13945668,0.,0.00000351,-0.00000260,0.,0.00000026,0.00000512,0.,-0.0
 0000337,0.00000216,0.,-0.00000201,0.00000392,0.,-0.00000504,-0.0000005
 2,0.,-0.00000921,0.00000075,0.,-0.00000586,-0.00000034,0.,-0.00000674,
 -0.00000754,0.,0.00000808,0.00001797,0.,0.00003681,-0.00001922,0.,0.00
 000172,-0.00004899,0.,-0.00008337,0.00042167,0.,0.00000941,0.00003087,
 0.,-0.00001305,0.00002104,0.,0.00078529,-0.00030449,0.,0.21578219,-0.0
 0002070,0.00003777,0.,0.00001228,-0.00002694,0.,0.00000799,0.00001922,
 0.,0.00001804,-0.00001493,0.,-0.00000462,-0.00002004,0.,-0.00000105,-0
 .00000917,0.,-0.00001890,0.00000173,0.,0.00001050,0.00001600,0.,-0.000
 00079,-0.00000597,0.,0.00002611,-0.00000713,0.,-0.00000742,0.00005349,
 0.,-0.00000084,0.00001311,0.,-0.00001043,0.00000339,0.,0.00000487,0.00
 000968,0.,0.00000891,-0.00000313,0.,0.00000390,-0.00001227,0.,0.000022
 59,0.00008287,0.,-0.00036279,-0.00036831,0.,0.00017482,-0.00004415,0.,
 -0.00009479,-0.00009346,0.,-0.00012909,0.00006744,0.,-0.00002866,0.000
 39415,0.,0.00167043,-0.00038953,0.,0.00172332,0.00135624,0.,-0.0003099
 7,-0.00000743,0.,-0.00011952,0.00011199,0.,0.02342013,-0.01628279,0.,-
 0.00340321,-0.00427075,0.,-0.00079507,0.00000164,0.,-0.00242472,0.0000
 8761,0.,-0.00852690,0.00994059,0.,0.14080976,-0.19481164,0.,0.00000380
 ,0.00001745,0.,0.00000071,-0.00000359,0.,0.00000335,-0.00000024,0.,0.0
 0000250,-0.00000102,0.,0.00000118,0.00000083,0.,-0.00000155,-0.0000014
 9,0.,0.00000044,0.00000057,0.,-0.00000008,0.00000120,0.,-0.00000048,0.
 00000522,0.,0.00010436,-0.00011812,0.,0.00001161,-0.00000633,0.,-0.001
 30364,-0.00005503,0.,-0.00002226,-0.00003585,0.,-0.00007962,0.00001528
 ,0.,0.00022757,0.00092234,0.,-0.15060205,0.20342950,0.,0.,0.00001096,0
 .,0.,0.00000698,0.,0.,-0.00000486,0.,0.,-0.00000179,0.,0.,-0.00000950,
 0.,0.,-0.00000919,0.,0.,0.00000102,0.,0.,-0.00001591,0.,0.,-0.00001455
 ,0.,0.,0.00010184,0.,0.,-0.00003986,0.,0.,0.00006290,0.,0.,0.00000079,
 0.,0.,-0.00000645,0.,0.,0.00000063,0.,0.,-0.00002207,0.,0.,0.00002876,
 0.,0.,-0.00001071,0.,0.,-0.00059404,0.,0.,0.00008285,0.,0.,-0.00092826
 ,0.,0.,0.00002435,0.,0.,0.00008084,0.,0.,-0.00175239,0.,0.,-0.00020140
 ,0.,0.,0.00000598,0.,0.,0.00270412,0.,0.,0.00358841,0.,0.,-0.00080456,
 0.,0.,0.01075974,0.,0.,0.00442677,0.,0.,-0.03732966,0.,0.,0.00000708,0
 .,0.,0.00000120,0.,0.,0.00000158,0.,0.,0.00000425,0.,0.,0.00000157,0.,
 0.,0.00000729,0.,0.,0.00000144,0.,0.,0.00000274,0.,0.,0.00000075,0.,0.
 ,-0.00002740,0.,0.,0.00032278,0.,0.,0.00023664,0.,0.,0.00006848,0.,0.,
 0.00004225,0.,0.,-0.00605044,0.,0.,0.02523808\\0.00000125,-0.00000068,
 0.,0.00000065,0.00000197,0.,0.00000145,-0.00000045,0.,0.00000132,0.000
 00077,0.,0.00000082,-0.00000130,0.,-0.00000078,0.00000040,0.,0.0000020
 2,0.00000254,0.,0.00000183,-0.00000021,0.,-0.00000270,-0.00000010,0.,0
 .00000243,0.00000189,0.,0.00000026,0.00000162,0.,0.00000050,0.00000214
 ,0.,-0.00000166,0.00000051,0.,-0.00000023,0.00000269,0.,-0.00000005,0.
 00000160,0.,-0.00000261,-0.00000150,0.,-0.00000145,-0.00000192,0.,0.00
 000450,-0.00000083,0.,0.,0.00000144,0.,-0.00000062,-0.00000008,0.,-0.0
 0000118,0.00000096,0.,0.00000188,-0.00000027,0.,-0.00000158,-0.0000012
 0,0.,-0.00000087,-0.00000304,0.,-0.00000025,-0.00000038,0.,0.00000178,
 -0.00000139,0.,0.00000104,-0.00000189,0.,-0.00000222,-0.00000005,0.,0.
 00000127,-0.00000048,0.,-0.00000150,-0.00000151,0.,-0.00000272,-0.0000
 0081,0.,0.00000008,-0.00000030,0.,0.00000025,-0.00000057,0.,0.00000152
 ,0.00000030,0.,0.00000191,0.00000096,0.,0.00000082,0.00000072,0.,-0.00
 000074,0.00000006,0.,-0.00000002,0.00000339,0.,-0.00000091,0.00000176,
 0.,-0.00000163,0.00000129,0.,-0.00000112,0.00000125,0.,0.00000054,-0.0
 0000189,0.,-0.00000140,0.00000034,0.,-0.00000059,-0.00000156,0.,0.0000
 0011,-0.00000218,0.,0.00000060,-0.00000174,0.,-0.00000059,-0.00000071,
 0.,-0.00000143,-0.00000157,0.\\\@


 THERE IS MUCH PLEASURE TO BE GAINED FROM USELESS KNOWLEDGE

                                       -- BERTRAND RUSSELL
 Job cpu time:       4 days 14 hours 29 minutes 59.9 seconds.
 File lengths (MBytes):  RWF=   4428 Int=      0 D2E=      0 Chk=     85 Scr=      1
 Normal termination of Gaussian 09 at Sun Jul 28 00:14:45 2019.
