 Entering Gaussian System, Link 0=g09
 Initial command:
 /home/minenky/programs//g09/l1.exe "/local/scratch/minenky/m1_00_120835-99-6-C32H16_wB97XD/Gau-42061.inp" -scrdir="/local/scratch/minenky/m1_00_120835-99-6-C32H16_wB97XD/"
 Entering Link 1 = /home/minenky/programs//g09/l1.exe PID=     42062.
  
 Copyright (c) 1988,1990,1992,1993,1995,1998,2003,2009,2013,
            Gaussian, Inc.  All Rights Reserved.
  
 This is part of the Gaussian(R) 09 program.  It is based on
 the Gaussian(R) 03 system (copyright 2003, Gaussian, Inc.),
 the Gaussian(R) 98 system (copyright 1998, Gaussian, Inc.),
 the Gaussian(R) 94 system (copyright 1995, Gaussian, Inc.),
 the Gaussian 92(TM) system (copyright 1992, Gaussian, Inc.),
 the Gaussian 90(TM) system (copyright 1990, Gaussian, Inc.),
 the Gaussian 88(TM) system (copyright 1988, Gaussian, Inc.),
 the Gaussian 86(TM) system (copyright 1986, Carnegie Mellon
 University), and the Gaussian 82(TM) system (copyright 1983,
 Carnegie Mellon University). Gaussian is a federally registered
 trademark of Gaussian, Inc.
  
 This software contains proprietary and confidential information,
 including trade secrets, belonging to Gaussian, Inc.
  
 This software is provided under written license and may be
 used, copied, transmitted, or stored only in accord with that
 written license.
  
 The following legend is applicable only to US Government
 contracts under FAR:
  
                    RESTRICTED RIGHTS LEGEND
  
 Use, reproduction and disclosure by the US Government is
 subject to restrictions as set forth in subparagraphs (a)
 and (c) of the Commercial Computer Software - Restricted
 Rights clause in FAR 52.227-19.
  
 Gaussian, Inc.
 340 Quinnipiac St., Bldg. 40, Wallingford CT 06492
  
  
 ---------------------------------------------------------------
 Warning -- This program may not be used in any manner that
 competes with the business of Gaussian, Inc. or will provide
 assistance to any competitor of Gaussian, Inc.  The licensee
 of this program is prohibited from giving any competitor of
 Gaussian, Inc. access to this program.  By using this program,
 the user acknowledges that Gaussian, Inc. is engaged in the
 business of creating and licensing software in the field of
 computational chemistry and represents and warrants to the
 licensee that it is not a competitor of Gaussian, Inc. and that
 it will not use this program in any manner prohibited above.
 ---------------------------------------------------------------
  

 Cite this work as:
 Gaussian 09, Revision D.01,
 M. J. Frisch, G. W. Trucks, H. B. Schlegel, G. E. Scuseria, 
 M. A. Robb, J. R. Cheeseman, G. Scalmani, V. Barone, B. Mennucci, 
 G. A. Petersson, H. Nakatsuji, M. Caricato, X. Li, H. P. Hratchian, 
 A. F. Izmaylov, J. Bloino, G. Zheng, J. L. Sonnenberg, M. Hada, 
 M. Ehara, K. Toyota, R. Fukuda, J. Hasegawa, M. Ishida, T. Nakajima, 
 Y. Honda, O. Kitao, H. Nakai, T. Vreven, J. A. Montgomery, Jr., 
 J. E. Peralta, F. Ogliaro, M. Bearpark, J. J. Heyd, E. Brothers, 
 K. N. Kudin, V. N. Staroverov, T. Keith, R. Kobayashi, J. Normand, 
 K. Raghavachari, A. Rendell, J. C. Burant, S. S. Iyengar, J. Tomasi, 
 M. Cossi, N. Rega, J. M. Millam, M. Klene, J. E. Knox, J. B. Cross, 
 V. Bakken, C. Adamo, J. Jaramillo, R. Gomperts, R. E. Stratmann, 
 O. Yazyev, A. J. Austin, R. Cammi, C. Pomelli, J. W. Ochterski, 
 R. L. Martin, K. Morokuma, V. G. Zakrzewski, G. A. Voth, 
 P. Salvador, J. J. Dannenberg, S. Dapprich, A. D. Daniels, 
 O. Farkas, J. B. Foresman, J. V. Ortiz, J. Cioslowski, 
 and D. J. Fox, Gaussian, Inc., Wallingford CT, 2013.
 
 ******************************************
 Gaussian 09:  AM64L-G09RevD.01 24-Apr-2013
                27-Jul-2019 
 ******************************************
 %Mem=32000MB
 %NProcShared=16
 Will use up to   16 processors via shared memory.
 %Chk=m1_00_120835-99-6-C32H16_wB97XD
 ----------------------------------------------------------------------
 #P wB97XD/def2tzvp opt=(tight) freq integral(Grid=ultrafine) # SCF(Max
 Cycle=380) 5d 7f GFPrint
 ----------------------------------------------------------------------
 1/7=10,14=-1,18=20,19=15,26=4,38=1/1,3;
 2/9=110,12=2,17=6,18=5,40=1/2;
 3/5=44,7=101,8=11,11=2,16=1,24=100,25=1,30=1,71=1,74=-58,75=-5/1,2,3;
 4//1;
 5/5=2,7=380,38=5/2;
 6/7=2,8=2,9=2,10=2,28=1/1;
 7//1,2,3,16;
 1/7=10,14=-1,18=20,19=15,26=4/3(2);
 2/9=110/2;
 99//99;
 2/9=110/2;
 3/5=44,7=101,8=11,11=2,16=1,25=1,30=1,71=1,74=-58,75=-5/1,2,3;
 4/5=5,16=3,69=1/1;
 5/5=2,7=380,38=5/2;
 7//1,2,3,16;
 1/7=10,14=-1,18=20,19=15,26=4/3(-5);
 2/9=110/2;
 6/7=2,8=2,9=2,10=2,19=2,28=1/1;
 99/9=1/99;
 Leave Link    1 at Sat Jul 27 12:19:09 2019, MaxMem=  4194304000 cpu:         1.5
 (Enter /home/minenky/programs//g09/l101.exe)
 ---------------------------------------
 The PBEPBE optimization and frequencies
 ---------------------------------------
 Symbolic Z-matrix:
 Charge =  0 Multiplicity = 1
 C                     2.72051   1.78092   0. 
 C                     2.1378   -0.99105   0. 
 C                     1.82939  -2.34322   0. 
 C                    -3.41127   2.40504   0. 
 C                    -2.08471   2.84127   0. 
 C                     0.58371   3.70888   0. 
 C                    -0.47471   4.65278   0. 
 C                    -1.77149   4.23777   0. 
 C                    -1.02679   1.89219   0. 
 C                    -1.32261   0.51758   0. 
 C                    -0.24395  -0.45297   0. 
 C                     1.08875  -0.02826   0. 
 C                     1.41753   1.38124   0. 
 C                     0.33084   2.359     0. 
 C                     0.49442  -2.78419   0. 
 C                    -0.55434  -1.83466   0. 
 C                    -1.90991  -2.29396   0. 
 C                    -2.17013  -3.64604   0. 
 C                    -1.1181   -4.58966   0. 
 C                     0.18335  -4.17519   0. 
 C                    -2.66155   0.08353   0. 
 C                    -3.712     1.03999   0. 
 C                    -5.06943   0.58871   0. 
 C                    -5.35363  -0.74359   0. 
 C                    -4.30936  -1.70194   0. 
 C                    -2.992    -1.31346   0. 
 C                     3.79893   0.83417   0. 
 C                     3.51969  -0.54262   0. 
 C                     4.58998  -1.45725   0. 
 C                     5.8951   -1.01129   0. 
 C                     6.17042   0.36301   0. 
 C                     5.13695   1.27602   0. 
 H                     2.96405   2.85614   0. 
 H                     2.64779  -3.08148   0. 
 H                    -4.22547   3.14043   0. 
 H                     1.62489   4.06682   0. 
 H                    -0.22747   5.7195    0. 
 H                    -2.59617   4.95951   0. 
 H                    -3.21455  -3.99475   0. 
 H                    -1.36457  -5.65656   0. 
 H                     1.00563  -4.89954   0. 
 H                    -5.87025   1.33685   0. 
 H                    -6.39061  -1.09527   0. 
 H                    -4.55773  -2.77462   0. 
 H                     4.36206  -2.53421   0. 
 H                     6.72183  -1.72911   0. 
 H                     7.21006   0.70644   0. 
 H                     5.34688   2.35165   0. 
 
 NAtoms=     48 NQM=       48 NQMF=       0 NMMI=      0 NMMIF=      0
                NMic=       0 NMicF=      0.
                    Isotopes and Nuclear Properties:
 (Nuclear quadrupole moments (NQMom) in fm**2, nuclear magnetic moments (NMagM)
  in nuclear magnetons)

  Atom         1           2           3           4           5           6           7           8           9          10
 IAtWgt=          12          12          12          12          12          12          12          12          12          12
 AtmWgt=  12.0000000  12.0000000  12.0000000  12.0000000  12.0000000  12.0000000  12.0000000  12.0000000  12.0000000  12.0000000
 NucSpn=           0           0           0           0           0           0           0           0           0           0
 AtZEff=   0.0000000   0.0000000   0.0000000   0.0000000   0.0000000   0.0000000   0.0000000   0.0000000   0.0000000   0.0000000
 NQMom=    0.0000000   0.0000000   0.0000000   0.0000000   0.0000000   0.0000000   0.0000000   0.0000000   0.0000000   0.0000000
 NMagM=    0.0000000   0.0000000   0.0000000   0.0000000   0.0000000   0.0000000   0.0000000   0.0000000   0.0000000   0.0000000
 AtZNuc=   6.0000000   6.0000000   6.0000000   6.0000000   6.0000000   6.0000000   6.0000000   6.0000000   6.0000000   6.0000000

  Atom        11          12          13          14          15          16          17          18          19          20
 IAtWgt=          12          12          12          12          12          12          12          12          12          12
 AtmWgt=  12.0000000  12.0000000  12.0000000  12.0000000  12.0000000  12.0000000  12.0000000  12.0000000  12.0000000  12.0000000
 NucSpn=           0           0           0           0           0           0           0           0           0           0
 AtZEff=   0.0000000   0.0000000   0.0000000   0.0000000   0.0000000   0.0000000   0.0000000   0.0000000   0.0000000   0.0000000
 NQMom=    0.0000000   0.0000000   0.0000000   0.0000000   0.0000000   0.0000000   0.0000000   0.0000000   0.0000000   0.0000000
 NMagM=    0.0000000   0.0000000   0.0000000   0.0000000   0.0000000   0.0000000   0.0000000   0.0000000   0.0000000   0.0000000
 AtZNuc=   6.0000000   6.0000000   6.0000000   6.0000000   6.0000000   6.0000000   6.0000000   6.0000000   6.0000000   6.0000000

  Atom        21          22          23          24          25          26          27          28          29          30
 IAtWgt=          12          12          12          12          12          12          12          12          12          12
 AtmWgt=  12.0000000  12.0000000  12.0000000  12.0000000  12.0000000  12.0000000  12.0000000  12.0000000  12.0000000  12.0000000
 NucSpn=           0           0           0           0           0           0           0           0           0           0
 AtZEff=   0.0000000   0.0000000   0.0000000   0.0000000   0.0000000   0.0000000   0.0000000   0.0000000   0.0000000   0.0000000
 NQMom=    0.0000000   0.0000000   0.0000000   0.0000000   0.0000000   0.0000000   0.0000000   0.0000000   0.0000000   0.0000000
 NMagM=    0.0000000   0.0000000   0.0000000   0.0000000   0.0000000   0.0000000   0.0000000   0.0000000   0.0000000   0.0000000
 AtZNuc=   6.0000000   6.0000000   6.0000000   6.0000000   6.0000000   6.0000000   6.0000000   6.0000000   6.0000000   6.0000000

  Atom        31          32          33          34          35          36          37          38          39          40
 IAtWgt=          12          12           1           1           1           1           1           1           1           1
 AtmWgt=  12.0000000  12.0000000   1.0078250   1.0078250   1.0078250   1.0078250   1.0078250   1.0078250   1.0078250   1.0078250
 NucSpn=           0           0           1           1           1           1           1           1           1           1
 AtZEff=   0.0000000   0.0000000   0.0000000   0.0000000   0.0000000   0.0000000   0.0000000   0.0000000   0.0000000   0.0000000
 NQMom=    0.0000000   0.0000000   0.0000000   0.0000000   0.0000000   0.0000000   0.0000000   0.0000000   0.0000000   0.0000000
 NMagM=    0.0000000   0.0000000   2.7928460   2.7928460   2.7928460   2.7928460   2.7928460   2.7928460   2.7928460   2.7928460
 AtZNuc=   6.0000000   6.0000000   1.0000000   1.0000000   1.0000000   1.0000000   1.0000000   1.0000000   1.0000000   1.0000000

  Atom        41          42          43          44          45          46          47          48
 IAtWgt=           1           1           1           1           1           1           1           1
 AtmWgt=   1.0078250   1.0078250   1.0078250   1.0078250   1.0078250   1.0078250   1.0078250   1.0078250
 NucSpn=           1           1           1           1           1           1           1           1
 AtZEff=   0.0000000   0.0000000   0.0000000   0.0000000   0.0000000   0.0000000   0.0000000   0.0000000
 NQMom=    0.0000000   0.0000000   0.0000000   0.0000000   0.0000000   0.0000000   0.0000000   0.0000000
 NMagM=    2.7928460   2.7928460   2.7928460   2.7928460   2.7928460   2.7928460   2.7928460   2.7928460
 AtZNuc=   1.0000000   1.0000000   1.0000000   1.0000000   1.0000000   1.0000000   1.0000000   1.0000000
 Leave Link  101 at Sat Jul 27 12:19:09 2019, MaxMem=  4194304000 cpu:         8.9
 (Enter /home/minenky/programs//g09/l103.exe)

 GradGradGradGradGradGradGradGradGradGradGradGradGradGradGradGradGradGrad
 Berny optimization.
 Initialization pass.
                           ----------------------------
                           !    Initial Parameters    !
                           ! (Angstroms and Degrees)  !
 --------------------------                            --------------------------
 ! Name  Definition              Value          Derivative Info.                !
 --------------------------------------------------------------------------------
 ! R1    R(1,13)                 1.3629         estimate D2E/DX2                !
 ! R2    R(1,27)                 1.435          estimate D2E/DX2                !
 ! R3    R(1,33)                 1.1025         estimate D2E/DX2                !
 ! R4    R(2,3)                  1.3869         estimate D2E/DX2                !
 ! R5    R(2,12)                 1.4239         estimate D2E/DX2                !
 ! R6    R(2,28)                 1.4528         estimate D2E/DX2                !
 ! R7    R(3,15)                 1.4059         estimate D2E/DX2                !
 ! R8    R(3,34)                 1.1022         estimate D2E/DX2                !
 ! R9    R(4,5)                  1.3965         estimate D2E/DX2                !
 ! R10   R(4,22)                 1.3978         estimate D2E/DX2                !
 ! R11   R(4,35)                 1.0971         estimate D2E/DX2                !
 ! R12   R(5,8)                  1.4312         estimate D2E/DX2                !
 ! R13   R(5,9)                  1.4212         estimate D2E/DX2                !
 ! R14   R(6,7)                  1.4182         estimate D2E/DX2                !
 ! R15   R(6,14)                 1.3734         estimate D2E/DX2                !
 ! R16   R(6,36)                 1.101          estimate D2E/DX2                !
 ! R17   R(7,8)                  1.3616         estimate D2E/DX2                !
 ! R18   R(7,37)                 1.095          estimate D2E/DX2                !
 ! R19   R(8,38)                 1.0959         estimate D2E/DX2                !
 ! R20   R(9,10)                 1.4061         estimate D2E/DX2                !
 ! R21   R(9,14)                 1.4356         estimate D2E/DX2                !
 ! R22   R(10,11)                1.451          estimate D2E/DX2                !
 ! R23   R(10,21)                1.4075         estimate D2E/DX2                !
 ! R24   R(11,12)                1.3987         estimate D2E/DX2                !
 ! R25   R(11,16)                1.4161         estimate D2E/DX2                !
 ! R26   R(12,13)                1.4473         estimate D2E/DX2                !
 ! R27   R(13,14)                1.4618         estimate D2E/DX2                !
 ! R28   R(15,16)                1.4147         estimate D2E/DX2                !
 ! R29   R(15,20)                1.4254         estimate D2E/DX2                !
 ! R30   R(16,17)                1.4313         estimate D2E/DX2                !
 ! R31   R(17,18)                1.3769         estimate D2E/DX2                !
 ! R32   R(17,26)                1.4602         estimate D2E/DX2                !
 ! R33   R(18,19)                1.4132         estimate D2E/DX2                !
 ! R34   R(18,39)                1.1011         estimate D2E/DX2                !
 ! R35   R(19,20)                1.3659         estimate D2E/DX2                !
 ! R36   R(19,40)                1.095          estimate D2E/DX2                !
 ! R37   R(20,41)                1.0958         estimate D2E/DX2                !
 ! R38   R(21,22)                1.4207         estimate D2E/DX2                !
 ! R39   R(21,26)                1.4355         estimate D2E/DX2                !
 ! R40   R(22,23)                1.4305         estimate D2E/DX2                !
 ! R41   R(23,24)                1.3623         estimate D2E/DX2                !
 ! R42   R(23,42)                1.0959         estimate D2E/DX2                !
 ! R43   R(24,25)                1.4174         estimate D2E/DX2                !
 ! R44   R(24,43)                1.095          estimate D2E/DX2                !
 ! R45   R(25,26)                1.3734         estimate D2E/DX2                !
 ! R46   R(25,44)                1.1011         estimate D2E/DX2                !
 ! R47   R(27,28)                1.4048         estimate D2E/DX2                !
 ! R48   R(27,32)                1.4091         estimate D2E/DX2                !
 ! R49   R(28,29)                1.4079         estimate D2E/DX2                !
 ! R50   R(29,30)                1.3792         estimate D2E/DX2                !
 ! R51   R(29,45)                1.1008         estimate D2E/DX2                !
 ! R52   R(30,31)                1.4016         estimate D2E/DX2                !
 ! R53   R(30,46)                1.0949         estimate D2E/DX2                !
 ! R54   R(31,32)                1.379          estimate D2E/DX2                !
 ! R55   R(31,47)                1.0949         estimate D2E/DX2                !
 ! R56   R(32,48)                1.0959         estimate D2E/DX2                !
 ! A1    A(13,1,27)            121.6671         estimate D2E/DX2                !
 ! A2    A(13,1,33)            119.8152         estimate D2E/DX2                !
 ! A3    A(27,1,33)            118.5177         estimate D2E/DX2                !
 ! A4    A(3,2,12)             119.6966         estimate D2E/DX2                !
 ! A5    A(3,2,28)             120.8269         estimate D2E/DX2                !
 ! A6    A(12,2,28)            119.4765         estimate D2E/DX2                !
 ! A7    A(2,3,15)             121.1281         estimate D2E/DX2                !
 ! A8    A(2,3,34)             119.2047         estimate D2E/DX2                !
 ! A9    A(15,3,34)            119.6672         estimate D2E/DX2                !
 ! A10   A(5,4,22)             120.6273         estimate D2E/DX2                !
 ! A11   A(5,4,35)             119.7083         estimate D2E/DX2                !
 ! A12   A(22,4,35)            119.6644         estimate D2E/DX2                !
 ! A13   A(4,5,8)              120.8446         estimate D2E/DX2                !
 ! A14   A(4,5,9)              119.9011         estimate D2E/DX2                !
 ! A15   A(8,5,9)              119.2543         estimate D2E/DX2                !
 ! A16   A(7,6,14)             121.1163         estimate D2E/DX2                !
 ! A17   A(7,6,36)             119.3018         estimate D2E/DX2                !
 ! A18   A(14,6,36)            119.5819         estimate D2E/DX2                !
 ! A19   A(6,7,8)              120.5273         estimate D2E/DX2                !
 ! A20   A(6,7,37)             118.6769         estimate D2E/DX2                !
 ! A21   A(8,7,37)             120.7958         estimate D2E/DX2                !
 ! A22   A(5,8,7)              120.3877         estimate D2E/DX2                !
 ! A23   A(5,8,38)             118.5504         estimate D2E/DX2                !
 ! A24   A(7,8,38)             121.0619         estimate D2E/DX2                !
 ! A25   A(5,9,10)             119.7506         estimate D2E/DX2                !
 ! A26   A(5,9,14)             119.1291         estimate D2E/DX2                !
 ! A27   A(10,9,14)            121.1204         estimate D2E/DX2                !
 ! A28   A(9,10,11)            119.8348         estimate D2E/DX2                !
 ! A29   A(9,10,21)            120.1066         estimate D2E/DX2                !
 ! A30   A(11,10,21)           120.0587         estimate D2E/DX2                !
 ! A31   A(10,11,12)           120.3435         estimate D2E/DX2                !
 ! A32   A(10,11,16)           119.3185         estimate D2E/DX2                !
 ! A33   A(12,11,16)           120.3379         estimate D2E/DX2                !
 ! A34   A(2,12,11)            119.7785         estimate D2E/DX2                !
 ! A35   A(2,12,13)            119.415          estimate D2E/DX2                !
 ! A36   A(11,12,13)           120.8066         estimate D2E/DX2                !
 ! A37   A(1,13,12)            120.1831         estimate D2E/DX2                !
 ! A38   A(1,13,14)            120.9671         estimate D2E/DX2                !
 ! A39   A(12,13,14)           118.8498         estimate D2E/DX2                !
 ! A40   A(6,14,9)             119.5854         estimate D2E/DX2                !
 ! A41   A(6,14,13)            121.3697         estimate D2E/DX2                !
 ! A42   A(9,14,13)            119.045          estimate D2E/DX2                !
 ! A43   A(3,15,16)            119.5633         estimate D2E/DX2                !
 ! A44   A(3,15,20)            120.8852         estimate D2E/DX2                !
 ! A45   A(16,15,20)           119.5515         estimate D2E/DX2                !
 ! A46   A(11,16,15)           119.4956         estimate D2E/DX2                !
 ! A47   A(11,16,17)           121.3789         estimate D2E/DX2                !
 ! A48   A(15,16,17)           119.1254         estimate D2E/DX2                !
 ! A49   A(16,17,18)           119.6116         estimate D2E/DX2                !
 ! A50   A(16,17,26)           119.1025         estimate D2E/DX2                !
 ! A51   A(18,17,26)           121.2859         estimate D2E/DX2                !
 ! A52   A(17,18,19)           120.9963         estimate D2E/DX2                !
 ! A53   A(17,18,39)           119.3573         estimate D2E/DX2                !
 ! A54   A(19,18,39)           119.6463         estimate D2E/DX2                !
 ! A55   A(18,19,20)           120.4446         estimate D2E/DX2                !
 ! A56   A(18,19,40)           118.8822         estimate D2E/DX2                !
 ! A57   A(20,19,40)           120.6732         estimate D2E/DX2                !
 ! A58   A(15,20,19)           120.2706         estimate D2E/DX2                !
 ! A59   A(15,20,41)           118.7716         estimate D2E/DX2                !
 ! A60   A(19,20,41)           120.9578         estimate D2E/DX2                !
 ! A61   A(10,21,22)           119.7204         estimate D2E/DX2                !
 ! A62   A(10,21,26)           121.2698         estimate D2E/DX2                !
 ! A63   A(22,21,26)           119.0098         estimate D2E/DX2                !
 ! A64   A(4,22,21)            119.894          estimate D2E/DX2                !
 ! A65   A(4,22,23)            120.8134         estimate D2E/DX2                !
 ! A66   A(21,22,23)           119.2926         estimate D2E/DX2                !
 ! A67   A(22,23,24)           120.4308         estimate D2E/DX2                !
 ! A68   A(22,23,42)           118.559          estimate D2E/DX2                !
 ! A69   A(24,23,42)           121.0102         estimate D2E/DX2                !
 ! A70   A(23,24,25)           120.5018         estimate D2E/DX2                !
 ! A71   A(23,24,43)           120.7755         estimate D2E/DX2                !
 ! A72   A(25,24,43)           118.7227         estimate D2E/DX2                !
 ! A73   A(24,25,26)           121.0266         estimate D2E/DX2                !
 ! A74   A(24,25,44)           119.507          estimate D2E/DX2                !
 ! A75   A(26,25,44)           119.4664         estimate D2E/DX2                !
 ! A76   A(17,26,21)           118.8715         estimate D2E/DX2                !
 ! A77   A(17,26,25)           121.39           estimate D2E/DX2                !
 ! A78   A(21,26,25)           119.7385         estimate D2E/DX2                !
 ! A79   A(1,27,28)            119.8144         estimate D2E/DX2                !
 ! A80   A(1,27,32)            120.4457         estimate D2E/DX2                !
 ! A81   A(28,27,32)           119.7399         estimate D2E/DX2                !
 ! A82   A(2,28,27)            119.4439         estimate D2E/DX2                !
 ! A83   A(2,28,29)            121.5054         estimate D2E/DX2                !
 ! A84   A(27,28,29)           119.0507         estimate D2E/DX2                !
 ! A85   A(28,29,30)           120.6186         estimate D2E/DX2                !
 ! A86   A(28,29,45)           118.5669         estimate D2E/DX2                !
 ! A87   A(30,29,45)           120.8145         estimate D2E/DX2                !
 ! A88   A(29,30,31)           120.1938         estimate D2E/DX2                !
 ! A89   A(29,30,46)           120.1682         estimate D2E/DX2                !
 ! A90   A(31,30,46)           119.638          estimate D2E/DX2                !
 ! A91   A(30,31,32)           120.1302         estimate D2E/DX2                !
 ! A92   A(30,31,47)           119.609          estimate D2E/DX2                !
 ! A93   A(32,31,47)           120.2608         estimate D2E/DX2                !
 ! A94   A(27,32,31)           120.2667         estimate D2E/DX2                !
 ! A95   A(27,32,48)           119.3181         estimate D2E/DX2                !
 ! A96   A(31,32,48)           120.4152         estimate D2E/DX2                !
 ! D1    D(27,1,13,12)           0.0            estimate D2E/DX2                !
 ! D2    D(27,1,13,14)         180.0            estimate D2E/DX2                !
 ! D3    D(33,1,13,12)         180.0            estimate D2E/DX2                !
 ! D4    D(33,1,13,14)           0.0            estimate D2E/DX2                !
 ! D5    D(13,1,27,28)           0.0            estimate D2E/DX2                !
 ! D6    D(13,1,27,32)         180.0            estimate D2E/DX2                !
 ! D7    D(33,1,27,28)         180.0            estimate D2E/DX2                !
 ! D8    D(33,1,27,32)           0.0            estimate D2E/DX2                !
 ! D9    D(12,2,3,15)            0.0            estimate D2E/DX2                !
 ! D10   D(12,2,3,34)          180.0            estimate D2E/DX2                !
 ! D11   D(28,2,3,15)          180.0            estimate D2E/DX2                !
 ! D12   D(28,2,3,34)            0.0            estimate D2E/DX2                !
 ! D13   D(3,2,12,11)            0.0            estimate D2E/DX2                !
 ! D14   D(3,2,12,13)          180.0            estimate D2E/DX2                !
 ! D15   D(28,2,12,11)         180.0            estimate D2E/DX2                !
 ! D16   D(28,2,12,13)           0.0            estimate D2E/DX2                !
 ! D17   D(3,2,28,27)          180.0            estimate D2E/DX2                !
 ! D18   D(3,2,28,29)            0.0            estimate D2E/DX2                !
 ! D19   D(12,2,28,27)           0.0            estimate D2E/DX2                !
 ! D20   D(12,2,28,29)         180.0            estimate D2E/DX2                !
 ! D21   D(2,3,15,16)            0.0            estimate D2E/DX2                !
 ! D22   D(2,3,15,20)          180.0            estimate D2E/DX2                !
 ! D23   D(34,3,15,16)         180.0            estimate D2E/DX2                !
 ! D24   D(34,3,15,20)           0.0            estimate D2E/DX2                !
 ! D25   D(22,4,5,8)           180.0            estimate D2E/DX2                !
 ! D26   D(22,4,5,9)             0.0            estimate D2E/DX2                !
 ! D27   D(35,4,5,8)             0.0            estimate D2E/DX2                !
 ! D28   D(35,4,5,9)           180.0            estimate D2E/DX2                !
 ! D29   D(5,4,22,21)            0.0            estimate D2E/DX2                !
 ! D30   D(5,4,22,23)          180.0            estimate D2E/DX2                !
 ! D31   D(35,4,22,21)         180.0            estimate D2E/DX2                !
 ! D32   D(35,4,22,23)           0.0            estimate D2E/DX2                !
 ! D33   D(4,5,8,7)            180.0            estimate D2E/DX2                !
 ! D34   D(4,5,8,38)             0.0            estimate D2E/DX2                !
 ! D35   D(9,5,8,7)              0.0            estimate D2E/DX2                !
 ! D36   D(9,5,8,38)           180.0            estimate D2E/DX2                !
 ! D37   D(4,5,9,10)             0.0            estimate D2E/DX2                !
 ! D38   D(4,5,9,14)           180.0            estimate D2E/DX2                !
 ! D39   D(8,5,9,10)           180.0            estimate D2E/DX2                !
 ! D40   D(8,5,9,14)             0.0            estimate D2E/DX2                !
 ! D41   D(14,6,7,8)             0.0            estimate D2E/DX2                !
 ! D42   D(14,6,7,37)          180.0            estimate D2E/DX2                !
 ! D43   D(36,6,7,8)           180.0            estimate D2E/DX2                !
 ! D44   D(36,6,7,37)            0.0            estimate D2E/DX2                !
 ! D45   D(7,6,14,9)             0.0            estimate D2E/DX2                !
 ! D46   D(7,6,14,13)          180.0            estimate D2E/DX2                !
 ! D47   D(36,6,14,9)          180.0            estimate D2E/DX2                !
 ! D48   D(36,6,14,13)           0.0            estimate D2E/DX2                !
 ! D49   D(6,7,8,5)              0.0            estimate D2E/DX2                !
 ! D50   D(6,7,8,38)           180.0            estimate D2E/DX2                !
 ! D51   D(37,7,8,5)           180.0            estimate D2E/DX2                !
 ! D52   D(37,7,8,38)            0.0            estimate D2E/DX2                !
 ! D53   D(5,9,10,11)          180.0            estimate D2E/DX2                !
 ! D54   D(5,9,10,21)            0.0            estimate D2E/DX2                !
 ! D55   D(14,9,10,11)           0.0            estimate D2E/DX2                !
 ! D56   D(14,9,10,21)         180.0            estimate D2E/DX2                !
 ! D57   D(5,9,14,6)             0.0            estimate D2E/DX2                !
 ! D58   D(5,9,14,13)          180.0            estimate D2E/DX2                !
 ! D59   D(10,9,14,6)          180.0            estimate D2E/DX2                !
 ! D60   D(10,9,14,13)           0.0            estimate D2E/DX2                !
 ! D61   D(9,10,11,12)           0.0            estimate D2E/DX2                !
 ! D62   D(9,10,11,16)         180.0            estimate D2E/DX2                !
 ! D63   D(21,10,11,12)        180.0            estimate D2E/DX2                !
 ! D64   D(21,10,11,16)          0.0            estimate D2E/DX2                !
 ! D65   D(9,10,21,22)           0.0            estimate D2E/DX2                !
 ! D66   D(9,10,21,26)         180.0            estimate D2E/DX2                !
 ! D67   D(11,10,21,22)        180.0            estimate D2E/DX2                !
 ! D68   D(11,10,21,26)          0.0            estimate D2E/DX2                !
 ! D69   D(10,11,12,2)         180.0            estimate D2E/DX2                !
 ! D70   D(10,11,12,13)          0.0            estimate D2E/DX2                !
 ! D71   D(16,11,12,2)           0.0            estimate D2E/DX2                !
 ! D72   D(16,11,12,13)        180.0            estimate D2E/DX2                !
 ! D73   D(10,11,16,15)        180.0            estimate D2E/DX2                !
 ! D74   D(10,11,16,17)          0.0            estimate D2E/DX2                !
 ! D75   D(12,11,16,15)          0.0            estimate D2E/DX2                !
 ! D76   D(12,11,16,17)        180.0            estimate D2E/DX2                !
 ! D77   D(2,12,13,1)            0.0            estimate D2E/DX2                !
 ! D78   D(2,12,13,14)         180.0            estimate D2E/DX2                !
 ! D79   D(11,12,13,1)         180.0            estimate D2E/DX2                !
 ! D80   D(11,12,13,14)          0.0            estimate D2E/DX2                !
 ! D81   D(1,13,14,6)            0.0            estimate D2E/DX2                !
 ! D82   D(1,13,14,9)          180.0            estimate D2E/DX2                !
 ! D83   D(12,13,14,6)         180.0            estimate D2E/DX2                !
 ! D84   D(12,13,14,9)           0.0            estimate D2E/DX2                !
 ! D85   D(3,15,16,11)           0.0            estimate D2E/DX2                !
 ! D86   D(3,15,16,17)         180.0            estimate D2E/DX2                !
 ! D87   D(20,15,16,11)        180.0            estimate D2E/DX2                !
 ! D88   D(20,15,16,17)          0.0            estimate D2E/DX2                !
 ! D89   D(3,15,20,19)         180.0            estimate D2E/DX2                !
 ! D90   D(3,15,20,41)           0.0            estimate D2E/DX2                !
 ! D91   D(16,15,20,19)          0.0            estimate D2E/DX2                !
 ! D92   D(16,15,20,41)        180.0            estimate D2E/DX2                !
 ! D93   D(11,16,17,18)        180.0            estimate D2E/DX2                !
 ! D94   D(11,16,17,26)          0.0            estimate D2E/DX2                !
 ! D95   D(15,16,17,18)          0.0            estimate D2E/DX2                !
 ! D96   D(15,16,17,26)        180.0            estimate D2E/DX2                !
 ! D97   D(16,17,18,19)          0.0            estimate D2E/DX2                !
 ! D98   D(16,17,18,39)        180.0            estimate D2E/DX2                !
 ! D99   D(26,17,18,19)        180.0            estimate D2E/DX2                !
 ! D100  D(26,17,18,39)          0.0            estimate D2E/DX2                !
 ! D101  D(16,17,26,21)          0.0            estimate D2E/DX2                !
 ! D102  D(16,17,26,25)        180.0            estimate D2E/DX2                !
 ! D103  D(18,17,26,21)        180.0            estimate D2E/DX2                !
 ! D104  D(18,17,26,25)          0.0            estimate D2E/DX2                !
 ! D105  D(17,18,19,20)          0.0            estimate D2E/DX2                !
 ! D106  D(17,18,19,40)        180.0            estimate D2E/DX2                !
 ! D107  D(39,18,19,20)        180.0            estimate D2E/DX2                !
 ! D108  D(39,18,19,40)          0.0            estimate D2E/DX2                !
 ! D109  D(18,19,20,15)          0.0            estimate D2E/DX2                !
 ! D110  D(18,19,20,41)        180.0            estimate D2E/DX2                !
 ! D111  D(40,19,20,15)        180.0            estimate D2E/DX2                !
 ! D112  D(40,19,20,41)          0.0            estimate D2E/DX2                !
 ! D113  D(10,21,22,4)           0.0            estimate D2E/DX2                !
 ! D114  D(10,21,22,23)        180.0            estimate D2E/DX2                !
 ! D115  D(26,21,22,4)         180.0            estimate D2E/DX2                !
 ! D116  D(26,21,22,23)          0.0            estimate D2E/DX2                !
 ! D117  D(10,21,26,17)          0.0            estimate D2E/DX2                !
 ! D118  D(10,21,26,25)        180.0            estimate D2E/DX2                !
 ! D119  D(22,21,26,17)        180.0            estimate D2E/DX2                !
 ! D120  D(22,21,26,25)          0.0            estimate D2E/DX2                !
 ! D121  D(4,22,23,24)         180.0            estimate D2E/DX2                !
 ! D122  D(4,22,23,42)           0.0            estimate D2E/DX2                !
 ! D123  D(21,22,23,24)          0.0            estimate D2E/DX2                !
 ! D124  D(21,22,23,42)        180.0            estimate D2E/DX2                !
 ! D125  D(22,23,24,25)          0.0            estimate D2E/DX2                !
 ! D126  D(22,23,24,43)        180.0            estimate D2E/DX2                !
 ! D127  D(42,23,24,25)        180.0            estimate D2E/DX2                !
 ! D128  D(42,23,24,43)          0.0            estimate D2E/DX2                !
 ! D129  D(23,24,25,26)          0.0            estimate D2E/DX2                !
 ! D130  D(23,24,25,44)        180.0            estimate D2E/DX2                !
 ! D131  D(43,24,25,26)        180.0            estimate D2E/DX2                !
 ! D132  D(43,24,25,44)          0.0            estimate D2E/DX2                !
 ! D133  D(24,25,26,17)        180.0            estimate D2E/DX2                !
 ! D134  D(24,25,26,21)          0.0            estimate D2E/DX2                !
 ! D135  D(44,25,26,17)          0.0            estimate D2E/DX2                !
 ! D136  D(44,25,26,21)        180.0            estimate D2E/DX2                !
 ! D137  D(1,27,28,2)            0.0            estimate D2E/DX2                !
 ! D138  D(1,27,28,29)         180.0            estimate D2E/DX2                !
 ! D139  D(32,27,28,2)         180.0            estimate D2E/DX2                !
 ! D140  D(32,27,28,29)          0.0            estimate D2E/DX2                !
 ! D141  D(1,27,32,31)         180.0            estimate D2E/DX2                !
 ! D142  D(1,27,32,48)           0.0            estimate D2E/DX2                !
 ! D143  D(28,27,32,31)          0.0            estimate D2E/DX2                !
 ! D144  D(28,27,32,48)        180.0            estimate D2E/DX2                !
 ! D145  D(2,28,29,30)         180.0            estimate D2E/DX2                !
 ! D146  D(2,28,29,45)           0.0            estimate D2E/DX2                !
 ! D147  D(27,28,29,30)          0.0            estimate D2E/DX2                !
 ! D148  D(27,28,29,45)        180.0            estimate D2E/DX2                !
 ! D149  D(28,29,30,31)          0.0            estimate D2E/DX2                !
 ! D150  D(28,29,30,46)        180.0            estimate D2E/DX2                !
 ! D151  D(45,29,30,31)        180.0            estimate D2E/DX2                !
 ! D152  D(45,29,30,46)          0.0            estimate D2E/DX2                !
 ! D153  D(29,30,31,32)          0.0            estimate D2E/DX2                !
 ! D154  D(29,30,31,47)        180.0            estimate D2E/DX2                !
 ! D155  D(46,30,31,32)        180.0            estimate D2E/DX2                !
 ! D156  D(46,30,31,47)          0.0            estimate D2E/DX2                !
 ! D157  D(30,31,32,27)          0.0            estimate D2E/DX2                !
 ! D158  D(30,31,32,48)        180.0            estimate D2E/DX2                !
 ! D159  D(47,31,32,27)        180.0            estimate D2E/DX2                !
 ! D160  D(47,31,32,48)          0.0            estimate D2E/DX2                !
 --------------------------------------------------------------------------------
 Trust Radius=3.00D-01 FncErr=1.00D-07 GrdErr=1.00D-06
 Number of steps in this run=    288 maximum allowed number of steps=    288.
 GradGradGradGradGradGradGradGradGradGradGradGradGradGradGradGradGradGrad

 Leave Link  103 at Sat Jul 27 12:19:09 2019, MaxMem=  4194304000 cpu:         0.3
 (Enter /home/minenky/programs//g09/l202.exe)
                          Input orientation:                          
 ---------------------------------------------------------------------
 Center     Atomic      Atomic             Coordinates (Angstroms)
 Number     Number       Type             X           Y           Z
 ---------------------------------------------------------------------
      1          6           0        2.720509    1.780918    0.000000
      2          6           0        2.137796   -0.991051    0.000000
      3          6           0        1.829390   -2.343217    0.000000
      4          6           0       -3.411273    2.405036    0.000000
      5          6           0       -2.084706    2.841269    0.000000
      6          6           0        0.583709    3.708883    0.000000
      7          6           0       -0.474711    4.652778    0.000000
      8          6           0       -1.771490    4.237769    0.000000
      9          6           0       -1.026787    1.892194    0.000000
     10          6           0       -1.322613    0.517580    0.000000
     11          6           0       -0.243945   -0.452973    0.000000
     12          6           0        1.088748   -0.028258    0.000000
     13          6           0        1.417527    1.381236    0.000000
     14          6           0        0.330838    2.359004    0.000000
     15          6           0        0.494420   -2.784190    0.000000
     16          6           0       -0.554344   -1.834661    0.000000
     17          6           0       -1.909905   -2.293956    0.000000
     18          6           0       -2.170130   -3.646040    0.000000
     19          6           0       -1.118096   -4.589658    0.000000
     20          6           0        0.183353   -4.175187    0.000000
     21          6           0       -2.661546    0.083532    0.000000
     22          6           0       -3.712003    1.039985    0.000000
     23          6           0       -5.069426    0.588715    0.000000
     24          6           0       -5.353626   -0.743587    0.000000
     25          6           0       -4.309361   -1.701935    0.000000
     26          6           0       -2.991999   -1.313463    0.000000
     27          6           0        3.798932    0.834174    0.000000
     28          6           0        3.519686   -0.542620    0.000000
     29          6           0        4.589976   -1.457254    0.000000
     30          6           0        5.895099   -1.011294    0.000000
     31          6           0        6.170424    0.363008    0.000000
     32          6           0        5.136952    1.276022    0.000000
     33          1           0        2.964045    2.856141    0.000000
     34          1           0        2.647792   -3.081484    0.000000
     35          1           0       -4.225471    3.140426    0.000000
     36          1           0        1.624894    4.066818    0.000000
     37          1           0       -0.227466    5.719503    0.000000
     38          1           0       -2.596168    4.959514    0.000000
     39          1           0       -3.214549   -3.994753    0.000000
     40          1           0       -1.364569   -5.656557    0.000000
     41          1           0        1.005633   -4.899542    0.000000
     42          1           0       -5.870255    1.336853    0.000000
     43          1           0       -6.390606   -1.095270    0.000000
     44          1           0       -4.557729   -2.774624    0.000000
     45          1           0        4.362060   -2.534207    0.000000
     46          1           0        6.721832   -1.729115    0.000000
     47          1           0        7.210056    0.706439    0.000000
     48          1           0        5.346882    2.351651    0.000000
 ---------------------------------------------------------------------
                    Distance matrix (angstroms):
                    1          2          3          4          5
     1  C    0.000000
     2  C    2.832555   0.000000
     3  C    4.219311   1.386891   0.000000
     4  C    6.163462   6.505810   7.071807   0.000000
     5  C    4.920817   5.702298   6.496079   1.396452   0.000000
     6  C    2.878013   4.950208   6.178967   4.202368   2.805921
     7  C    4.296162   6.219163   7.365651   3.698072   2.423561
     8  C    5.119978   6.528635   7.501714   2.459227   1.431194
     9  C    3.748948   4.281085   5.108468   2.439012   1.421245
    10  C    4.235901   3.774969   4.256674   2.815136   2.445469
    11  C    3.711908   2.441765   2.805662   4.266167   3.773650
    12  C    2.436343   1.423893   2.430552   5.115770   4.278434
    13  C    1.362904   2.479221   3.747156   4.936139   3.794382
    14  C    2.458600   3.806306   4.935234   3.742394   2.463216
    15  C    5.078945   2.432289   1.405917   6.494806   6.188512
    16  C    4.878225   2.821223   2.437379   5.112443   4.919993
    17  C    6.168090   4.252228   3.739620   4.933014   5.138199
    18  C    7.305493   5.060355   4.206365   6.177051   6.487871
    19  C    7.437683   4.852917   3.705964   7.361006   7.493531
    20  C    6.473975   3.736117   2.462834   7.498045   7.373924
    21  C    5.643371   4.918171   5.104666   2.439564   2.817421
    22  C    6.475044   6.192355   6.492541   1.397785   2.427492
    23  C    7.880637   7.378327   7.495991   2.459369   3.739326
    24  C    8.459597   7.495508   7.358976   3.699536   4.851498
    25  C    7.845339   6.486231   6.172156   4.204019   5.058636
    26  C    6.496765   5.139917   4.930130   3.742062   4.252644
    27  C    1.435033   2.467959   3.738303   7.379340   6.216561
    28  C    2.457136   1.452829   2.469666   7.531724   6.546749
    29  C    3.739073   2.496104   2.899270   8.884665   7.939061
    30  C    4.227821   3.757358   4.278318   9.913620   8.861125
    31  C    3.729931   4.253888   5.115489   9.796876   8.619104
    32  C    2.468626   3.759595   4.902943   8.622460   7.389340
    33  H    1.102458   3.934917   5.321725   6.391258   5.048774
    34  H    4.862946   2.151745   1.102189   8.173993   7.581262
    35  H    7.077775   7.586849   8.168946   1.097141   2.161567
    36  H    2.534898   5.083808   6.413295   5.303253   3.906803
    37  H    4.919655   7.115195   8.320944   4.595902   3.425430
    38  H    6.194395   7.603923   8.539054   2.681371   2.179118
    39  H    8.281503   6.137574   5.307437   6.402812   6.928762
    40  H    8.485511   5.833824   4.602130   8.317348   8.528285
    41  H    6.897053   4.069164   2.685772   8.536153   8.334887
    42  H    8.602233   8.339545   8.533900   2.680972   4.073530
    43  H    9.554312   8.529039   8.314187   4.596583   5.834134
    44  H    8.586368   6.929010   6.401671   5.305021   6.136294
    45  H    4.616817   2.707154   2.539861   9.209822   8.393840
    46  H    5.322680   4.643073   4.930833  10.943995   9.921871
    47  H    4.616334   5.348765   6.184817  10.756293   9.536776
    48  H    2.687670   4.633777   5.866390   8.758317   7.447700
                    6          7          8          9         10
     6  C    0.000000
     7  C    1.418164   0.000000
     8  C    2.413852   1.361568   0.000000
     9  C    2.427768   2.815246   2.460956   0.000000
    10  C    3.717321   4.221232   3.747172   1.406086   0.000000
    11  C    4.243355   5.110963   4.933200   2.472378   1.451033
    12  C    3.771112   4.935231   5.136142   2.857206   2.472367
    13  C    2.472487   3.779358   4.281309   2.497148   2.873024
    14  C    1.373360   2.431112   2.819493   1.435638   2.474822
    15  C    6.493687   7.499847   7.378500   4.917584   3.768725
    16  C    5.659156   6.487928   6.193210   3.756681   2.474525
    17  C    6.500168   7.093440   6.533191   4.278288   2.872219
    18  C    7.853567   8.470232   7.893881   5.655021   4.249001
    19  C    8.471241   9.264802   8.851576   6.482495   5.111331
    20  C    7.894229   8.852458   8.637086   6.186886   4.928488
    21  C    4.865681   5.065596   4.248516   2.437969   1.407530
    22  C    5.057287   4.851014   3.740510   2.817205   2.445832
    23  C    6.457042   6.134168   4.918535   4.247586   3.747489
    24  C    7.421350   7.274928   6.135602   5.066446   4.223696
    25  C    7.295142   7.422057   6.459170   4.867552   3.721144
    26  C    6.165197   6.475552   5.683822   3.760093   2.477816
    27  C    4.312958   5.731122   6.527945   4.940341   5.131321
    28  C    5.166744   6.553424   7.130825   5.157397   4.957004
    29  C    6.537518   7.936217   8.538240   6.539635   6.233673
    30  C    7.105697   8.523860   9.291354   7.506181   7.377860
    31  C    6.512009   7.909484   8.836728   7.357870   7.494631
    32  C    5.162444   6.549293   7.516549   6.194461   6.503938
    33  H    2.528472   3.879813   4.932970   4.105598   4.883063
    34  H    7.097149   8.340793   8.549942   6.183850   5.358859
    35  H    4.842660   4.044183   2.688157   3.433608   3.912277
    36  H    1.100992   2.179837   3.400684   3.429344   4.613555
    37  H    2.168086   1.095003   2.139987   3.909886   5.315953
    38  H    3.416972   2.143518   1.095906   3.445491   4.620901
    39  H    8.589107   9.071191   8.358040   6.280322   4.892910
    40  H    9.565942  10.347668   9.902690   7.556304   6.174279
    41  H    8.618758   9.666345   9.550019   7.089316   5.896264
    42  H    6.876058   6.333029   5.021473   4.875201   4.620850
    43  H    8.468823   8.248508   7.055320   6.139666   5.318443
    44  H    8.274675   8.475691   7.545647   5.852072   4.615689
    45  H    7.297404   8.662973   9.136745   6.973715   6.452047
    46  H    8.200511   9.618668  10.379799   8.553068   8.352289
    47  H    7.274829   8.638821   9.650827   8.321754   8.534758
    48  H    4.952766   6.259882   7.364011   6.390208   6.917079
                   11         12         13         14         15
    11  C    0.000000
    12  C    1.398733   0.000000
    13  C    2.474836   1.447332   0.000000
    14  C    2.870120   2.504685   1.461822   0.000000
    15  C    2.445354   2.819288   4.266486   5.145795   0.000000
    16  C    1.416125   2.441893   3.772303   4.286067   1.414748
    17  C    2.482869   3.758364   4.957705   5.164394   2.453795
    18  C    3.729056   4.869151   6.176147   6.505028   2.800466
    19  C    4.228037   5.067201   6.486984   7.098120   2.420727
    20  C    3.746660   4.244615   5.691839   6.535855   1.425355
    21  C    2.476415   3.751959   4.280522   3.759273   4.264264
    22  C    3.775758   4.918166   5.140869   4.252572   5.684920
    23  C    4.936636   6.189003   6.535186   5.683025   6.506371
    24  C    5.117939   6.481965   7.096717   6.476048   6.193844
    25  C    4.252942   5.651617   6.504091   6.166253   4.924184
    26  C    2.879626   4.278347   5.167720   4.952602   3.783934
    27  C    4.242830   2.844098   2.443434   3.788507   4.900241
    28  C    3.764699   2.484760   2.849614   4.311401   3.765219
    29  C    4.937142   3.781617   4.256931   5.718748   4.305153
    30  C    6.164380   4.905851   5.076697   6.505376   5.684232
    31  C    6.466062   5.096717   4.860743   6.171286   6.490137
    32  C    5.651856   4.253129   3.720913   4.926620   6.167530
    33  H    4.608844   3.440422   2.137069   2.679725   6.157303
    34  H    3.907840   3.428236   4.629193   5.913306   2.173797
    35  H    5.363308   6.187203   5.910853   4.622832   7.574856
    36  H    4.890917   4.130024   2.693575   2.142711   6.943650
    37  H    6.172498   5.896539   4.639672   3.406561   8.534279
    38  H    5.901523   6.201329   5.377157   3.915356   8.337667
    39  H    4.622628   5.852473   7.096294   7.275987   3.901527
    40  H    5.322883   6.139748   7.567734   8.192901   3.421452
    41  H    4.618811   4.871992   6.294270   7.289845   2.176247
    42  H    5.904137   7.091632   7.287917   6.284771   7.582353
    43  H    6.180128   7.555081   8.191460   7.557104   7.089149
    44  H    4.898856   6.278951   7.278383   7.088880   5.052158
    45  H    5.054386   4.122421   4.899079   6.339895   3.875711
    46  H    7.081708   5.884263   6.148979   7.586668   6.316158
    47  H    7.543631   6.165241   5.831701   7.074928   7.568636
    48  H    6.254859   4.878081   4.047411   5.016050   7.065639
                   16         17         18         19         20
    16  C    0.000000
    17  C    1.431257   0.000000
    18  C    2.427315   1.376898   0.000000
    19  C    2.812085   2.428417   1.413220   0.000000
    20  C    2.454029   2.814385   2.412236   1.365854   0.000000
    21  C    2.849520   2.493473   3.761807   4.921477   5.121537
    22  C    4.270176   3.789818   4.933174   6.198487   6.509365
    23  C    5.124326   4.276957   5.132160   6.513720   7.091294
    24  C    4.921742   3.776620   4.308002   5.721186   6.514140
    25  C    3.757362   2.471412   2.890649   4.303849   5.128495
    26  C    2.492751   1.460237   2.473132   3.774250   4.274614
    27  C    5.106241   6.509687   7.463379   7.320869   6.177873
    28  C    4.274002   5.705054   6.481144   6.155286   4.932207
    29  C    5.158146   6.553513   7.105619   6.511071   5.177402
    30  C    6.501788   7.909697   8.484680   7.873347   6.529491
    31  C    7.074762   8.505949   9.254042   8.812004   7.512671
    32  C    6.485923   7.899553   8.810229   8.575070   7.365719
    33  H    5.863675   7.090761   8.284812   8.491395   7.561205
    34  H    3.436312   4.625235   4.850886   4.056661   2.696228
    35  H    6.182934   5.907144   7.090878   8.331265   8.541425
    36  H    6.290988   7.276967   8.595951   9.080670   8.367119
    37  H    7.561233   8.188170   9.564901  10.347561   9.903215
    38  H    7.094354   7.285862   8.616093   9.662887   9.548220
    39  H    3.426760   2.143550   1.101095   2.179226   3.402689
    40  H    3.906834   3.406535   2.165896   1.094999   2.142550
    41  H    3.439044   3.910172   3.414197   2.146218   1.095825
    42  H    6.190106   5.372815   6.206460   7.596483   8.187109
    43  H    5.882912   4.638268   4.931414   6.325354   7.259671
    44  H    4.112252   2.691099   2.541652   3.889141   4.943626
    45  H    4.965923   6.276565   6.626136   5.852947   4.489366
    46  H    7.276942   8.650199   9.096241   8.345489   6.981044
    47  H    8.169645   9.600836  10.340791   9.869486   8.555981
    48  H    7.235308   8.616416   9.616536   9.485658   8.322358
                   21         22         23         24         25
    21  C    0.000000
    22  C    1.420656   0.000000
    23  C    2.460304   1.430469   0.000000
    24  C    2.816278   2.424058   1.362277   0.000000
    25  C    2.429648   2.806237   2.413457   1.417364   0.000000
    26  C    1.435547   2.461123   2.816733   2.429411   1.373446
    27  C    6.503940   7.513755   8.871755   9.287554   8.495662
    28  C    6.212866   7.402836   8.663300   8.875588   7.914417
    29  C    7.413406   8.669433   9.873704   9.969180   8.902700
    30  C    8.626402   9.823653  11.080652  11.251910  10.227805
    31  C    8.836390   9.905587  11.242116  11.577058  10.681287
    32  C    7.889144   8.852102  10.229494  10.683213   9.904598
    33  H    6.271733   6.918674   8.347328   9.063206   8.583618
    34  H    6.181132   7.578489   8.545514   8.335973   7.092611
    35  H    3.433725   2.162291   2.687656   4.044539   4.843088
    36  H    5.851507   6.135486   7.543947   8.475833   8.276104
    37  H    6.139130   5.834371   7.054755   8.249185   8.469924
    38  H    4.876421   4.075266   5.022041   6.334741   6.878222
    39  H    4.115607   5.059254   4.944567   3.891752   2.540793
    40  H    5.884791   7.096064   7.261500   6.328495   4.930601
    41  H    6.187020   7.585122   8.187020   7.596850   6.202729
    42  H    3.444797   2.178573   1.095919   2.143627   3.416230
    43  H    3.910942   3.425526   2.140402   1.094992   2.167861
    44  H    3.429951   3.907237   3.402041   2.181413   1.101067
    45  H    7.495572   8.829799   9.935068   9.879316   8.711270
    46  H    9.556855  10.795038  12.016909  12.115608  11.031227
    47  H    9.891235  10.927151  12.280046  12.647082  11.768485
    48  H    8.323418   9.153353  10.564441  11.139182  10.472564
                   26         27         28         29         30
    26  C    0.000000
    27  C    7.122436   0.000000
    28  C    6.557153   1.404828   0.000000
    29  C    7.583339   2.424127   1.407862   0.000000
    30  C    8.892234   2.792789   2.421206   1.379212   0.000000
    31  C    9.314534   2.417844   2.801173   2.410636   1.401610
    32  C    8.531429   1.409087   2.433722   2.787468   2.409689
    33  H    7.270493   2.187552   3.443880   4.609666   4.852641
    34  H    5.910426   4.081361   2.684405   2.531838   3.851063
    35  H    4.621535   8.349243   8.576264   9.942373  10.939046
    36  H    7.089650   3.895693   4.983688   6.269535   6.634897
    37  H    7.556802   6.330744   7.297625   8.643702   9.098870
    38  H    6.285454   7.610239   8.226613   9.634084  10.380374
    39  H    2.690509   8.515131   7.567506   8.206675   9.585755
    40  H    4.637994   8.294054   7.071655   7.286340   8.618657
    41  H    5.370384   6.377932   5.030232   4.969594   6.247027
    42  H    3.912612   9.682245   9.576190  10.826979  11.997389
    43  H    3.405604  10.370605   9.925690  10.986547  12.285992
    44  H    2.141611   9.102594   8.380124   9.242076  10.600516
    45  H    7.454690   3.415129   2.162409   1.100806   2.160896
    46  H    9.722720   3.887647   3.414895   2.149120   1.094876
    47  H   10.400093   3.413514   3.896020   3.397997   2.163266
    48  H    9.108787   2.167691   3.422783   3.883383   3.407336
                   31         32         33         34         35
    31  C    0.000000
    32  C    1.379007   0.000000
    33  H    4.061598   2.686689   0.000000
    34  H    4.926810   5.018344   5.946041   0.000000
    35  H   10.760515   9.546254   7.195135   9.271133   0.000000
    36  H    5.863450   4.485876   1.805288   7.221117   5.923258
    37  H    8.344162   6.965738   4.287725   9.258751   4.757697
    38  H    9.898535   8.565586   5.944758   9.599831   2.442071
    39  H   10.347356   9.875658   9.225496   5.933051   7.206438
    40  H    9.644235   9.504232   9.550022   4.767603   9.250496
    41  H    7.373567   7.430032   7.999124   2.449902   9.591952
    42  H   12.079996  11.007375   8.963989   9.595771   2.440940
    43  H   12.645396  11.768926  10.154957   9.254063   4.756988
    44  H   11.177566  10.506882   9.395882   7.212052   5.924375
    45  H    3.415265   3.888226   5.568689   1.799507  10.293064
    46  H    2.163568   3.397454   5.928367   4.292634  11.981481
    47  H    1.094888   2.149927   4.759183   5.929807  11.691688
    48  H    2.152422   1.095923   2.435656   6.066633   9.604796
                   36         37         38         39         40
    36  H    0.000000
    37  H    2.482460   0.000000
    38  H    4.314427   2.487636   0.000000
    39  H    9.402613  10.163141   8.975594   0.000000
    40  H   10.172556  11.432749  10.687273   2.486768   0.000000
    41  H    8.987718  10.690399  10.496378   4.316083   2.488158
    42  H    7.976840   7.144836   4.882962   5.956408   8.319194
    43  H    9.533908   9.188331   7.145500   4.300505   6.787222
    44  H    9.221180   9.534221   7.979011   1.814620   4.301372
    45  H    7.146020   9.443913  10.226084   7.716099   6.522526
    46  H    7.718265  10.186985  11.470087  10.191407   8.989699
    47  H    6.518142   8.969255  10.688811  11.435628  10.677636
    48  H    4.098169   6.512740   8.360203  10.657154  10.448682
                   41         42         43         44         45
    41  H    0.000000
    42  H    9.282804   0.000000
    43  H    8.317261   2.487165   0.000000
    44  H    5.955356   4.315898   2.485894   0.000000
    45  H    4.106143  10.940081  10.848519   8.923028   0.000000
    46  H    6.536554  12.959970  13.127749  11.327912   2.493331
    47  H    8.361930  13.095493  13.719481  12.271860   4.314263
    48  H    8.451404  11.262947  12.233147  11.152579   4.984123
                   46         47         48
    46  H    0.000000
    47  H    2.484006   0.000000
    48  H    4.306174   2.485586   0.000000
 Stoichiometry    C32H16
 Framework group  CS[SG(C32H16)]
 Deg. of freedom    93
 Full point group                 CS      NOp   2
 Largest Abelian subgroup         CS      NOp   2
 Largest concise Abelian subgroup C1      NOp   1
                         Standard orientation:                         
 ---------------------------------------------------------------------
 Center     Atomic      Atomic             Coordinates (Angstroms)
 Number     Number       Type             X           Y           Z
 ---------------------------------------------------------------------
      1          6           0        1.498941   -2.878685    0.000000
      2          6           0        2.341791   -0.174434    0.000000
      3          6           0        2.731840    1.156479    0.000000
      4          6           0       -4.158850   -0.433757    0.000000
      5          6           0       -3.213369   -1.461446    0.000000
      6          6           0       -1.306700   -3.520040    0.000000
      7          6           0       -2.691013   -3.828046    0.000000
      8          6           0       -3.620836   -2.833411    0.000000
      9          6           0       -1.826968   -1.148673    0.000000
     10          6           0       -1.414989    0.195704    0.000000
     11          6           0        0.000000    0.517112    0.000000
     12          6           0        0.956445   -0.503508    0.000000
     13          6           0        0.556230   -1.894407    0.000000
     14          6           0       -0.869280   -2.218202    0.000000
     15          6           0        1.781334    2.192404    0.000000
     16          6           0        0.402704    1.874771    0.000000
     17          6           0       -0.556846    2.936732    0.000000
     18          6           0       -0.124771    4.244080    0.000000
     19          6           0        1.253832    4.554958    0.000000
     20          6           0        2.187994    3.558516    0.000000
     21          6           0       -2.372332    1.227516    0.000000
     22          6           0       -3.755816    0.904662    0.000000
     23          6           0       -4.720904    1.960526    0.000000
     24          6           0       -4.319407    3.262293    0.000000
     25          6           0       -2.940405    3.589820    0.000000
     26          6           0       -1.979673    2.608318    0.000000
     27          6           0        2.902108   -2.577945    0.000000
     28          6           0        3.329625   -1.239748    0.000000
     29          6           0        4.710034   -0.963077    0.000000
     30          6           0        5.632049   -1.988802    0.000000
     31          6           0        5.202324   -3.322911    0.000000
     32          6           0        3.854850   -3.616120    0.000000
     33          1           0        1.187293   -3.936176    0.000000
     34          1           0        3.806337    1.401989    0.000000
     35          1           0       -5.228274   -0.678805    0.000000
     36          1           0       -0.572200   -4.340218    0.000000
     37          1           0       -2.995281   -4.879927    0.000000
     38          1           0       -4.692757   -3.061436    0.000000
     39          1           0       -0.866590    5.057785    0.000000
     40          1           0        1.558858    5.606615    0.000000
     41          1           0        3.259094    3.789989    0.000000
     42          1           0       -5.784872    1.697829    0.000000
     43          1           0       -5.053284    4.074963    0.000000
     44          1           0       -2.634209    4.647455    0.000000
     45          1           0        5.036164    0.088310    0.000000
     46          1           0        6.703851   -1.765205    0.000000
     47          1           0        5.942541   -4.129669    0.000000
     48          1           0        3.513663   -4.657580    0.000000
 ---------------------------------------------------------------------
 Rotational constants (GHZ):      0.2266532      0.1291169      0.0822575
 Leave Link  202 at Sat Jul 27 12:19:09 2019, MaxMem=  4194304000 cpu:         0.2
 (Enter /home/minenky/programs//g09/l301.exe)
 Standard basis: def2TZVP (5D, 7F)
 ======================================================================================================
                                       Pseudopotential Parameters
 ======================================================================================================
  Center     Atomic      Valence      Angular      Power
  Number     Number     Electrons     Momentum     of R      Exponent        Coefficient   SO-Coeffient
 ======================================================================================================
    1          6
                                   No pseudopotential on this center.
    2          6
                                   No pseudopotential on this center.
    3          6
                                   No pseudopotential on this center.
    4          6
                                   No pseudopotential on this center.
    5          6
                                   No pseudopotential on this center.
    6          6
                                   No pseudopotential on this center.
    7          6
                                   No pseudopotential on this center.
    8          6
                                   No pseudopotential on this center.
    9          6
                                   No pseudopotential on this center.
   10          6
                                   No pseudopotential on this center.
   11          6
                                   No pseudopotential on this center.
   12          6
                                   No pseudopotential on this center.
   13          6
                                   No pseudopotential on this center.
   14          6
                                   No pseudopotential on this center.
   15          6
                                   No pseudopotential on this center.
   16          6
                                   No pseudopotential on this center.
   17          6
                                   No pseudopotential on this center.
   18          6
                                   No pseudopotential on this center.
   19          6
                                   No pseudopotential on this center.
   20          6
                                   No pseudopotential on this center.
   21          6
                                   No pseudopotential on this center.
   22          6
                                   No pseudopotential on this center.
   23          6
                                   No pseudopotential on this center.
   24          6
                                   No pseudopotential on this center.
   25          6
                                   No pseudopotential on this center.
   26          6
                                   No pseudopotential on this center.
   27          6
                                   No pseudopotential on this center.
   28          6
                                   No pseudopotential on this center.
   29          6
                                   No pseudopotential on this center.
   30          6
                                   No pseudopotential on this center.
   31          6
                                   No pseudopotential on this center.
   32          6
                                   No pseudopotential on this center.
   33          1
                                   No pseudopotential on this center.
   34          1
                                   No pseudopotential on this center.
   35          1
                                   No pseudopotential on this center.
   36          1
                                   No pseudopotential on this center.
   37          1
                                   No pseudopotential on this center.
   38          1
                                   No pseudopotential on this center.
   39          1
                                   No pseudopotential on this center.
   40          1
                                   No pseudopotential on this center.
   41          1
                                   No pseudopotential on this center.
   42          1
                                   No pseudopotential on this center.
   43          1
                                   No pseudopotential on this center.
   44          1
                                   No pseudopotential on this center.
   45          1
                                   No pseudopotential on this center.
   46          1
                                   No pseudopotential on this center.
   47          1
                                   No pseudopotential on this center.
   48          1
                                   No pseudopotential on this center.
 ======================================================================================================
 Ernie: Thresh=  0.10000D-02 Tol=  0.10000D-05 Strict=F.
 AO basis set (Overlap normalization):
 Atom C1       Shell     1 S   6     bf    1 -     1          2.832588884218         -5.439925815604          0.000000000000
      0.1357534968D+05  0.6064550360D-03
      0.2035233368D+04  0.4697908888D-02
      0.4632256236D+03  0.2433247765D-01
      0.1312001960D+03  0.9739996831D-01
      0.4285301589D+02  0.3019558425D+00
      0.1558418577D+02  0.6623360914D+00
 Atom C1       Shell     2 S   2     bf    2 -     2          2.832588884218         -5.439925815604          0.000000000000
      0.6206713851D+01  0.6559530854D+00
      0.2576489653D+01  0.3758563329D+00
 Atom C1       Shell     3 S   1     bf    3 -     3          2.832588884218         -5.439925815604          0.000000000000
      0.5769633942D+00  0.1000000000D+01
 Atom C1       Shell     4 S   1     bf    4 -     4          2.832588884218         -5.439925815604          0.000000000000
      0.2297283136D+00  0.1000000000D+01
 Atom C1       Shell     5 S   1     bf    5 -     5          2.832588884218         -5.439925815604          0.000000000000
      0.9516444003D-01  0.1000000000D+01
 Atom C1       Shell     6 P   4     bf    6 -     8          2.832588884218         -5.439925815604          0.000000000000
      0.3469723224D+02  0.1132722000D-01
      0.7958262283D+01  0.7616965920D-01
      0.2378082688D+01  0.3019225220D+00
      0.8143320818D+00  0.7278502735D+00
 Atom C1       Shell     7 P   1     bf    9 -    11          2.832588884218         -5.439925815604          0.000000000000
      0.2888754725D+00  0.1000000000D+01
 Atom C1       Shell     8 P   1     bf   12 -    14          2.832588884218         -5.439925815604          0.000000000000
      0.1005682367D+00  0.1000000000D+01
 Atom C1       Shell     9 D   1     bf   15 -    19          2.832588884218         -5.439925815604          0.000000000000
      0.1097000000D+01  0.1000000000D+01
 Atom C1       Shell    10 D   1     bf   20 -    24          2.832588884218         -5.439925815604          0.000000000000
      0.3180000000D+00  0.1000000000D+01
 Atom C1       Shell    11 F   1     bf   25 -    31          2.832588884218         -5.439925815604          0.000000000000
      0.7610000000D+00  0.1000000000D+01
 Atom C2       Shell    12 S   6     bf   32 -    32          4.425342766028         -0.329631768471          0.000000000000
      0.1357534968D+05  0.6064550360D-03
      0.2035233368D+04  0.4697908888D-02
      0.4632256236D+03  0.2433247765D-01
      0.1312001960D+03  0.9739996831D-01
      0.4285301589D+02  0.3019558425D+00
      0.1558418577D+02  0.6623360914D+00
 Atom C2       Shell    13 S   2     bf   33 -    33          4.425342766028         -0.329631768471          0.000000000000
      0.6206713851D+01  0.6559530854D+00
      0.2576489653D+01  0.3758563329D+00
 Atom C2       Shell    14 S   1     bf   34 -    34          4.425342766028         -0.329631768471          0.000000000000
      0.5769633942D+00  0.1000000000D+01
 Atom C2       Shell    15 S   1     bf   35 -    35          4.425342766028         -0.329631768471          0.000000000000
      0.2297283136D+00  0.1000000000D+01
 Atom C2       Shell    16 S   1     bf   36 -    36          4.425342766028         -0.329631768471          0.000000000000
      0.9516444003D-01  0.1000000000D+01
 Atom C2       Shell    17 P   4     bf   37 -    39          4.425342766028         -0.329631768471          0.000000000000
      0.3469723224D+02  0.1132722000D-01
      0.7958262283D+01  0.7616965920D-01
      0.2378082688D+01  0.3019225220D+00
      0.8143320818D+00  0.7278502735D+00
 Atom C2       Shell    18 P   1     bf   40 -    42          4.425342766028         -0.329631768471          0.000000000000
      0.2888754725D+00  0.1000000000D+01
 Atom C2       Shell    19 P   1     bf   43 -    45          4.425342766028         -0.329631768471          0.000000000000
      0.1005682367D+00  0.1000000000D+01
 Atom C2       Shell    20 D   1     bf   46 -    50          4.425342766028         -0.329631768471          0.000000000000
      0.1097000000D+01  0.1000000000D+01
 Atom C2       Shell    21 D   1     bf   51 -    55          4.425342766028         -0.329631768471          0.000000000000
      0.3180000000D+00  0.1000000000D+01
 Atom C2       Shell    22 F   1     bf   56 -    62          4.425342766028         -0.329631768471          0.000000000000
      0.7610000000D+00  0.1000000000D+01
 Atom C3       Shell    23 S   6     bf   63 -    63          5.162429020812          2.185428126669          0.000000000000
      0.1357534968D+05  0.6064550360D-03
      0.2035233368D+04  0.4697908888D-02
      0.4632256236D+03  0.2433247765D-01
      0.1312001960D+03  0.9739996831D-01
      0.4285301589D+02  0.3019558425D+00
      0.1558418577D+02  0.6623360914D+00
 Atom C3       Shell    24 S   2     bf   64 -    64          5.162429020812          2.185428126669          0.000000000000
      0.6206713851D+01  0.6559530854D+00
      0.2576489653D+01  0.3758563329D+00
 Atom C3       Shell    25 S   1     bf   65 -    65          5.162429020812          2.185428126669          0.000000000000
      0.5769633942D+00  0.1000000000D+01
 Atom C3       Shell    26 S   1     bf   66 -    66          5.162429020812          2.185428126669          0.000000000000
      0.2297283136D+00  0.1000000000D+01
 Atom C3       Shell    27 S   1     bf   67 -    67          5.162429020812          2.185428126669          0.000000000000
      0.9516444003D-01  0.1000000000D+01
 Atom C3       Shell    28 P   4     bf   68 -    70          5.162429020812          2.185428126669          0.000000000000
      0.3469723224D+02  0.1132722000D-01
      0.7958262283D+01  0.7616965920D-01
      0.2378082688D+01  0.3019225220D+00
      0.8143320818D+00  0.7278502735D+00
 Atom C3       Shell    29 P   1     bf   71 -    73          5.162429020812          2.185428126669          0.000000000000
      0.2888754725D+00  0.1000000000D+01
 Atom C3       Shell    30 P   1     bf   74 -    76          5.162429020812          2.185428126669          0.000000000000
      0.1005682367D+00  0.1000000000D+01
 Atom C3       Shell    31 D   1     bf   77 -    81          5.162429020812          2.185428126669          0.000000000000
      0.1097000000D+01  0.1000000000D+01
 Atom C3       Shell    32 D   1     bf   82 -    86          5.162429020812          2.185428126669          0.000000000000
      0.3180000000D+00  0.1000000000D+01
 Atom C3       Shell    33 F   1     bf   87 -    93          5.162429020812          2.185428126669          0.000000000000
      0.7610000000D+00  0.1000000000D+01
 Atom C4       Shell    34 S   6     bf   94 -    94         -7.859086608163         -0.819682419431          0.000000000000
      0.1357534968D+05  0.6064550360D-03
      0.2035233368D+04  0.4697908888D-02
      0.4632256236D+03  0.2433247765D-01
      0.1312001960D+03  0.9739996831D-01
      0.4285301589D+02  0.3019558425D+00
      0.1558418577D+02  0.6623360914D+00
 Atom C4       Shell    35 S   2     bf   95 -    95         -7.859086608163         -0.819682419431          0.000000000000
      0.6206713851D+01  0.6559530854D+00
      0.2576489653D+01  0.3758563329D+00
 Atom C4       Shell    36 S   1     bf   96 -    96         -7.859086608163         -0.819682419431          0.000000000000
      0.5769633942D+00  0.1000000000D+01
 Atom C4       Shell    37 S   1     bf   97 -    97         -7.859086608163         -0.819682419431          0.000000000000
      0.2297283136D+00  0.1000000000D+01
 Atom C4       Shell    38 S   1     bf   98 -    98         -7.859086608163         -0.819682419431          0.000000000000
      0.9516444003D-01  0.1000000000D+01
 Atom C4       Shell    39 P   4     bf   99 -   101         -7.859086608163         -0.819682419431          0.000000000000
      0.3469723224D+02  0.1132722000D-01
      0.7958262283D+01  0.7616965920D-01
      0.2378082688D+01  0.3019225220D+00
      0.8143320818D+00  0.7278502735D+00
 Atom C4       Shell    40 P   1     bf  102 -   104         -7.859086608163         -0.819682419431          0.000000000000
      0.2888754725D+00  0.1000000000D+01
 Atom C4       Shell    41 P   1     bf  105 -   107         -7.859086608163         -0.819682419431          0.000000000000
      0.1005682367D+00  0.1000000000D+01
 Atom C4       Shell    42 D   1     bf  108 -   112         -7.859086608163         -0.819682419431          0.000000000000
      0.1097000000D+01  0.1000000000D+01
 Atom C4       Shell    43 D   1     bf  113 -   117         -7.859086608163         -0.819682419431          0.000000000000
      0.3180000000D+00  0.1000000000D+01
 Atom C4       Shell    44 F   1     bf  118 -   124         -7.859086608163         -0.819682419431          0.000000000000
      0.7610000000D+00  0.1000000000D+01
 Atom C5       Shell    45 S   6     bf  125 -   125         -6.072387754504         -2.761732988628          0.000000000000
      0.1357534968D+05  0.6064550360D-03
      0.2035233368D+04  0.4697908888D-02
      0.4632256236D+03  0.2433247765D-01
      0.1312001960D+03  0.9739996831D-01
      0.4285301589D+02  0.3019558425D+00
      0.1558418577D+02  0.6623360914D+00
 Atom C5       Shell    46 S   2     bf  126 -   126         -6.072387754504         -2.761732988628          0.000000000000
      0.6206713851D+01  0.6559530854D+00
      0.2576489653D+01  0.3758563329D+00
 Atom C5       Shell    47 S   1     bf  127 -   127         -6.072387754504         -2.761732988628          0.000000000000
      0.5769633942D+00  0.1000000000D+01
 Atom C5       Shell    48 S   1     bf  128 -   128         -6.072387754504         -2.761732988628          0.000000000000
      0.2297283136D+00  0.1000000000D+01
 Atom C5       Shell    49 S   1     bf  129 -   129         -6.072387754504         -2.761732988628          0.000000000000
      0.9516444003D-01  0.1000000000D+01
 Atom C5       Shell    50 P   4     bf  130 -   132         -6.072387754504         -2.761732988628          0.000000000000
      0.3469723224D+02  0.1132722000D-01
      0.7958262283D+01  0.7616965920D-01
      0.2378082688D+01  0.3019225220D+00
      0.8143320818D+00  0.7278502735D+00
 Atom C5       Shell    51 P   1     bf  133 -   135         -6.072387754504         -2.761732988628          0.000000000000
      0.2888754725D+00  0.1000000000D+01
 Atom C5       Shell    52 P   1     bf  136 -   138         -6.072387754504         -2.761732988628          0.000000000000
      0.1005682367D+00  0.1000000000D+01
 Atom C5       Shell    53 D   1     bf  139 -   143         -6.072387754504         -2.761732988628          0.000000000000
      0.1097000000D+01  0.1000000000D+01
 Atom C5       Shell    54 D   1     bf  144 -   148         -6.072387754504         -2.761732988628          0.000000000000
      0.3180000000D+00  0.1000000000D+01
 Atom C5       Shell    55 F   1     bf  149 -   155         -6.072387754504         -2.761732988628          0.000000000000
      0.7610000000D+00  0.1000000000D+01
 Atom C6       Shell    56 S   6     bf  156 -   156         -2.469305461280         -6.651910729790          0.000000000000
      0.1357534968D+05  0.6064550360D-03
      0.2035233368D+04  0.4697908888D-02
      0.4632256236D+03  0.2433247765D-01
      0.1312001960D+03  0.9739996831D-01
      0.4285301589D+02  0.3019558425D+00
      0.1558418577D+02  0.6623360914D+00
[...]
 0.00000066,0.00000065,0.,-0.00001397,0.00002884,0.,-0.00000852,0.00000
 267,0.,0.00081328,-0.00032169,0.,0.33331031,0.00003192,-0.00000621,0.,
 0.00000308,0.00003579,0.,-0.00001428,-0.00003024,0.,-0.00122208,0.0006
 6978,0.,-0.00034235,-0.00059265,0.,0.00006932,-0.00011196,0.,-0.000160
 40,-0.00004628,0.,-0.00005390,0.00018131,0.,0.00005905,-0.00028895,0.,
 0.00032930,0.00037740,0.,-0.00010753,-0.00006456,0.,0.00003748,0.00005
 415,0.,-0.00004552,-0.00004278,0.,0.00011727,0.00008952,0.,0.00007004,
 0.00006139,0.,0.00015859,-0.00028574,0.,0.00072112,0.00079527,0.,0.000
 01008,0.00000399,0.,-0.00003869,-0.00001393,0.,0.00002157,-0.00000842,
 0.,-0.00009740,-0.00100351,0.,0.00007346,-0.00595794,0.,-0.03171867,-0
 .00414861,0.,-0.08270481,-0.08740970,0.,0.02171354,0.01019359,0.,0.003
 32097,-0.00282120,0.,-0.00000167,0.00000824,0.,-0.00001907,-0.00000567
 ,0.,0.00000493,-0.00000596,0.,-0.00001070,0.00000238,0.,0.00000157,0.0
 0000906,0.,0.00000540,0.00000544,0.,0.00000286,0.00000056,0.,0.0000114
 0,0.00000198,0.,0.00004816,-0.00004199,0.,-0.00000502,-0.00000278,0.,-
 0.00002004,-0.00000719,0.,0.00001024,-0.00000347,0.,-0.00000479,-0.000
 02482,0.,0.00001082,-0.00001045,0.,-0.00000064,-0.00000287,0.,0.000391
 30,0.00083750,0.,0.08969742,0.08872815,0.,0.,-0.00000100,0.,0.,-0.0000
 1855,0.,0.,0.00001894,0.,0.,0.00013628,0.,0.,-0.00094675,0.,0.,-0.0000
 2391,0.,0.,0.00010275,0.,0.,-0.00005548,0.,0.,0.00009076,0.,0.,-0.0007
 0441,0.,0.,0.00005768,0.,0.,0.00004089,0.,0.,-0.00000793,0.,0.,0.00009
 201,0.,0.,-0.00002104,0.,0.,-0.00020636,0.,0.,0.00015318,0.,0.,0.00008
 545,0.,0.,-0.00003985,0.,0.,-0.00000194,0.,0.,-0.00074466,0.,0.,0.0100
 6846,0.,0.,0.00366474,0.,0.,-0.03752714,0.,0.,0.00190342,0.,0.,0.00542
 744,0.,0.,0.00000099,0.,0.,0.00000051,0.,0.,-0.00000344,0.,0.,-0.00000
 095,0.,0.,-0.00000148,0.,0.,0.,0.,0.,0.00000036,0.,0.,0.00000268,0.,0.
 ,0.00024736,0.,0.,-0.00001345,0.,0.,0.00000785,0.,0.,-0.00001594,0.,0.
 ,0.00000608,0.,0.,0.00001267,0.,0.,0.00000390,0.,0.,-0.00520931,0.,0.,
 0.02591998,0.00004348,-0.00000482,0.,0.00003844,0.00008849,0.,-0.00010
 030,0.00004086,0.,0.00038326,0.00033769,0.,-0.00031773,-0.00003897,0.,
 -0.00000737,-0.00007310,0.,-0.00012593,-0.00001078,0.,0.00007997,0.000
 13141,0.,-0.00055027,-0.00017771,0.,0.00082842,-0.00149108,0.,0.000166
 33,-0.00006599,0.,0.00003753,0.00009365,0.,-0.00002741,-0.00008664,0.,
 0.00017758,-0.00010028,0.,0.00008716,-0.00004409,0.,-0.00014892,0.0000
 9505,0.,0.00130630,0.00018734,0.,-0.00207026,-0.00026670,0.,0.00040555
 ,0.00049390,0.,0.00016145,-0.00008275,0.,-0.00595574,-0.00009030,0.,-0
 .00099082,-0.00009813,0.,-0.00328253,0.00316931,0.,0.00924998,0.024249
 36,0.,-0.07885268,-0.07238400,0.,-0.00127602,-0.03068419,0.,0.00001219
 ,0.00002250,0.,-0.00007043,-0.00001458,0.,0.00002470,-0.00000422,0.,-0
 .00002278,0.00000981,0.,0.00001751,0.00002199,0.,0.00001101,-0.0000028
 9,0.,0.00000733,0.00000507,0.,0.00000775,-0.00000595,0.,-0.00000050,-0
 .00008706,0.,-0.00000755,-0.00002399,0.,-0.00000288,0.00000062,0.,0.00
 000174,-0.00001227,0.,-0.00158785,0.00277646,0.,-0.00002226,-0.0000038
 3,0.,0.00008505,0.00002194,0.,0.00022539,0.00112228,0.,0.00081072,-0.0
 0035193,0.,0.08125034,-0.00004301,0.00001759,0.,0.00000534,-0.00003290
 ,0.,-0.00001394,0.00008223,0.,-0.00008306,-0.00007469,0.,0.00008350,0.
 00004632,0.,-0.00006863,0.00001406,0.,0.00001066,-0.00001055,0.,-0.000
 03495,-0.00000145,0.,-0.00023729,0.00009855,0.,0.00004641,-0.00042905,
 0.,0.00016121,-0.00008900,0.,-0.00009341,0.00001751,0.,0.00003993,-0.0
 0002660,0.,0.00004707,-0.00005855,0.,-0.00004101,-0.00014971,0.,-0.000
 25788,0.00018235,0.,0.00053580,-0.00203977,0.,0.00242781,-0.00077043,0
 .,0.00027112,0.00036418,0.,0.00009429,-0.00005545,0.,-0.00085266,0.001
 45387,0.,0.00030327,0.00063665,0.,0.00412057,-0.00103652,0.,-0.0080979
 6,-0.01710735,0.,-0.07230916,-0.32357983,0.,-0.00251885,-0.00525671,0.
 ,0.00002907,-0.00001872,0.,0.00000108,0.00001354,0.,-0.00000719,-0.000
 00446,0.,-0.00000353,0.00001140,0.,0.00000518,-0.00000502,0.,-0.000014
 03,0.00000653,0.,0.00000507,0.00000039,0.,-0.00001222,0.00000558,0.,0.
 00001720,0.00001788,0.,-0.00000734,-0.00001116,0.,-0.00000482,-0.00000
 638,0.,0.00000498,0.00000123,0.,0.00319728,-0.00087668,0.,-0.00000825,
 -0.00000069,0.,0.00003088,0.00001334,0.,-0.00036530,-0.00091694,0.,0.0
 0030603,0.00088056,0.,0.07333223,0.34869301,0.,0.,-0.00004377,0.,0.,-0
 .00012847,0.,0.,0.00004333,0.,0.,-0.00064328,0.,0.,0.00015983,0.,0.,0.
 00016758,0.,0.,-0.00006295,0.,0.,0.00009476,0.,0.,-0.00098390,0.,0.,0.
 00047362,0.,0.,0.00016492,0.,0.,0.00008945,0.,0.,0.00006616,0.,0.,-0.0
 0016704,0.,0.,0.00008045,0.,0.,-0.00019959,0.,0.,-0.00426834,0.,0.,-0.
 00024711,0.,0.,-0.00050541,0.,0.,-0.00010920,0.,0.,0.00892954,0.,0.,-0
 .00092125,0.,0.,0.00541586,0.,0.,0.00306015,0.,0.,-0.03694734,0.,0.,0.
 00373859,0.,0.,0.00000738,0.,0.,0.00001629,0.,0.,-0.00000550,0.,0.,-0.
 00000442,0.,0.,-0.00000245,0.,0.,0.00000101,0.,0.,0.00000807,0.,0.,0.0
 0005437,0.,0.,0.00006205,0.,0.,-0.00000247,0.,0.,-0.00001254,0.,0.,0.0
 0000085,0.,0.,0.00214691,0.,0.,0.00000203,0.,0.,0.00014089,0.,0.,-0.00
 006746,0.,0.,-0.00250504,0.,0.,0.02289289,0.00060306,0.00109268,0.,0.0
 0042244,-0.00128678,0.,-0.00255180,0.00106341,0.,0.00002613,-0.0000386
 1,0.,0.00001559,0.00003585,0.,-0.00002506,0.00003900,0.,-0.00001783,-0
 .00003781,0.,-0.00002783,0.00003313,0.,0.00003120,0.00001079,0.,-0.000
 06089,0.00004385,0.,0.00014862,-0.00004555,0.,0.00006021,0.00002636,0.
 ,0.00017255,0.00006028,0.,0.00003523,-0.00006138,0.,0.00007492,-0.0005
 4893,0.,0.00007090,-0.00005131,0.,0.00003436,-0.00003010,0.,0.00000511
 ,-0.00006952,0.,-0.00005333,0.00005771,0.,0.00001580,0.00005193,0.,0.0
 0003124,-0.00004187,0.,-0.00000006,-0.00002150,0.,0.00002015,-0.000004
 61,0.,-0.00002931,-0.00000482,0.,0.00003046,0.00000299,0.,0.00000401,0
 .00004659,0.,-0.00385793,0.00278274,0.,0.01041869,0.02290095,0.,-0.065
 35305,-0.04027899,0.,-0.00085052,-0.03162798,0.,-0.00527369,-0.0014205
 2,0.,-0.00122841,0.00042333,0.,-0.00027808,0.00027771,0.,-0.00359500,-
 0.00153659,0.,0.00000049,-0.00000102,0.,-0.00001318,-0.00002796,0.,-0.
 00000209,-0.00000213,0.,-0.00000004,-0.00000394,0.,0.00001315,0.000000
 38,0.,0.00001023,0.00000843,0.,-0.00001723,-0.00004187,0.,0.00000087,-
 0.00000349,0.,0.00000718,0.00000013,0.,-0.00000395,0.00000083,0.,0.070
 27892,-0.00073631,-0.00070526,0.,-0.00158394,-0.00100230,0.,-0.0013613
 0,-0.00053860,0.,-0.00001986,0.00002896,0.,0.00000858,-0.00003717,0.,0
 .00001933,-0.00006737,0.,0.00002552,0.00006499,0.,0.00003123,-0.000057
 36,0.,-0.00002092,-0.00003321,0.,0.00006296,0.00000136,0.,-0.00005056,
 -0.00001767,0.,0.00018904,-0.00007807,0.,0.00000501,0.00002528,0.,-0.0
 0007793,0.00005654,0.,-0.00022841,0.00075360,0.,-0.00016660,-0.0000844
 6,0.,-0.00003251,0.00007897,0.,0.00002788,0.00003015,0.,0.00000342,-0.
 00003614,0.,0.00002950,0.00004872,0.,-0.00000930,0.00002236,0.,0.00000
 214,0.00000295,0.,-0.00001893,0.00000795,0.,0.00001224,0.00000967,0.,-
 0.00000673,0.00001708,0.,-0.00000900,-0.00004254,0.,0.00367249,-0.0002
 2085,0.,-0.00479563,-0.01607403,0.,-0.04138683,-0.33721420,0.,0.000865
 74,-0.00745679,0.,-0.00219135,0.00132023,0.,0.00036874,0.00062679,0.,0
 .00023136,-0.00022071,0.,-0.00204056,0.00134811,0.,0.00000159,-0.00000
 059,0.,0.00001494,0.00002884,0.,0.00000193,-0.00000594,0.,0.00000472,0
 .00000355,0.,-0.00000535,-0.00000229,0.,-0.00000799,-0.00000096,0.,0.0
 0000933,0.00002493,0.,0.00000086,-0.00000029,0.,-0.00000099,0.00000188
 ,0.,0.00000338,0.00000175,0.,0.04941315,0.35898634,0.,0.,0.00018679,0.
 ,0.,-0.00275957,0.,0.,-0.00058838,0.,0.,0.00000685,0.,0.,-0.00000545,0
 .,0.,-0.00002740,0.,0.,-0.00000026,0.,0.,-0.00001020,0.,0.,0.,0.,0.,-0
 .00002116,0.,0.,0.00016094,0.,0.,-0.00011000,0.,0.,-0.00020843,0.,0.,0
 .00007668,0.,0.,-0.00021120,0.,0.,-0.00000149,0.,0.,0.00002098,0.,0.,0
 .00002481,0.,0.,-0.00002875,0.,0.,-0.00003782,0.,0.,0.00001476,0.,0.,-
 0.00001134,0.,0.,-0.00000052,0.,0.,-0.00000243,0.,0.,-0.00000731,0.,0.
 ,0.00000758,0.,0.,0.00662205,0.,0.,0.00247258,0.,0.,-0.03653332,0.,0.,
 0.00338839,0.,0.,0.00866657,0.,0.,-0.00101441,0.,0.,-0.00004494,0.,0.,
 0.00195318,0.,0.,0.00000123,0.,0.,0.00001410,0.,0.,0.00000067,0.,0.,0.
 00000405,0.,0.,-0.00000306,0.,0.,0.00000050,0.,0.,0.00004550,0.,0.,0.0
 0000166,0.,0.,0.00000144,0.,0.,0.00000535,0.,0.,0.02361192,0.00025134,
 0.00000759,0.,-0.00025589,0.00146972,0.,-0.00009844,-0.00002601,0.,-0.
 00000500,0.00000981,0.,-0.00001023,-0.00000372,0.,0.00000069,0.0000193
 2,0.,0.00000100,-0.00000959,0.,-0.00000259,0.00000632,0.,-0.00000970,0
 .00001013,0.,-0.00000745,-0.00005390,0.,-0.00011596,0.00008117,0.,-0.0
 0033033,-0.00021603,0.,-0.00010074,-0.00016663,0.,0.00002211,-0.000005
 37,0.,0.00011559,-0.00001383,0.,-0.00001285,0.00007484,0.,0.00000801,-
 0.00002663,0.,-0.00003750,0.00001581,0.,0.00002766,-0.00002361,0.,-0.0
 0006820,-0.00000249,0.,-0.00002381,0.00002168,0.,-0.00000401,0.0000022
 4,0.,-0.00000088,0.00000306,0.,0.00000930,-0.00000505,0.,-0.00001757,-
 0.00000538,0.,0.00000653,-0.00000485,0.,-0.00033095,-0.00092267,0.,-0.
 00412078,-0.00329130,0.,-0.01766011,0.02160983,0.,-0.22214806,0.139115
 71,0.,0.00827374,-0.00585288,0.,0.00118954,-0.00178126,0.,-0.00002395,
 0.00004494,0.,-0.00000233,-0.00000523,0.,-0.00000203,0.00000158,0.,0.0
 0000089,-0.00000527,0.,-0.00000024,0.00000495,0.,-0.00000309,0.0000011
 7,0.,-0.00000311,-0.00000221,0.,-0.00000673,-0.00000708,0.,0.00000566,
 -0.00000838,0.,-0.00000180,0.00000240,0.,-0.00000417,-0.00000090,0.,0.
 00000175,-0.00000193,0.,0.00080164,-0.00027491,0.,0.23379378,0.0002593
 6,0.00002966,0.,-0.00015030,0.00061322,0.,-0.00000293,-0.00008613,0.,0
 .00000114,0.00000197,0.,0.00000823,-0.00000207,0.,-0.00001291,-0.00002
 243,0.,0.00000281,0.00001706,0.,0.00000478,-0.00000679,0.,0.00000661,-
 0.00001305,0.,-0.00000816,-0.00000547,0.,-0.00010573,0.00000510,0.,-0.
 00004462,0.00005660,0.,-0.00008448,-0.00011559,0.,-0.00000555,0.000022
 88,0.,0.00008781,-0.00000105,0.,0.00002853,0.00007250,0.,-0.00003338,-
 0.00001843,0.,-0.00000677,0.00003298,0.,0.00004259,-0.00000810,0.,-0.0
 0002623,-0.00003501,0.,-0.00000260,0.00000154,0.,-0.00000084,-0.000009
 55,0.,0.00000226,0.00000381,0.,-0.00000321,-0.00000305,0.,0.00000066,0
 .00000611,0.,0.00000788,0.00000613,0.,-0.00117906,-0.00034011,0.,-0.00
 285691,0.00019874,0.,-0.01019958,0.01036020,0.,0.13988823,-0.18091065,
 0.,0.02571923,-0.01408523,0.,-0.00240633,-0.00534510,0.,-0.00005887,0.
 00005752,0.,-0.00000904,-0.00002448,0.,0.00000145,-0.00000089,0.,-0.00
 000063,0.00000979,0.,-0.00000121,-0.00000228,0.,0.00000316,0.00000009,
 0.,0.00000228,0.00000048,0.,0.00000106,0.00000215,0.,-0.00000291,-0.00
 000205,0.,0.00000054,-0.00000172,0.,0.00000248,0.00000064,0.,-0.000001
 47,0.00000108,0.,0.00024911,0.00096277,0.,-0.14993563,0.18856468,0.,0.
 ,-0.00092601,0.,0.,0.00016937,0.,0.,0.00028166,0.,0.,-0.00000192,0.,0.
 ,0.00000400,0.,0.,-0.00001691,0.,0.,-0.00000173,0.,0.,-0.00000512,0.,0
 .,-0.00000886,0.,0.,-0.00005372,0.,0.,-0.00002475,0.,0.,-0.00038135,0.
 ,0.,0.00013567,0.,0.,0.00009686,0.,0.,-0.00010868,0.,0.,0.00007677,0.,
 0.,-0.00001782,0.,0.,0.00000513,0.,0.,-0.00001277,0.,0.,0.00001932,0.,
 0.,0.00000215,0.,0.,0.00000525,0.,0.,0.00000176,0.,0.,-0.00000456,0.,0
 .,-0.00000344,0.,0.,0.00000551,0.,0.,-0.00116114,0.,0.,0.00864056,0.,0
 .,0.00247079,0.,0.,-0.03619484,0.,0.,0.00225513,0.,0.,0.00674627,0.,0.
 ,0.00003958,0.,0.,-0.00005468,0.,0.,-0.00000241,0.,0.,0.00000470,0.,0.
 ,0.00000226,0.,0.,0.00000310,0.,0.,0.00000260,0.,0.,0.00000160,0.,0.,0
 .00000604,0.,0.,0.00000276,0.,0.,0.00000110,0.,0.,0.00000288,0.,0.,-0.
 00454105,0.,0.,0.02563570,-0.00069234,-0.00095196,0.,0.00009855,0.0000
 2729,0.,-0.00005402,-0.00007183,0.,-0.00000348,0.00000162,0.,-0.000031
 72,0.00000627,0.,-0.00000525,0.00004929,0.,-0.00000618,-0.00004708,0.,
 -0.00001523,0.00003632,0.,-0.00002248,0.00006371,0.,0.00002231,-0.0000
 2083,0.,-0.00001445,-0.00005004,0.,0.00005417,0.00012293,0.,-0.0002960
 5,0.00029635,0.,-0.00000707,-0.00009099,0.,0.00003570,-0.00000250,0.,-
 0.00000052,0.00004402,0.,0.00000048,-0.00000686,0.,0.00000042,0.000009
 76,0.,0.00000867,-0.00002413,0.,-0.00001950,-0.00000126,0.,-0.00001415
 ,-0.00000152,0.,0.00000147,0.00001921,0.,0.00000008,-0.00000654,0.,0.0
 0001337,-0.00000291,0.,-0.00001691,-0.00001983,0.,-0.00000683,0.000002
 10,0.,-0.00140373,0.00404832,0.,0.00030057,0.00059328,0.,0.00176794,-0
 .00086894,0.,-0.00126979,0.00092662,0.,-0.31115264,-0.08847473,0.,-0.0
 1769916,-0.01118519,0.,0.00000515,0.00003850,0.,0.00000751,0.00001684,
 0.,-0.00000342,0.00000114,0.,0.00000048,-0.00001413,0.,-0.00000321,0.0
 0001270,0.,-0.00000579,-0.00000085,0.,-0.00000447,0.00000059,0.,-0.000
 00189,-0.00000410,0.,0.00000476,-0.00000128,0.,-0.00000118,0.00000347,
 0.,-0.00000528,-0.00000205,0.,0.00000006,-0.00000235,0.,-0.00020346,0.
 00007698,0.,0.00065999,-0.00040918,0.,0.32913383,0.00050120,0.00071947
 ,0.,-0.00028144,0.00000342,0.,0.00007626,0.00002100,0.,-0.00000380,-0.
 00000342,0.,0.00000426,0.00000468,0.,0.00000368,-0.00000494,0.,-0.0000
 0176,0.00000046,0.,0.00000446,-0.00000225,0.,0.00000939,-0.00002498,0.
 ,-0.00001227,-0.00000542,0.,0.00008205,0.00008523,0.,-0.00013353,-0.00
 023115,0.,0.00033362,-0.00010898,0.,0.00006250,0.00007521,0.,-0.000104
 06,0.00004834,0.,-0.00002414,-0.00008609,0.,0.00002964,0.00003158,0.,0
 .00001748,-0.00003071,0.,-0.00004246,0.00000190,0.,0.00002915,0.000036
 74,0.,0.00000565,0.00000997,0.,0.00000124,0.00001049,0.,-0.00000617,-0
 .00000399,0.,0.00000256,0.00000714,0.,0.00000563,-0.00000457,0.,-0.000
 01245,-0.00001003,0.,0.00348914,-0.00245323,0.,0.00096360,-0.00104427,
 0.,-0.00026332,-0.00573348,0.,-0.03061393,-0.00420527,0.,-0.08899645,-
 0.09213056,0.,0.02067568,0.01132700,0.,-0.00001234,-0.00001789,0.,0.00
 001859,0.00009920,0.,0.00000095,0.00000051,0.,0.00000201,0.00000640,0.
 ,0.00000240,-0.00000129,0.,-0.00000007,0.00000010,0.,-0.00000221,-0.00
 000028,0.,-0.00000219,-0.00000136,0.,0.00000380,0.00000620,0.,-0.00000
 017,0.00000081,0.,-0.00000160,-0.00000007,0.,0.00000091,-0.00000056,0.
 ,-0.00141332,-0.00045813,0.,0.00049376,0.00088407,0.,0.09553863,0.0923
 7900,0.,0.,0.00020691,0.,0.,-0.00094677,0.,0.,0.00002320,0.,0.,-0.0000
 0240,0.,0.,0.00000012,0.,0.,-0.00001041,0.,0.,-0.00000126,0.,0.,-0.000
 00034,0.,0.,0.00002013,0.,0.,-0.00001022,0.,0.,0.00003852,0.,0.,0.0000
 7468,0.,0.,-0.00041322,0.,0.,-0.00001844,0.,0.,-0.00003769,0.,0.,-0.00
 000895,0.,0.,0.00001576,0.,0.,0.00000084,0.,0.,-0.00000749,0.,0.,-0.00
 000175,0.,0.,-0.00000406,0.,0.,0.00000197,0.,0.,-0.00000118,0.,0.,-0.0
 0000063,0.,0.,-0.00000321,0.,0.,0.00000389,0.,0.,0.00889933,0.,0.,-0.0
 0103379,0.,0.,0.00681965,0.,0.,0.00219203,0.,0.,-0.03697084,0.,0.,0.00
 291695,0.,0.,0.00008762,0.,0.,0.00009897,0.,0.,0.00000120,0.,0.,0.0000
 0228,0.,0.,0.00000266,0.,0.,0.00000106,0.,0.,-0.00000032,0.,0.,0.00000
 139,0.,0.,0.00000399,0.,0.,0.00000100,0.,0.,0.00000082,0.,0.,0.0000010
 7,0.,0.,-0.00003543,0.,0.,-0.00318599,0.,0.,0.02585522,0.00119234,-0.0
 0216958,0.,0.00020418,-0.00154806,0.,-0.00049863,0.00011285,0.,-0.0000
 1187,0.00001417,0.,0.00001307,-0.00001416,0.,-0.00007306,-0.00006338,0
 .,0.00003932,0.00005894,0.,0.00001472,-0.00002912,0.,-0.00002017,-0.00
 001895,0.,0.00000321,-0.00002418,0.,0.00001996,0.00013492,0.,0.0001601
 2,-0.00025248,0.,0.00010683,0.00051820,0.,-0.00003522,0.00000735,0.,0.
 00000502,-0.00013336,0.,-0.00001278,-0.00003266,0.,0.00003119,0.000016
 27,0.,-0.00000929,-0.00000733,0.,-0.00001413,-0.00001316,0.,-0.0000454
 8,0.00002088,0.,-0.00001105,0.00002073,0.,0.00000198,-0.00000180,0.,-0
 .00001412,0.00000689,0.,0.00000803,0.00000804,0.,0.00000043,0.00000849
 ,0.,0.00000538,-0.00002434,0.,-0.00094616,-0.02935180,0.,-0.00508537,-
 0.00072689,0.,-0.00128043,0.00037919,0.,-0.00341756,0.00317119,0.,0.00
 896523,0.02513712,0.,-0.06852763,-0.04778585,0.,-0.00066970,0.00108068
 ,0.,0.00002328,-0.00000866,0.,0.00000208,-0.00000077,0.,-0.00000121,0.
 00005571,0.,-0.00000343,-0.00000031,0.,0.00000873,0.00000270,0.,-0.000
 00080,-0.00000219,0.,-0.00000611,-0.00000160,0.,0.00000178,0.00000193,
 0.,0.00000056,-0.00000101,0.,0.00000059,0.00000143,0.,0.00000316,0.000
 00198,0.,0.00010963,-0.00005614,0.,0.00023922,0.00122834,0.,0.00084465
 ,-0.00043055,0.,0.06867950,0.00204017,0.00085383,0.,0.00056916,-0.0004
 2132,0.,-0.00030217,-0.00005107,0.,-0.00000790,0.00001584,0.,-0.000016
 34,-0.00000825,0.,-0.00003483,0.00002676,0.,0.00001790,-0.00000172,0.,
 -0.00000651,0.00000581,0.,-0.00002928,0.00002595,0.,0.00003866,-0.0000
 3493,0.,-0.00007853,-0.00002121,0.,0.00011580,0.00020077,0.,-0.0004205
 8,0.00015536,0.,0.00001016,-0.00006921,0.,0.00010300,-0.00001785,0.,-0
 .00002277,0.00007240,0.,0.00000587,-0.00001406,0.,-0.00002739,0.000023
 65,0.,0.00002234,-0.00002100,0.,-0.00005291,-0.00001239,0.,-0.00003044
 ,0.00000996,0.,-0.00000143,0.00000346,0.,-0.00000755,0.00000535,0.,0.0
 0001823,-0.00000290,0.,-0.00002425,-0.00000411,0.,0.00001066,-0.000014
 77,0.,0.00046547,-0.00826499,0.,-0.00185614,0.00131033,0.,0.00015802,0
 .00064974,0.,0.00401223,-0.00051431,0.,-0.00670847,-0.01544169,0.,-0.0
 4798492,-0.32970056,0.,-0.00065357,0.00053774,0.,0.00002161,0.00001656
 ,0.,-0.00000196,0.00000088,0.,-0.00000251,0.00001018,0.,-0.00000378,0.
 00000921,0.,-0.00000098,0.00000135,0.,-0.00000434,-0.00000173,0.,-0.00
 000404,-0.00000462,0.,0.00000436,0.00000265,0.,-0.00000096,0.00000251,
 0.,-0.00000407,-0.00000067,0.,0.00000349,-0.00000046,0.,-0.00002073,-0
 .00009882,0.,-0.00034326,-0.00087256,0.,0.00032512,0.00080401,0.,0.050
 71034,0.35085089,0.,0.,-0.00345507,0.,0.,0.00008250,0.,0.,0.00010781,0
 .,0.,-0.00000273,0.,0.,0.00000077,0.,0.,-0.00004216,0.,0.,-0.00000701,
 0.,0.,-0.00000194,0.,0.,-0.00000464,0.,0.,0.00001019,0.,0.,0.00001442,
 0.,0.,0.00003693,0.,0.,-0.00011227,0.,0.,0.00018708,0.,0.,-0.00000032,
 0.,0.,-0.00001177,0.,0.,-0.00000241,0.,0.,0.00000031,0.,0.,-0.00000292
 ,0.,0.,-0.00003799,0.,0.,-0.00000247,0.,0.,0.00000331,0.,0.,-0.0000019
 5,0.,0.,-0.00000041,0.,0.,-0.00000217,0.,0.,0.00000199,0.,0.,0.0030131
 1,0.,0.,0.00587199,0.,0.,-0.00087098,0.,0.,0.00837172,0.,0.,0.00340896
 ,0.,0.,-0.03656894,0.,0.,0.00026301,0.,0.,0.00000224,0.,0.,-0.00000218
 ,0.,0.,0.00004406,0.,0.,0.00000769,0.,0.,0.00000282,0.,0.,0.00000020,0
 .,0.,0.00000880,0.,0.,0.00000240,0.,0.,0.00000100,0.,0.,0.00000088,0.,
 0.,0.00000125,0.,0.,-0.00108466,0.,0.,0.00008923,0.,0.,-0.00457687,0.,
 0.,0.02525721\\0.00000397,-0.00000137,0.,0.00000362,0.00000520,0.,-0.0
 0000548,-0.00000225,0.,0.00000637,-0.00000171,0.,-0.00001080,0.0000085
 9,0.,-0.00000180,0.00000419,0.,0.00000145,-0.00000153,0.,-0.00000261,-
 0.00000555,0.,0.00000723,-0.00001065,0.,-0.00000421,0.00001297,0.,0.00
 000093,-0.00001336,0.,0.00000256,0.00000324,0.,-0.00000155,-0.00000155
 ,0.,-0.00000349,-0.00000039,0.,0.00001140,-0.00000406,0.,-0.00000336,0
 .00001150,0.,0.00000152,-0.00000542,0.,-0.00000107,0.00000047,0.,0.000
 00350,-0.00000073,0.,-0.00000105,0.00000184,0.,0.00000346,-0.00001273,
 0.,-0.00001312,0.00000184,0.,0.00000739,0.00000449,0.,0.00000313,-0.00
 000824,0.,-0.00000688,-0.00000131,0.,0.00000416,0.00000948,0.,-0.00000
 124,0.00000500,0.,-0.00000246,-0.00000418,0.,-0.00000264,0.00000272,0.
 ,0.00000230,0.00000227,0.,-0.00000098,0.00000223,0.,0.00000253,-0.0000
 0021,0.,-0.00000142,-0.00000066,0.,0.00000175,0.00000073,0.,-0.0000015
 1,-0.00000089,0.,-0.00000253,0.00000045,0.,-0.00000298,-0.00000022,0.,
 -0.00000109,0.00000026,0.,0.00000273,-0.00000195,0.,0.00000182,-0.0000
 0046,0.,0.00000086,-0.00000063,0.,-0.00000138,-0.00000234,0.,0.0000001
 8,-0.00000025,0.,0.00000099,-0.00000036,0.,0.00000166,0.00000040,0.,-0
 .00000007,0.00000220,0.,0.00000021,0.00000155,0.,-0.00000201,0.0000013
 8,0.\\\@


 It takes a long time to grow an old friend.
                            -- John Leonard
 Job cpu time:      14 days 16 hours 36 minutes 43.9 seconds.
 File lengths (MBytes):  RWF=   4428 Int=      0 D2E=      0 Chk=     85 Scr=      1
 Normal termination of Gaussian 09 at Mon Jul 29 00:53:40 2019.
