 Entering Gaussian System, Link 0=g09
 Initial command:
 /home/minenky/programs//g09/l1.exe "/local/scratch/minenky/m1_00_72986-34-6-C32H16_wB97XD/Gau-250204.inp" -scrdir="/local/scratch/minenky/m1_00_72986-34-6-C32H16_wB97XD/"
 Entering Link 1 = /home/minenky/programs//g09/l1.exe PID=    250205.
  
 Copyright (c) 1988,1990,1992,1993,1995,1998,2003,2009,2013,
            Gaussian, Inc.  All Rights Reserved.
  
 This is part of the Gaussian(R) 09 program.  It is based on
 the Gaussian(R) 03 system (copyright 2003, Gaussian, Inc.),
 the Gaussian(R) 98 system (copyright 1998, Gaussian, Inc.),
 the Gaussian(R) 94 system (copyright 1995, Gaussian, Inc.),
 the Gaussian 92(TM) system (copyright 1992, Gaussian, Inc.),
 the Gaussian 90(TM) system (copyright 1990, Gaussian, Inc.),
 the Gaussian 88(TM) system (copyright 1988, Gaussian, Inc.),
 the Gaussian 86(TM) system (copyright 1986, Carnegie Mellon
 University), and the Gaussian 82(TM) system (copyright 1983,
 Carnegie Mellon University). Gaussian is a federally registered
 trademark of Gaussian, Inc.
  
 This software contains proprietary and confidential information,
 including trade secrets, belonging to Gaussian, Inc.
  
 This software is provided under written license and may be
 used, copied, transmitted, or stored only in accord with that
 written license.
  
 The following legend is applicable only to US Government
 contracts under FAR:
  
                    RESTRICTED RIGHTS LEGEND
  
 Use, reproduction and disclosure by the US Government is
 subject to restrictions as set forth in subparagraphs (a)
 and (c) of the Commercial Computer Software - Restricted
 Rights clause in FAR 52.227-19.
  
 Gaussian, Inc.
 340 Quinnipiac St., Bldg. 40, Wallingford CT 06492
  
  
 ---------------------------------------------------------------
 Warning -- This program may not be used in any manner that
 competes with the business of Gaussian, Inc. or will provide
 assistance to any competitor of Gaussian, Inc.  The licensee
 of this program is prohibited from giving any competitor of
 Gaussian, Inc. access to this program.  By using this program,
 the user acknowledges that Gaussian, Inc. is engaged in the
 business of creating and licensing software in the field of
 computational chemistry and represents and warrants to the
 licensee that it is not a competitor of Gaussian, Inc. and that
 it will not use this program in any manner prohibited above.
 ---------------------------------------------------------------
  

 Cite this work as:
 Gaussian 09, Revision D.01,
 M. J. Frisch, G. W. Trucks, H. B. Schlegel, G. E. Scuseria, 
 M. A. Robb, J. R. Cheeseman, G. Scalmani, V. Barone, B. Mennucci, 
 G. A. Petersson, H. Nakatsuji, M. Caricato, X. Li, H. P. Hratchian, 
 A. F. Izmaylov, J. Bloino, G. Zheng, J. L. Sonnenberg, M. Hada, 
 M. Ehara, K. Toyota, R. Fukuda, J. Hasegawa, M. Ishida, T. Nakajima, 
 Y. Honda, O. Kitao, H. Nakai, T. Vreven, J. A. Montgomery, Jr., 
 J. E. Peralta, F. Ogliaro, M. Bearpark, J. J. Heyd, E. Brothers, 
 K. N. Kudin, V. N. Staroverov, T. Keith, R. Kobayashi, J. Normand, 
 K. Raghavachari, A. Rendell, J. C. Burant, S. S. Iyengar, J. Tomasi, 
 M. Cossi, N. Rega, J. M. Millam, M. Klene, J. E. Knox, J. B. Cross, 
 V. Bakken, C. Adamo, J. Jaramillo, R. Gomperts, R. E. Stratmann, 
 O. Yazyev, A. J. Austin, R. Cammi, C. Pomelli, J. W. Ochterski, 
 R. L. Martin, K. Morokuma, V. G. Zakrzewski, G. A. Voth, 
 P. Salvador, J. J. Dannenberg, S. Dapprich, A. D. Daniels, 
 O. Farkas, J. B. Foresman, J. V. Ortiz, J. Cioslowski, 
 and D. J. Fox, Gaussian, Inc., Wallingford CT, 2013.
 
 ******************************************
 Gaussian 09:  AM64L-G09RevD.01 24-Apr-2013
                27-Jul-2019 
 ******************************************
 %Mem=32000MB
 %NProcShared=16
 Will use up to   16 processors via shared memory.
 %Chk=m1_00_72986-34-6-C32H16_wB97XD
 ----------------------------------------------------------------------
 #P wB97XD/def2tzvp opt=(tight) freq integral(Grid=ultrafine) # SCF(Max
 Cycle=380) 5d 7f GFPrint
 ----------------------------------------------------------------------
 1/7=10,14=-1,18=20,19=15,26=4,38=1/1,3;
 2/9=110,12=2,17=6,18=5,40=1/2;
 3/5=44,7=101,8=11,11=2,16=1,24=100,25=1,30=1,71=1,74=-58,75=-5/1,2,3;
 4//1;
 5/5=2,7=380,38=5/2;
 6/7=2,8=2,9=2,10=2,28=1/1;
 7//1,2,3,16;
 1/7=10,14=-1,18=20,19=15,26=4/3(2);
 2/9=110/2;
 99//99;
 2/9=110/2;
 3/5=44,7=101,8=11,11=2,16=1,25=1,30=1,71=1,74=-58,75=-5/1,2,3;
 4/5=5,16=3,69=1/1;
 5/5=2,7=380,38=5/2;
 7//1,2,3,16;
 1/7=10,14=-1,18=20,19=15,26=4/3(-5);
 2/9=110/2;
 6/7=2,8=2,9=2,10=2,19=2,28=1/1;
 99/9=1/99;
 Leave Link    1 at Sat Jul 27 16:36:03 2019, MaxMem=  4194304000 cpu:         1.0
 (Enter /home/minenky/programs//g09/l101.exe)
 ---------------------------------------
 The PBEPBE optimization and frequencies
 ---------------------------------------
 Symbolic Z-matrix:
 Charge =  0 Multiplicity = 1
 C                     6.35244  -1.47541   0. 
 C                     6.939    -0.19168   0. 
 C                     6.14885   0.92768   0. 
 C                     4.98887  -1.61202   0. 
 C                     4.14579  -0.4716    0. 
 C                     4.7338    0.80959   0. 
 C                     3.91382   1.97024   0. 
 C                     2.54405   1.86046   0. 
 C                     1.69595   3.03229   0. 
 C                     0.35237   2.92404   0. 
 C                    -0.30637   1.63775   0. 
 C                     0.50016   0.46669   0. 
 C                     2.08514  -1.86774   0. 
 C                     2.7152   -0.59173   0. 
 C                     1.92549   0.56798   0. 
 C                    -1.70132   1.52523   0. 
 C                    -2.56315   2.68291   0. 
 C                    -3.90887   2.5673    0. 
 C                    -4.54543   1.27279   0. 
 C                    -5.93116   1.13867   0. 
 C                    -6.51456  -0.12953   0. 
 C                    -5.73075  -1.26922   0. 
 C                    -3.72995   0.11363   0. 
 C                    -4.32834  -1.16699   0. 
 C                    -3.49814  -2.33109   0. 
 C                    -2.30577   0.23776   0. 
 C                    -1.51069  -0.92242   0. 
 C                    -2.13382  -2.21988   0. 
 C                    -1.27622  -3.38985   0. 
 C                     0.06559  -3.27887   0. 
 C                     0.71808  -1.98405   0. 
 C                    -0.10235  -0.80806   0. 
 H                     6.99863  -2.35925   0. 
 H                     8.03023  -0.10231   0. 
 H                     6.59668   1.92802   0. 
 H                     4.5175   -2.60676   0. 
 H                     4.39277   2.9573    0. 
 H                     2.18277   4.01448   0. 
 H                    -0.29282   3.81627   0. 
 H                     2.72852  -2.7624    0. 
 H                    -2.07571   3.67018   0. 
 H                    -4.55163   3.45512   0. 
 H                    -6.56605   2.03186   0. 
 H                    -7.60613  -0.21904   0. 
 H                    -6.19757  -2.26074   0. 
 H                    -3.97885  -3.31716   0. 
 H                    -1.76134  -4.37295   0. 
 H                     0.706    -4.16858   0. 
 
 NAtoms=     48 NQM=       48 NQMF=       0 NMMI=      0 NMMIF=      0
                NMic=       0 NMicF=      0.
                    Isotopes and Nuclear Properties:
 (Nuclear quadrupole moments (NQMom) in fm**2, nuclear magnetic moments (NMagM)
  in nuclear magnetons)

  Atom         1           2           3           4           5           6           7           8           9          10
 IAtWgt=          12          12          12          12          12          12          12          12          12          12
 AtmWgt=  12.0000000  12.0000000  12.0000000  12.0000000  12.0000000  12.0000000  12.0000000  12.0000000  12.0000000  12.0000000
 NucSpn=           0           0           0           0           0           0           0           0           0           0
 AtZEff=   0.0000000   0.0000000   0.0000000   0.0000000   0.0000000   0.0000000   0.0000000   0.0000000   0.0000000   0.0000000
 NQMom=    0.0000000   0.0000000   0.0000000   0.0000000   0.0000000   0.0000000   0.0000000   0.0000000   0.0000000   0.0000000
 NMagM=    0.0000000   0.0000000   0.0000000   0.0000000   0.0000000   0.0000000   0.0000000   0.0000000   0.0000000   0.0000000
 AtZNuc=   6.0000000   6.0000000   6.0000000   6.0000000   6.0000000   6.0000000   6.0000000   6.0000000   6.0000000   6.0000000

  Atom        11          12          13          14          15          16          17          18          19          20
 IAtWgt=          12          12          12          12          12          12          12          12          12          12
 AtmWgt=  12.0000000  12.0000000  12.0000000  12.0000000  12.0000000  12.0000000  12.0000000  12.0000000  12.0000000  12.0000000
 NucSpn=           0           0           0           0           0           0           0           0           0           0
 AtZEff=   0.0000000   0.0000000   0.0000000   0.0000000   0.0000000   0.0000000   0.0000000   0.0000000   0.0000000   0.0000000
 NQMom=    0.0000000   0.0000000   0.0000000   0.0000000   0.0000000   0.0000000   0.0000000   0.0000000   0.0000000   0.0000000
 NMagM=    0.0000000   0.0000000   0.0000000   0.0000000   0.0000000   0.0000000   0.0000000   0.0000000   0.0000000   0.0000000
 AtZNuc=   6.0000000   6.0000000   6.0000000   6.0000000   6.0000000   6.0000000   6.0000000   6.0000000   6.0000000   6.0000000

  Atom        21          22          23          24          25          26          27          28          29          30
 IAtWgt=          12          12          12          12          12          12          12          12          12          12
 AtmWgt=  12.0000000  12.0000000  12.0000000  12.0000000  12.0000000  12.0000000  12.0000000  12.0000000  12.0000000  12.0000000
 NucSpn=           0           0           0           0           0           0           0           0           0           0
 AtZEff=   0.0000000   0.0000000   0.0000000   0.0000000   0.0000000   0.0000000   0.0000000   0.0000000   0.0000000   0.0000000
 NQMom=    0.0000000   0.0000000   0.0000000   0.0000000   0.0000000   0.0000000   0.0000000   0.0000000   0.0000000   0.0000000
 NMagM=    0.0000000   0.0000000   0.0000000   0.0000000   0.0000000   0.0000000   0.0000000   0.0000000   0.0000000   0.0000000
 AtZNuc=   6.0000000   6.0000000   6.0000000   6.0000000   6.0000000   6.0000000   6.0000000   6.0000000   6.0000000   6.0000000

  Atom        31          32          33          34          35          36          37          38          39          40
 IAtWgt=          12          12           1           1           1           1           1           1           1           1
 AtmWgt=  12.0000000  12.0000000   1.0078250   1.0078250   1.0078250   1.0078250   1.0078250   1.0078250   1.0078250   1.0078250
 NucSpn=           0           0           1           1           1           1           1           1           1           1
 AtZEff=   0.0000000   0.0000000   0.0000000   0.0000000   0.0000000   0.0000000   0.0000000   0.0000000   0.0000000   0.0000000
 NQMom=    0.0000000   0.0000000   0.0000000   0.0000000   0.0000000   0.0000000   0.0000000   0.0000000   0.0000000   0.0000000
 NMagM=    0.0000000   0.0000000   2.7928460   2.7928460   2.7928460   2.7928460   2.7928460   2.7928460   2.7928460   2.7928460
 AtZNuc=   6.0000000   6.0000000   1.0000000   1.0000000   1.0000000   1.0000000   1.0000000   1.0000000   1.0000000   1.0000000

  Atom        41          42          43          44          45          46          47          48
 IAtWgt=           1           1           1           1           1           1           1           1
 AtmWgt=   1.0078250   1.0078250   1.0078250   1.0078250   1.0078250   1.0078250   1.0078250   1.0078250
 NucSpn=           1           1           1           1           1           1           1           1
 AtZEff=   0.0000000   0.0000000   0.0000000   0.0000000   0.0000000   0.0000000   0.0000000   0.0000000
 NQMom=    0.0000000   0.0000000   0.0000000   0.0000000   0.0000000   0.0000000   0.0000000   0.0000000
 NMagM=    2.7928460   2.7928460   2.7928460   2.7928460   2.7928460   2.7928460   2.7928460   2.7928460
 AtZNuc=   1.0000000   1.0000000   1.0000000   1.0000000   1.0000000   1.0000000   1.0000000   1.0000000
 Leave Link  101 at Sat Jul 27 16:36:04 2019, MaxMem=  4194304000 cpu:         5.6
 (Enter /home/minenky/programs//g09/l103.exe)

 GradGradGradGradGradGradGradGradGradGradGradGradGradGradGradGradGradGrad
 Berny optimization.
 Initialization pass.
                           ----------------------------
                           !    Initial Parameters    !
                           ! (Angstroms and Degrees)  !
 --------------------------                            --------------------------
 ! Name  Definition              Value          Derivative Info.                !
 --------------------------------------------------------------------------------
 ! R1    R(1,2)                  1.4114         estimate D2E/DX2                !
 ! R2    R(1,4)                  1.3704         estimate D2E/DX2                !
 ! R3    R(1,33)                 1.0949         estimate D2E/DX2                !
 ! R4    R(2,3)                  1.3701         estimate D2E/DX2                !
 ! R5    R(2,34)                 1.0949         estimate D2E/DX2                !
 ! R6    R(3,6)                  1.42           estimate D2E/DX2                !
 ! R7    R(3,35)                 1.096          estimate D2E/DX2                !
 ! R8    R(4,5)                  1.4182         estimate D2E/DX2                !
 ! R9    R(4,36)                 1.1008         estimate D2E/DX2                !
 ! R10   R(5,6)                  1.4097         estimate D2E/DX2                !
 ! R11   R(5,14)                 1.4356         estimate D2E/DX2                !
 ! R12   R(6,7)                  1.4211         estimate D2E/DX2                !
 ! R13   R(7,8)                  1.3742         estimate D2E/DX2                !
 ! R14   R(7,37)                 1.0971         estimate D2E/DX2                !
 ! R15   R(8,9)                  1.4465         estimate D2E/DX2                !
 ! R16   R(8,15)                 1.4329         estimate D2E/DX2                !
 ! R17   R(9,10)                 1.3479         estimate D2E/DX2                !
 ! R18   R(9,38)                 1.0962         estimate D2E/DX2                !
 ! R19   R(10,11)                1.4452         estimate D2E/DX2                !
 ! R20   R(10,39)                1.1011         estimate D2E/DX2                !
 ! R21   R(11,12)                1.4219         estimate D2E/DX2                !
 ! R22   R(11,16)                1.3995         estimate D2E/DX2                !
 ! R23   R(12,15)                1.4289         estimate D2E/DX2                !
 ! R24   R(12,32)                1.41           estimate D2E/DX2                !
 ! R25   R(13,14)                1.4231         estimate D2E/DX2                !
 ! R26   R(13,31)                1.372          estimate D2E/DX2                !
 ! R27   R(13,40)                1.102          estimate D2E/DX2                !
 ! R28   R(14,15)                1.4031         estimate D2E/DX2                !
 ! R29   R(16,17)                1.4432         estimate D2E/DX2                !
 ! R30   R(16,26)                1.4223         estimate D2E/DX2                !
 ! R31   R(17,18)                1.3507         estimate D2E/DX2                !
 ! R32   R(17,41)                1.101          estimate D2E/DX2                !
 ! R33   R(18,19)                1.4426         estimate D2E/DX2                !
 ! R34   R(18,42)                1.0961         estimate D2E/DX2                !
 ! R35   R(19,20)                1.3922         estimate D2E/DX2                !
 ! R36   R(19,23)                1.4173         estimate D2E/DX2                !
 ! R37   R(20,21)                1.3959         estimate D2E/DX2                !
 ! R38   R(20,43)                1.0958         estimate D2E/DX2                !
 ! R39   R(21,22)                1.3832         estimate D2E/DX2                !
 ! R40   R(21,44)                1.0952         estimate D2E/DX2                !
 ! R41   R(22,24)                1.4061         estimate D2E/DX2                !
 ! R42   R(22,45)                1.0959         estimate D2E/DX2                !
 ! R43   R(23,24)                1.4135         estimate D2E/DX2                !
 ! R44   R(23,26)                1.4296         estimate D2E/DX2                !
 ! R45   R(24,25)                1.4298         estimate D2E/DX2                !
 ! R46   R(25,28)                1.3688         estimate D2E/DX2                !
 ! R47   R(25,46)                1.097          estimate D2E/DX2                !
 ! R48   R(26,27)                1.4065         estimate D2E/DX2                !
 ! R49   R(27,28)                1.4393         estimate D2E/DX2                !
 ! R50   R(27,32)                1.413          estimate D2E/DX2                !
 ! R51   R(28,29)                1.4506         estimate D2E/DX2                !
 ! R52   R(29,30)                1.3464         estimate D2E/DX2                !
 ! R53   R(29,47)                1.0963         estimate D2E/DX2                !
 ! R54   R(30,31)                1.4499         estimate D2E/DX2                !
 ! R55   R(30,48)                1.0962         estimate D2E/DX2                !
 ! R56   R(31,32)                1.4339         estimate D2E/DX2                !
 ! A1    A(2,1,4)              120.2775         estimate D2E/DX2                !
 ! A2    A(2,1,33)             119.2726         estimate D2E/DX2                !
 ! A3    A(4,1,33)             120.4499         estimate D2E/DX2                !
 ! A4    A(1,2,3)              120.2257         estimate D2E/DX2                !
 ! A5    A(1,2,34)             119.2389         estimate D2E/DX2                !
 ! A6    A(3,2,34)             120.5355         estimate D2E/DX2                !
 ! A7    A(2,3,6)              120.4476         estimate D2E/DX2                !
 ! A8    A(2,3,35)             120.6651         estimate D2E/DX2                !
 ! A9    A(6,3,35)             118.8873         estimate D2E/DX2                !
 ! A10   A(1,4,5)              120.7538         estimate D2E/DX2                !
 ! A11   A(1,4,36)             121.0755         estimate D2E/DX2                !
 ! A12   A(5,4,36)             118.1707         estimate D2E/DX2                !
 ! A13   A(4,5,6)              118.872          estimate D2E/DX2                !
 ! A14   A(4,5,14)             121.6747         estimate D2E/DX2                !
 ! A15   A(6,5,14)             119.4533         estimate D2E/DX2                !
 ! A16   A(3,6,5)              119.4235         estimate D2E/DX2                !
 ! A17   A(3,6,7)              120.4704         estimate D2E/DX2                !
 ! A18   A(5,6,7)              120.106          estimate D2E/DX2                !
 ! A19   A(6,7,8)              120.6587         estimate D2E/DX2                !
 ! A20   A(6,7,37)             118.8748         estimate D2E/DX2                !
 ! A21   A(8,7,37)             120.4665         estimate D2E/DX2                !
 ! A22   A(7,8,9)              121.3128         estimate D2E/DX2                !
 ! A23   A(7,8,15)             120.1573         estimate D2E/DX2                !
 ! A24   A(9,8,15)             118.5299         estimate D2E/DX2                !
 ! A25   A(8,9,10)             121.2886         estimate D2E/DX2                !
 ! A26   A(8,9,38)             117.7397         estimate D2E/DX2                !
 ! A27   A(10,9,38)            120.9717         estimate D2E/DX2                !
 ! A28   A(9,10,11)            121.7245         estimate D2E/DX2                !
 ! A29   A(9,10,39)            121.2654         estimate D2E/DX2                !
 ! A30   A(11,10,39)           117.0101         estimate D2E/DX2                !
 ! A31   A(10,11,12)           118.3256         estimate D2E/DX2                !
 ! A32   A(10,11,16)           121.7299         estimate D2E/DX2                !
 ! A33   A(12,11,16)           119.9445         estimate D2E/DX2                !
 ! A34   A(11,12,15)           120.4912         estimate D2E/DX2                !
 ! A35   A(11,12,32)           120.1459         estimate D2E/DX2                !
 ! A36   A(15,12,32)           119.3629         estimate D2E/DX2                !
 ! A37   A(14,13,31)           121.142          estimate D2E/DX2                !
 ! A38   A(14,13,40)           117.9999         estimate D2E/DX2                !
 ! A39   A(31,13,40)           120.8581         estimate D2E/DX2                !
 ! A40   A(5,14,13)            121.0792         estimate D2E/DX2                !
 ! A41   A(5,14,15)            119.4531         estimate D2E/DX2                !
 ! A42   A(13,14,15)           119.4677         estimate D2E/DX2                !
 ! A43   A(8,15,12)            119.6402         estimate D2E/DX2                !
 ! A44   A(8,15,14)            120.1716         estimate D2E/DX2                !
 ! A45   A(12,15,14)           120.1883         estimate D2E/DX2                !
 ! A46   A(11,16,17)           122.0538         estimate D2E/DX2                !
 ! A47   A(11,16,26)           119.7609         estimate D2E/DX2                !
 ! A48   A(17,16,26)           118.1853         estimate D2E/DX2                !
 ! A49   A(16,17,18)           121.7553         estimate D2E/DX2                !
 ! A50   A(16,17,41)           117.0582         estimate D2E/DX2                !
 ! A51   A(18,17,41)           121.1865         estimate D2E/DX2                !
 ! A52   A(17,18,19)           121.0955         estimate D2E/DX2                !
 ! A53   A(17,18,42)           120.9934         estimate D2E/DX2                !
 ! A54   A(19,18,42)           117.9111         estimate D2E/DX2                !
 ! A55   A(18,19,20)           121.7135         estimate D2E/DX2                !
 ! A56   A(18,19,23)           118.6879         estimate D2E/DX2                !
 ! A57   A(20,19,23)           119.5986         estimate D2E/DX2                !
 ! A58   A(19,20,21)           120.2314         estimate D2E/DX2                !
 ! A59   A(19,20,43)           119.8775         estimate D2E/DX2                !
 ! A60   A(21,20,43)           119.8911         estimate D2E/DX2                !
 ! A61   A(20,21,22)           120.7788         estimate D2E/DX2                !
 ! A62   A(20,21,44)           119.3908         estimate D2E/DX2                !
 ! A63   A(22,21,44)           119.8304         estimate D2E/DX2                !
 ! A64   A(21,22,24)           120.3486         estimate D2E/DX2                !
 ! A65   A(21,22,45)           120.2702         estimate D2E/DX2                !
 ! A66   A(24,22,45)           119.3812         estimate D2E/DX2                !
 ! A67   A(19,23,24)           119.8284         estimate D2E/DX2                !
 ! A68   A(19,23,26)           120.1459         estimate D2E/DX2                !
 ! A69   A(24,23,26)           120.0257         estimate D2E/DX2                !
 ! A70   A(22,24,23)           119.2141         estimate D2E/DX2                !
 ! A71   A(22,24,25)           121.326          estimate D2E/DX2                !
 ! A72   A(23,24,25)           119.4599         estimate D2E/DX2                !
 ! A73   A(24,25,28)           120.8353         estimate D2E/DX2                !
 ! A74   A(24,25,46)           118.5154         estimate D2E/DX2                !
 ! A75   A(28,25,46)           120.6494         estimate D2E/DX2                !
 ! A76   A(16,26,23)           120.1301         estimate D2E/DX2                !
 ! A77   A(16,26,27)           120.4276         estimate D2E/DX2                !
 ! A78   A(23,26,27)           119.4422         estimate D2E/DX2                !
 ! A79   A(26,27,28)           119.9231         estimate D2E/DX2                !
 ! A80   A(26,27,32)           119.781          estimate D2E/DX2                !
 ! A81   A(28,27,32)           120.2959         estimate D2E/DX2                !
 ! A82   A(25,28,27)           120.3138         estimate D2E/DX2                !
 ! A83   A(25,28,29)           121.5819         estimate D2E/DX2                !
 ! A84   A(27,28,29)           118.1043         estimate D2E/DX2                !
 ! A85   A(28,29,30)           121.514          estimate D2E/DX2                !
 ! A86   A(28,29,47)           117.4932         estimate D2E/DX2                !
 ! A87   A(30,29,47)           120.9928         estimate D2E/DX2                !
 ! A88   A(29,30,31)           121.4726         estimate D2E/DX2                !
 ! A89   A(29,30,48)           121.0181         estimate D2E/DX2                !
 ! A90   A(31,30,48)           117.5093         estimate D2E/DX2                !
 ! A91   A(13,31,30)           121.6075         estimate D2E/DX2                !
 ! A92   A(13,31,32)           120.0389         estimate D2E/DX2                !
 ! A93   A(30,31,32)           118.3536         estimate D2E/DX2                !
 ! A94   A(12,32,27)           119.9401         estimate D2E/DX2                !
 ! A95   A(12,32,31)           119.8003         estimate D2E/DX2                !
 ! A96   A(27,32,31)           120.2596         estimate D2E/DX2                !
 ! D1    D(4,1,2,3)              0.0            estimate D2E/DX2                !
 ! D2    D(4,1,2,34)           180.0            estimate D2E/DX2                !
 ! D3    D(33,1,2,3)           180.0            estimate D2E/DX2                !
 ! D4    D(33,1,2,34)            0.0            estimate D2E/DX2                !
 ! D5    D(2,1,4,5)              0.0            estimate D2E/DX2                !
 ! D6    D(2,1,4,36)           180.0            estimate D2E/DX2                !
 ! D7    D(33,1,4,5)           180.0            estimate D2E/DX2                !
 ! D8    D(33,1,4,36)            0.0            estimate D2E/DX2                !
 ! D9    D(1,2,3,6)              0.0            estimate D2E/DX2                !
 ! D10   D(1,2,3,35)           180.0            estimate D2E/DX2                !
 ! D11   D(34,2,3,6)           180.0            estimate D2E/DX2                !
 ! D12   D(34,2,3,35)            0.0            estimate D2E/DX2                !
 ! D13   D(2,3,6,5)              0.0            estimate D2E/DX2                !
 ! D14   D(2,3,6,7)            180.0            estimate D2E/DX2                !
 ! D15   D(35,3,6,5)           180.0            estimate D2E/DX2                !
 ! D16   D(35,3,6,7)             0.0            estimate D2E/DX2                !
 ! D17   D(1,4,5,6)              0.0            estimate D2E/DX2                !
 ! D18   D(1,4,5,14)           180.0            estimate D2E/DX2                !
 ! D19   D(36,4,5,6)           180.0            estimate D2E/DX2                !
 ! D20   D(36,4,5,14)            0.0            estimate D2E/DX2                !
 ! D21   D(4,5,6,3)              0.0            estimate D2E/DX2                !
 ! D22   D(4,5,6,7)            180.0            estimate D2E/DX2                !
 ! D23   D(14,5,6,3)           180.0            estimate D2E/DX2                !
 ! D24   D(14,5,6,7)             0.0            estimate D2E/DX2                !
 ! D25   D(4,5,14,13)            0.0            estimate D2E/DX2                !
 ! D26   D(4,5,14,15)          180.0            estimate D2E/DX2                !
 ! D27   D(6,5,14,13)          180.0            estimate D2E/DX2                !
 ! D28   D(6,5,14,15)            0.0            estimate D2E/DX2                !
 ! D29   D(3,6,7,8)            180.0            estimate D2E/DX2                !
 ! D30   D(3,6,7,37)             0.0            estimate D2E/DX2                !
 ! D31   D(5,6,7,8)              0.0            estimate D2E/DX2                !
 ! D32   D(5,6,7,37)           180.0            estimate D2E/DX2                !
 ! D33   D(6,7,8,9)            180.0            estimate D2E/DX2                !
 ! D34   D(6,7,8,15)             0.0            estimate D2E/DX2                !
 ! D35   D(37,7,8,9)             0.0            estimate D2E/DX2                !
 ! D36   D(37,7,8,15)          180.0            estimate D2E/DX2                !
 ! D37   D(7,8,9,10)           180.0            estimate D2E/DX2                !
 ! D38   D(7,8,9,38)             0.0            estimate D2E/DX2                !
 ! D39   D(15,8,9,10)            0.0            estimate D2E/DX2                !
 ! D40   D(15,8,9,38)          180.0            estimate D2E/DX2                !
 ! D41   D(7,8,15,12)          180.0            estimate D2E/DX2                !
 ! D42   D(7,8,15,14)            0.0            estimate D2E/DX2                !
 ! D43   D(9,8,15,12)            0.0            estimate D2E/DX2                !
 ! D44   D(9,8,15,14)          180.0            estimate D2E/DX2                !
 ! D45   D(8,9,10,11)            0.0            estimate D2E/DX2                !
 ! D46   D(8,9,10,39)          180.0            estimate D2E/DX2                !
 ! D47   D(38,9,10,11)         180.0            estimate D2E/DX2                !
 ! D48   D(38,9,10,39)           0.0            estimate D2E/DX2                !
 ! D49   D(9,10,11,12)           0.0            estimate D2E/DX2                !
 ! D50   D(9,10,11,16)         180.0            estimate D2E/DX2                !
 ! D51   D(39,10,11,12)        180.0            estimate D2E/DX2                !
 ! D52   D(39,10,11,16)          0.0            estimate D2E/DX2                !
 ! D53   D(10,11,12,15)          0.0            estimate D2E/DX2                !
 ! D54   D(10,11,12,32)        180.0            estimate D2E/DX2                !
 ! D55   D(16,11,12,15)        180.0            estimate D2E/DX2                !
 ! D56   D(16,11,12,32)          0.0            estimate D2E/DX2                !
 ! D57   D(10,11,16,17)          0.0            estimate D2E/DX2                !
 ! D58   D(10,11,16,26)        180.0            estimate D2E/DX2                !
 ! D59   D(12,11,16,17)        180.0            estimate D2E/DX2                !
 ! D60   D(12,11,16,26)          0.0            estimate D2E/DX2                !
 ! D61   D(11,12,15,8)           0.0            estimate D2E/DX2                !
 ! D62   D(11,12,15,14)        180.0            estimate D2E/DX2                !
 ! D63   D(32,12,15,8)         180.0            estimate D2E/DX2                !
 ! D64   D(32,12,15,14)          0.0            estimate D2E/DX2                !
 ! D65   D(11,12,32,27)          0.0            estimate D2E/DX2                !
 ! D66   D(11,12,32,31)        180.0            estimate D2E/DX2                !
 ! D67   D(15,12,32,27)        180.0            estimate D2E/DX2                !
 ! D68   D(15,12,32,31)          0.0            estimate D2E/DX2                !
 ! D69   D(31,13,14,5)         180.0            estimate D2E/DX2                !
 ! D70   D(31,13,14,15)          0.0            estimate D2E/DX2                !
 ! D71   D(40,13,14,5)           0.0            estimate D2E/DX2                !
 ! D72   D(40,13,14,15)        180.0            estimate D2E/DX2                !
 ! D73   D(14,13,31,30)        180.0            estimate D2E/DX2                !
 ! D74   D(14,13,31,32)          0.0            estimate D2E/DX2                !
 ! D75   D(40,13,31,30)          0.0            estimate D2E/DX2                !
 ! D76   D(40,13,31,32)        180.0            estimate D2E/DX2                !
 ! D77   D(5,14,15,8)            0.0            estimate D2E/DX2                !
 ! D78   D(5,14,15,12)         180.0            estimate D2E/DX2                !
 ! D79   D(13,14,15,8)         180.0            estimate D2E/DX2                !
 ! D80   D(13,14,15,12)          0.0            estimate D2E/DX2                !
 ! D81   D(11,16,17,18)        180.0            estimate D2E/DX2                !
 ! D82   D(11,16,17,41)          0.0            estimate D2E/DX2                !
 ! D83   D(26,16,17,18)          0.0            estimate D2E/DX2                !
 ! D84   D(26,16,17,41)        180.0            estimate D2E/DX2                !
 ! D85   D(11,16,26,23)        180.0            estimate D2E/DX2                !
 ! D86   D(11,16,26,27)          0.0            estimate D2E/DX2                !
 ! D87   D(17,16,26,23)          0.0            estimate D2E/DX2                !
 ! D88   D(17,16,26,27)        180.0            estimate D2E/DX2                !
 ! D89   D(16,17,18,19)          0.0            estimate D2E/DX2                !
 ! D90   D(16,17,18,42)        180.0            estimate D2E/DX2                !
 ! D91   D(41,17,18,19)        180.0            estimate D2E/DX2                !
 ! D92   D(41,17,18,42)          0.0            estimate D2E/DX2                !
 ! D93   D(17,18,19,20)        180.0            estimate D2E/DX2                !
 ! D94   D(17,18,19,23)          0.0            estimate D2E/DX2                !
 ! D95   D(42,18,19,20)          0.0            estimate D2E/DX2                !
 ! D96   D(42,18,19,23)        180.0            estimate D2E/DX2                !
 ! D97   D(18,19,20,21)        180.0            estimate D2E/DX2                !
 ! D98   D(18,19,20,43)          0.0            estimate D2E/DX2                !
 ! D99   D(23,19,20,21)          0.0            estimate D2E/DX2                !
 ! D100  D(23,19,20,43)        180.0            estimate D2E/DX2                !
 ! D101  D(18,19,23,24)        180.0            estimate D2E/DX2                !
 ! D102  D(18,19,23,26)          0.0            estimate D2E/DX2                !
 ! D103  D(20,19,23,24)          0.0            estimate D2E/DX2                !
 ! D104  D(20,19,23,26)        180.0            estimate D2E/DX2                !
 ! D105  D(19,20,21,22)          0.0            estimate D2E/DX2                !
 ! D106  D(19,20,21,44)        180.0            estimate D2E/DX2                !
 ! D107  D(43,20,21,22)        180.0            estimate D2E/DX2                !
 ! D108  D(43,20,21,44)          0.0            estimate D2E/DX2                !
 ! D109  D(20,21,22,24)          0.0            estimate D2E/DX2                !
 ! D110  D(20,21,22,45)        180.0            estimate D2E/DX2                !
 ! D111  D(44,21,22,24)        180.0            estimate D2E/DX2                !
 ! D112  D(44,21,22,45)          0.0            estimate D2E/DX2                !
 ! D113  D(21,22,24,23)          0.0            estimate D2E/DX2                !
 ! D114  D(21,22,24,25)        180.0            estimate D2E/DX2                !
 ! D115  D(45,22,24,23)        180.0            estimate D2E/DX2                !
 ! D116  D(45,22,24,25)          0.0            estimate D2E/DX2                !
 ! D117  D(19,23,24,22)          0.0            estimate D2E/DX2                !
 ! D118  D(19,23,24,25)        180.0            estimate D2E/DX2                !
 ! D119  D(26,23,24,22)        180.0            estimate D2E/DX2                !
 ! D120  D(26,23,24,25)          0.0            estimate D2E/DX2                !
 ! D121  D(19,23,26,16)          0.0            estimate D2E/DX2                !
 ! D122  D(19,23,26,27)        180.0            estimate D2E/DX2                !
 ! D123  D(24,23,26,16)        180.0            estimate D2E/DX2                !
 ! D124  D(24,23,26,27)          0.0            estimate D2E/DX2                !
 ! D125  D(22,24,25,28)        180.0            estimate D2E/DX2                !
 ! D126  D(22,24,25,46)          0.0            estimate D2E/DX2                !
 ! D127  D(23,24,25,28)          0.0            estimate D2E/DX2                !
 ! D128  D(23,24,25,46)        180.0            estimate D2E/DX2                !
 ! D129  D(24,25,28,27)          0.0            estimate D2E/DX2                !
 ! D130  D(24,25,28,29)        180.0            estimate D2E/DX2                !
 ! D131  D(46,25,28,27)        180.0            estimate D2E/DX2                !
 ! D132  D(46,25,28,29)          0.0            estimate D2E/DX2                !
 ! D133  D(16,26,27,28)        180.0            estimate D2E/DX2                !
 ! D134  D(16,26,27,32)          0.0            estimate D2E/DX2                !
 ! D135  D(23,26,27,28)          0.0            estimate D2E/DX2                !
 ! D136  D(23,26,27,32)        180.0            estimate D2E/DX2                !
 ! D137  D(26,27,28,25)          0.0            estimate D2E/DX2                !
 ! D138  D(26,27,28,29)        180.0            estimate D2E/DX2                !
 ! D139  D(32,27,28,25)        180.0            estimate D2E/DX2                !
 ! D140  D(32,27,28,29)          0.0            estimate D2E/DX2                !
 ! D141  D(26,27,32,12)          0.0            estimate D2E/DX2                !
 ! D142  D(26,27,32,31)        180.0            estimate D2E/DX2                !
 ! D143  D(28,27,32,12)        180.0            estimate D2E/DX2                !
 ! D144  D(28,27,32,31)          0.0            estimate D2E/DX2                !
 ! D145  D(25,28,29,30)        180.0            estimate D2E/DX2                !
 ! D146  D(25,28,29,47)          0.0            estimate D2E/DX2                !
 ! D147  D(27,28,29,30)          0.0            estimate D2E/DX2                !
 ! D148  D(27,28,29,47)        180.0            estimate D2E/DX2                !
 ! D149  D(28,29,30,31)          0.0            estimate D2E/DX2                !
 ! D150  D(28,29,30,48)        180.0            estimate D2E/DX2                !
 ! D151  D(47,29,30,31)        180.0            estimate D2E/DX2                !
 ! D152  D(47,29,30,48)          0.0            estimate D2E/DX2                !
 ! D153  D(29,30,31,13)        180.0            estimate D2E/DX2                !
 ! D154  D(29,30,31,32)          0.0            estimate D2E/DX2                !
 ! D155  D(48,30,31,13)          0.0            estimate D2E/DX2                !
 ! D156  D(48,30,31,32)        180.0            estimate D2E/DX2                !
 ! D157  D(13,31,32,12)          0.0            estimate D2E/DX2                !
 ! D158  D(13,31,32,27)        180.0            estimate D2E/DX2                !
 ! D159  D(30,31,32,12)        180.0            estimate D2E/DX2                !
 ! D160  D(30,31,32,27)          0.0            estimate D2E/DX2                !
 --------------------------------------------------------------------------------
 Trust Radius=3.00D-01 FncErr=1.00D-07 GrdErr=1.00D-06
 Number of steps in this run=    288 maximum allowed number of steps=    288.
 GradGradGradGradGradGradGradGradGradGradGradGradGradGradGradGradGradGrad

 Leave Link  103 at Sat Jul 27 16:36:05 2019, MaxMem=  4194304000 cpu:         0.2
 (Enter /home/minenky/programs//g09/l202.exe)
                          Input orientation:                          
 ---------------------------------------------------------------------
 Center     Atomic      Atomic             Coordinates (Angstroms)
 Number     Number       Type             X           Y           Z
 ---------------------------------------------------------------------
      1          6           0        6.352442   -1.475410    0.000000
      2          6           0        6.938997   -0.191685    0.000000
      3          6           0        6.148848    0.927679    0.000000
      4          6           0        4.988873   -1.612018    0.000000
      5          6           0        4.145785   -0.471602    0.000000
      6          6           0        4.733801    0.809591    0.000000
      7          6           0        3.913815    1.970240    0.000000
      8          6           0        2.544052    1.860464    0.000000
      9          6           0        1.695950    3.032292    0.000000
     10          6           0        0.352372    2.924042    0.000000
     11          6           0       -0.306375    1.637748    0.000000
     12          6           0        0.500164    0.466688    0.000000
     13          6           0        2.085141   -1.867740    0.000000
     14          6           0        2.715203   -0.591734    0.000000
     15          6           0        1.925486    0.567980    0.000000
     16          6           0       -1.701322    1.525226    0.000000
     17          6           0       -2.563147    2.682907    0.000000
     18          6           0       -3.908866    2.567297    0.000000
     19          6           0       -4.545432    1.272786    0.000000
     20          6           0       -5.931163    1.138668    0.000000
     21          6           0       -6.514557   -0.129531    0.000000
     22          6           0       -5.730746   -1.269220    0.000000
     23          6           0       -3.729955    0.113633    0.000000
     24          6           0       -4.328337   -1.166988    0.000000
     25          6           0       -3.498137   -2.331087    0.000000
     26          6           0       -2.305766    0.237756    0.000000
     27          6           0       -1.510687   -0.922420    0.000000
     28          6           0       -2.133821   -2.219876    0.000000
     29          6           0       -1.276216   -3.389847    0.000000
     30          6           0        0.065586   -3.278871    0.000000
     31          6           0        0.718078   -1.984047    0.000000
     32          6           0       -0.102353   -0.808065    0.000000
     33          1           0        6.998630   -2.359253    0.000000
     34          1           0        8.030230   -0.102306    0.000000
     35          1           0        6.596677    1.928018    0.000000
     36          1           0        4.517504   -2.606757    0.000000
     37          1           0        4.392774    2.957301    0.000000
     38          1           0        2.182772    4.014478    0.000000
     39          1           0       -0.292823    3.816272    0.000000
     40          1           0        2.728521   -2.762405    0.000000
     41          1           0       -2.075715    3.670178    0.000000
     42          1           0       -4.551627    3.455120    0.000000
     43          1           0       -6.566054    2.031860    0.000000
     44          1           0       -7.606130   -0.219035    0.000000
     45          1           0       -6.197571   -2.260741    0.000000
     46          1           0       -3.978850   -3.317160    0.000000
     47          1           0       -1.761344   -4.372949    0.000000
     48          1           0        0.705995   -4.168583    0.000000
 ---------------------------------------------------------------------
                    Distance matrix (angstroms):
                    1          2          3          4          5
     1  C    0.000000
     2  C    1.411381   0.000000
     3  C    2.411697   1.370150   0.000000
     4  C    1.370396   2.412536   2.792060   0.000000
     5  C    2.424245   2.807202   2.443409   1.418218   0.000000
     6  C    2.800220   2.421868   1.419966   2.435005   1.409688
     7  C    4.221304   3.718285   2.466233   3.740096   2.452836
     8  C    5.062794   4.850448   3.723525   4.246796   2.829148
     9  C    6.480918   6.154963   4.925211   5.693238   4.275391
    10  C    7.440162   7.286383   6.130628   6.486368   5.091207
    11  C    7.350619   7.472766   6.494159   6.212940   4.926570
    12  C    6.166109   6.472404   5.667463   4.946668   3.764431
    13  C    4.285298   5.135083   4.932350   2.914970   2.489067
    14  C    3.743046   4.242697   3.754802   2.492098   1.435618
    15  C    4.875796   5.070738   4.238652   3.759885   2.451625
    16  C    8.594588   8.809250   7.872880   7.389249   6.178672
    17  C    9.837648   9.927437   8.887051   8.687886   7.413548
    18  C   11.028959  11.193217  10.190484   9.830383   8.608851
    19  C   11.239050  11.577425  10.699846   9.961177   8.864544
    20  C   12.558677  12.938735  12.081854  11.261148  10.204796
    21  C   12.937197  13.453697  12.707459  11.598563  10.665829
    22  C   12.084947  12.715481  12.081023  10.725098   9.908686
    23  C   10.206850  10.673320   9.912286   8.887960   7.897455
    24  C   10.685232  11.309467  10.684524   9.327832   8.502607
    25  C    9.887674  10.654145  10.182528   8.517417   7.866844
    26  C    8.826070   9.254731   8.482717   7.525517   6.490432
    27  C    7.882550   8.481222   7.879806   6.536040   5.674409
    28  C    8.518855   9.296751   8.860571   7.148584   6.518429
    29  C    7.865208   8.815779   8.589098   6.512450   6.157455
    30  C    6.540416   7.534886   7.396022   5.197803   4.952655
    31  C    5.657276   6.473978   6.162095   4.286968   3.746554
    32  C    6.489201   7.068276   6.487705   5.154310   4.261442
    33  H    1.094869   2.168388   3.395004   2.144175   3.420811
    34  H    2.168037   1.094888   2.144870   3.395451   3.901960
    35  H    3.412180   2.147166   1.096006   3.888044   3.430022
    36  H    2.155677   3.419970   3.892752   1.100770   2.167270
    37  H    4.846568   4.049612   2.683870   4.608037   3.437787
    38  H    6.893840   6.349290   5.025743   6.287421   4.896769
    39  H    8.494789   8.268188   7.059681   7.573813   6.171476
    40  H    3.845668   4.933225   5.031436   2.536253   2.693773
    41  H    9.874761   9.807090   8.669760   8.820997   7.474049
    42  H   11.966990  12.055440  10.994914  10.802639   9.542753
    43  H   13.386131  13.686875  12.762757  12.115865  11.000492
    44  H   14.014999  14.545152  13.802694  12.671799  11.754629
    45  H   12.574561  13.298512  12.751474  11.205238  10.496954
    46  H   10.494172  11.356406  10.981299   9.128393   8.608536
    47  H    8.615640   9.652921   9.521963   7.293021   7.079172
    48  H    6.255841   7.393648   7.456308   4.987892   5.049735
                    6          7          8          9         10
     6  C    0.000000
     7  C    1.421085   0.000000
     8  C    2.428854   1.374154   0.000000
     9  C    3.764165   2.459041   1.446534   0.000000
    10  C    4.864958   3.686952   2.436116   1.347931   0.000000
    11  C    5.107760   4.233268   2.859115   2.440094   1.445164
    12  C    4.247501   3.730104   2.473881   2.830588   2.461794
    13  C    3.766099   4.251369   3.756342   4.915464   5.095456
    14  C    2.457326   2.828495   2.458164   3.764631   4.235995
    15  C    2.818690   2.433061   1.432877   2.474979   2.832969
    16  C    6.474793   5.632744   4.258590   3.716544   2.484823
    17  C    7.533575   6.516052   5.172997   4.273403   2.925474
    18  C    8.819593   7.845433   6.491515   5.624071   4.276145
    19  C    9.290786   8.487950   7.113800   6.484651   5.168668
    20  C   10.670040   9.880036   8.505896   7.858668   6.532257
    21  C   11.287493  10.637668   9.274615   8.798269   7.515252
    22  C   10.669030  10.174068   8.846875   8.582471   7.388353
    23  C    8.492321   7.866016   6.512648   6.161088   4.956187
    24  C    9.275194   8.819029   7.509674   7.343432   6.216556
    25  C    8.810713   8.569624   7.353717   7.466215   6.514814
    26  C    7.062754   6.456368   5.114090   4.880897   3.779130
    27  C    6.480238   6.147577   4.917861   5.091391   4.273904
    28  C    7.506125   7.357376   6.207389   6.500186   5.713235
    29  C    7.331820   7.461029   6.493090   7.076556   6.520544
    30  C    6.205462   6.508613   5.705748   6.518349   6.209539
    31  C    4.891876   5.084204   4.256107   5.110763   4.921695
    32  C    5.099529   4.883501   3.758258   4.240546   3.759707
    33  H    3.895000   5.316069   6.135900   7.562221   8.490345
    34  H    3.420234   4.608722   5.826715   7.067447   8.252774
    35  H    2.172829   2.683195   4.053188   5.023600   6.323244
    36  H    3.423188   4.616637   4.883704   6.305556   6.923731
    37  H    2.174616   1.097128   2.149610   2.697867   4.040539
    38  H    4.096224   2.678698   2.184102   1.096214   2.130590
    39  H    5.857224   4.593870   3.445729   2.137719   1.101068
    40  H    4.096377   4.878816   4.626548   5.885976   6.162934
    41  H    7.385964   6.226095   4.961584   3.825225   2.540143
    42  H    9.654947   8.594683   7.272661   6.261869   4.932672
    43  H   11.365767  10.480050   9.111719   8.322354   6.975716
    44  H   12.382728  11.726127  10.361009   9.853923   8.556675
    45  H   11.354375  10.960900   9.664384   9.503887   8.353665
    46  H    9.640558   9.500040   8.328027   8.515803   7.596847
    47  H    8.309370   8.511373   7.575742   8.172544   7.596965
    48  H    6.403549   6.926418   6.303004   7.268605   7.101435
                   11         12         13         14         15
    11  C    0.000000
    12  C    1.421930   0.000000
    13  C    4.243560   2.821650   0.000000
    14  C    3.755066   2.454924   1.423084   0.000000
    15  C    2.474996   1.428916   2.440948   1.403065   0.000000
    16  C    1.399478   2.442754   5.084243   4.897674   3.751007
    17  C    2.487042   3.780939   6.504996   6.211622   4.961928
    18  C    3.720485   4.883862   7.456386   7.338785   6.167408
    19  C    4.254738   5.109582   7.336716   7.496216   6.509187
    20  C    5.646886   6.466338   8.561520   8.817819   7.877348
    21  C    6.454827   7.040013   8.773607   9.241325   8.468816
    22  C    6.154207   6.468200   7.838770   8.473077   7.873575
    23  C    3.747509   4.244827   6.143386   6.483641   5.673662
    24  C    4.903338   5.097384   6.451648   7.066992   6.490025
    25  C    5.093034   4.879955   5.602472   6.452204   6.149819
    26  C    2.440807   2.815254   4.869618   5.089025   4.244118
    27  C    2.829280   2.444002   3.718012   4.238808   3.745474
    28  C    4.268586   3.762381   4.233633   5.115064   4.924441
    29  C    5.120283   4.245985   3.689923   4.874511   5.090706
    30  C    4.930669   3.770686   2.463716   3.773748   4.272879
    31  C    3.763895   2.460405   1.372002   2.434552   2.823239
    32  C    2.454307   1.409972   2.430647   2.825848   2.450638
    33  H    8.327011   7.086325   4.938011   4.633775   5.857089
    34  H    8.516265   7.551533   6.201680   5.337514   6.141432
    35  H    6.909153   6.269207   5.895909   4.627634   4.865155
    36  H    6.425389   5.058170   2.542151   2.703443   4.098477
    37  H    4.880904   4.621208   5.348476   3.925544   3.434584
    38  H    3.441613   3.926574   5.883029   4.636883   3.456088
    39  H    2.178566   3.442171   6.161389   5.336548   3.933483
    40  H    5.345272   3.923342   1.101981   2.170711   3.425833
    41  H    2.694687   4.110657   6.926851   6.412237   5.062927
    42  H    4.617901   5.869525   8.507616   8.317683   7.091443
    43  H    6.272074   7.237486   9.489471   9.644946   8.616797
    44  H    7.532202   8.135245   9.830512  10.328059   9.564051
    45  H    7.064305   7.231772   8.292031   9.067697   8.601495
    46  H    6.167511   5.863367   6.234806   7.227606   7.067920
    47  H    6.184287   5.341957   4.590372   5.859783   6.164860
    48  H    5.893927   4.639839   2.682521   4.102531   4.891032
                   16         17         18         19         20
    16  C    0.000000
    17  C    1.443248   0.000000
    18  C    2.441140   1.350676   0.000000
    19  C    2.855291   2.432672   1.442558   0.000000
    20  C    4.247468   3.705160   2.476019   1.392207   0.000000
    21  C    5.089740   4.850098   3.750001   2.417426   1.395950
    22  C    4.903589   5.064878   4.247129   2.804775   2.416214
    23  C    2.471426   2.821809   2.460178   1.417264   2.428171
    24  C    3.761546   4.235279   3.757771   2.449414   2.808042
    25  C    4.254373   5.100425   4.915573   3.752962   4.237784
    26  C    1.422298   2.458659   2.827842   2.467264   3.735659
    27  C    2.455059   3.755803   4.234311   3.745478   4.877366
    28  C    3.769993   4.921545   5.105665   4.244356   5.069480
    29  C    4.933423   6.207619   6.512942   5.694552   6.494304
    30  C    5.118722   6.515599   7.069226   6.479126   7.448198
    31  C    4.262452   5.704989   6.490250   6.189628   7.346003
    32  C    2.828595   4.271111   5.087496   4.906209   6.145307
    33  H    9.527767  10.809762  11.968474  12.101945  13.394589
    34  H    9.866710  10.953403  12.233920  12.650618  14.016437
    35  H    8.307770   9.190878  10.524976  11.161358  12.552684
    36  H    7.466397   8.838334   9.888101   9.858380  11.099678
    37  H    6.260100   6.961331   8.310796   9.095555  10.482896
    38  H    4.613303   4.929181   6.261181   7.265370   8.608497
    39  H    2.689379   2.537496   3.825664   4.955199   6.241830
    40  H    6.165005   7.592968   8.512381   8.318242   9.497816
    41  H    2.177381   1.101042   2.139343   3.441945   4.612269
    42  H    3.442198   2.133159   1.096071   2.182342   2.696121
    43  H    4.891042   4.055506   2.710598   2.158497   1.095846
    44  H    6.157045   5.818328   4.629623   3.404909   2.156124
    45  H    5.877908   6.135853   5.343044   3.900690   3.409831
    46  H    5.351247   6.164821   5.884874   4.624784   4.864764
    47  H    5.898481   7.101267   7.264907   6.294877   6.911245
    48  H    6.181799   7.591456   8.165111   7.562142   8.498164
                   21         22         23         24         25
    21  C    0.000000
    22  C    1.383203   0.000000
    23  C    2.795199   2.432169   0.000000
    24  C    2.419891   1.406130   1.413525   0.000000
    25  C    3.734385   2.472267   2.455686   1.429810   0.000000
    26  C    4.224787   3.741853   1.429588   2.462540   2.832085
    27  C    5.066299   4.234285   2.449195   2.828245   2.436042
    28  C    4.853904   3.720432   2.827174   2.434024   1.368841
    29  C    6.170079   4.933548   4.277290   3.775785   2.461282
    30  C    7.294972   6.134832   5.090699   4.875101   3.687603
    31  C    7.466608   6.488321   4.917851   5.112132   4.230473
    32  C    6.448005   5.647253   3.742863   4.241199   3.721686
    33  H   13.695907  12.775961  11.009891  11.389543  10.496805
    34  H   14.544812  13.810364  11.762167  12.404343  11.741836
    35  H   13.271698  12.735293  10.484814  11.354955  10.956517
    36  H   11.306769  10.335165   8.684532   8.962246   8.020380
    37  H   11.335714  10.970375   8.606113   9.647153   9.499133
    38  H    9.634124   9.515315   7.083567   8.321186   8.516978
    39  H    7.367451   7.445349   5.052070   6.412352   6.932824
    40  H    9.610750   8.590041   7.069902   7.234957   6.241579
    41  H    5.843039   6.144664   3.922438   5.335962   6.167533
    42  H    4.086908   4.869261   3.441028   4.627498   5.881328
    43  H    2.162004   3.405123   3.423894   3.903845   5.333612
    44  H    1.095236   2.149407   3.890424   3.412116   4.619130
    45  H    2.154654   1.095920   3.424439   2.165717   2.700350
    46  H    4.073180   2.695033   3.439810   2.178390   1.097008
    47  H    6.371784   5.038779   4.899475   4.107023   2.680607
    48  H    8.273471   7.059600   6.165633   5.861235   4.588150
                   26         27         28         29         30
    26  C    0.000000
    27  C    1.406471   0.000000
    28  C    2.463640   1.439336   0.000000
    29  C    3.770873   2.478543   1.450627   0.000000
    30  C    4.241459   2.835048   2.441078   1.346383   0.000000
    31  C    3.752338   2.468693   2.861633   2.439975   1.449936
    32  C    2.439010   1.412969   2.473879   2.836116   2.476507
    33  H    9.660033   8.629772   9.133515   8.338777   6.993769
    34  H   10.341588   9.576100  10.382295   9.870049   8.574738
    35  H    9.061483   8.593855   9.665745   9.500639   8.352656
    36  H    7.392446   6.259080   6.662567   5.846402   4.502368
    37  H    7.229548   7.064212   8.330643   8.510214   7.590415
    38  H    5.866055   6.165598   7.582886   8.172431   7.594434
    39  H    4.105814   4.892688   6.310655   7.272910   7.104190
    40  H    5.860462   4.621302   4.892516   4.053591   2.712557
    41  H    3.440122   4.627225   5.890341   7.105150   7.271482
    42  H    3.923687   5.330119   6.168579   7.588273   8.164882
    43  H    4.622647   5.855298   6.141820   7.574781   8.496029
    44  H    5.320011   6.135892   5.826622   7.079679   8.259407
    45  H    4.624785   4.874217   4.063956   5.049220   6.345370
    46  H    3.928949   3.438984   2.146663   2.703611   4.044617
    47  H    4.642736   3.459621   2.185054   1.096284   2.129478
    48  H    5.337278   3.930808   3.444128   2.129692   1.096226
                   31         32         33         34         35
    31  C    0.000000
    32  C    1.433890   0.000000
    33  H    6.291750   7.268435   0.000000
    34  H    7.550399   8.163149   2.481533   0.000000
    35  H    7.061316   7.236239   4.306072   2.485415   0.000000
    36  H    3.850118   4.957658   2.493440   4.314107   4.988701
    37  H    6.157948   5.863800   5.920830   4.753133   2.432409
    38  H    6.174758   5.336545   7.988551   7.151271   4.882201
    39  H    5.887752   4.628258   9.555229   9.199373   7.143579
    40  H    2.155858   3.439955   4.289098   5.931631   6.079696
    41  H    6.306785   4.893753  10.894851  10.787110   8.845649
    42  H    7.573264   6.162044  12.931178  13.075106  11.252410
    43  H    8.317818   7.060071  14.257718  14.751481  13.163141
    44  H    8.509271   7.526860  14.760743  15.636795  14.364176
    45  H    6.921182   6.265936  13.196569  14.390593  13.462485
    46  H    4.882450   4.617661  11.019195  12.431946  11.804815
    47  H    3.443019   3.932004   8.988443  10.682383  10.467029
    48  H    2.184569   3.456373   6.547590   8.377292   8.477540
                   36         37         38         39         40
    36  H    0.000000
    37  H    5.565455   0.000000
    38  H    7.020807   2.449844   0.000000
    39  H    8.024621   4.763681   2.483517   0.000000
    40  H    1.795741   5.956910   6.798823   7.239303   0.000000
    41  H    9.103320   6.507653   4.272382   1.788867   8.028624
    42  H   10.908505   8.958244   6.757589   4.274090   9.573827
    43  H   12.015075  10.997835   8.970660   6.522082  10.458208
    44  H   12.356525  12.412204  10.665141   8.352733  10.643013
    45  H   10.720661  11.806074  10.469409   8.473260   8.940179
    46  H    8.526002  10.461977   9.576978   8.029486   6.730273
    47  H    6.522528   9.571088   9.268494   8.319849   4.769983
    48  H    4.119090   8.023127   8.315249   8.047083   2.463321
                   41         42         43         44         45
    41  H    0.000000
    42  H    2.485235   0.000000
    43  H    4.779878   2.466493   0.000000
    44  H    6.761026   4.778012   2.479573   0.000000
    45  H    7.222569   5.948125   4.308387   2.480443   0.000000
    46  H    7.241880   6.796459   5.941855   4.770277   2.457386
    47  H    8.049268   8.310496   8.006673   7.170532   4.913404
    48  H    8.317697   9.260855   9.556579   9.202736   7.162339
                   46         47         48
    46  H    0.000000
    47  H    2.456018   0.000000
    48  H    4.761585   2.475788   0.000000
 Stoichiometry    C32H16
 Framework group  CS[SG(C32H16)]
 Deg. of freedom    93
 Full point group                 CS      NOp   2
 Largest Abelian subgroup         CS      NOp   2
 Largest concise Abelian subgroup C1      NOp   1
                         Standard orientation:                         
 ---------------------------------------------------------------------
 Center     Atomic      Atomic             Coordinates (Angstroms)
 Number     Number       Type             X           Y           Z
 ---------------------------------------------------------------------
      1          6           0        5.436644    3.588398    0.000000
      2          6           0        4.908974    4.897428    0.000000
      3          6           0        3.553077    5.094539    0.000000
      4          6           0        4.597320    2.505107    0.000000
      5          6           0        3.189716    2.678299    0.000000
      6          6           0        2.664889    3.986647    0.000000
      7          6           0        1.258504    4.190524    0.000000
      8          6           0        0.395452    3.121206    0.000000
      9          6           0       -1.038394    3.312379    0.000000
     10          6           0       -1.884532    2.263108    0.000000
     11          6           0       -1.404683    0.899934    0.000000
     12          6           0        0.000000    0.679136    0.000000
     13          6           0        2.784447    0.222446    0.000000
     14          6           0        2.292319    1.557729    0.000000
     15          6           0        0.907444    1.782923    0.000000
     16          6           0       -2.283077   -0.189545    0.000000
     17          6           0       -3.716101   -0.018065    0.000000
     18          6           0       -4.558375   -1.073954    0.000000
     19          6           0       -4.057299   -2.426690    0.000000
     20          6           0       -4.913681   -3.524347    0.000000
     21          6           0       -4.395100   -4.820398    0.000000
     22          6           0       -3.028819   -5.036095    0.000000
     23          6           0       -2.655103   -2.632809    0.000000
     24          6           0       -2.137825   -3.948285    0.000000
     25          6           0       -0.721909   -4.147126    0.000000
     26          6           0       -1.765001   -1.514131    0.000000
     27          6           0       -0.376101   -1.735753    0.000000
     28          6           0        0.136355   -3.080773    0.000000
     29          6           0        1.575393   -3.263772    0.000000
     30          6           0        2.418332   -2.213915    0.000000
     31          6           0        1.927990   -0.849408    0.000000
     32          6           0        0.510175   -0.635300    0.000000
     33          1           0        6.522594    3.448933    0.000000
     34          1           0        5.595136    5.750634    0.000000
     35          1           0        3.135532    6.107893    0.000000
     36          1           0        4.994602    1.478530    0.000000
     37          1           0        0.872017    5.217324    0.000000
     38          1           0       -1.415934    4.341528    0.000000
     39          1           0       -2.975884    2.409066    0.000000
     40          1           0        3.876315    0.073496    0.000000
     41          1           0       -4.096911    1.015027    0.000000
     42          1           0       -5.644853   -0.929264    0.000000
     43          1           0       -5.998639   -3.370251    0.000000
     44          1           0       -5.081405   -5.673937    0.000000
     45          1           0       -2.630745   -6.057162    0.000000
     46          1           0       -0.337343   -5.174519    0.000000
     47          1           0        1.954763   -4.292323    0.000000
     48          1           0        3.504563   -2.361611    0.000000
 ---------------------------------------------------------------------
 Rotational constants (GHZ):      0.3792742      0.0878475      0.0713268
 Leave Link  202 at Sat Jul 27 16:36:05 2019, MaxMem=  4194304000 cpu:         2.5
 (Enter /home/minenky/programs//g09/l301.exe)
 Standard basis: def2TZVP (5D, 7F)
 ======================================================================================================
                                       Pseudopotential Parameters
 ======================================================================================================
  Center     Atomic      Valence      Angular      Power
  Number     Number     Electrons     Momentum     of R      Exponent        Coefficient   SO-Coeffient
 ======================================================================================================
    1          6
                                   No pseudopotential on this center.
    2          6
                                   No pseudopotential on this center.
    3          6
                                   No pseudopotential on this center.
    4          6
                                   No pseudopotential on this center.
    5          6
                                   No pseudopotential on this center.
    6          6
                                   No pseudopotential on this center.
    7          6
                                   No pseudopotential on this center.
    8          6
                                   No pseudopotential on this center.
    9          6
                                   No pseudopotential on this center.
   10          6
                                   No pseudopotential on this center.
   11          6
                                   No pseudopotential on this center.
   12          6
                                   No pseudopotential on this center.
   13          6
                                   No pseudopotential on this center.
   14          6
                                   No pseudopotential on this center.
   15          6
                                   No pseudopotential on this center.
   16          6
                                   No pseudopotential on this center.
   17          6
                                   No pseudopotential on this center.
   18          6
                                   No pseudopotential on this center.
   19          6
                                   No pseudopotential on this center.
   20          6
                                   No pseudopotential on this center.
   21          6
                                   No pseudopotential on this center.
   22          6
                                   No pseudopotential on this center.
   23          6
                                   No pseudopotential on this center.
   24          6
                                   No pseudopotential on this center.
   25          6
                                   No pseudopotential on this center.
   26          6
                                   No pseudopotential on this center.
   27          6
                                   No pseudopotential on this center.
   28          6
                                   No pseudopotential on this center.
   29          6
                                   No pseudopotential on this center.
   30          6
                                   No pseudopotential on this center.
   31          6
                                   No pseudopotential on this center.
   32          6
                                   No pseudopotential on this center.
   33          1
                                   No pseudopotential on this center.
   34          1
                                   No pseudopotential on this center.
   35          1
                                   No pseudopotential on this center.
   36          1
                                   No pseudopotential on this center.
   37          1
                                   No pseudopotential on this center.
   38          1
                                   No pseudopotential on this center.
   39          1
                                   No pseudopotential on this center.
   40          1
                                   No pseudopotential on this center.
   41          1
                                   No pseudopotential on this center.
   42          1
                                   No pseudopotential on this center.
   43          1
                                   No pseudopotential on this center.
   44          1
                                   No pseudopotential on this center.
   45          1
                                   No pseudopotential on this center.
   46          1
                                   No pseudopotential on this center.
   47          1
                                   No pseudopotential on this center.
   48          1
                                   No pseudopotential on this center.
 ======================================================================================================
 Ernie: Thresh=  0.10000D-02 Tol=  0.10000D-05 Strict=F.
 AO basis set (Overlap normalization):
 Atom C1       Shell     1 S   6     bf    1 -     1         10.273768059814          6.781089830019          0.000000000000
      0.1357534968D+05  0.6064550360D-03
      0.2035233368D+04  0.4697908888D-02
      0.4632256236D+03  0.2433247765D-01
      0.1312001960D+03  0.9739996831D-01
      0.4285301589D+02  0.3019558425D+00
      0.1558418577D+02  0.6623360914D+00
 Atom C1       Shell     2 S   2     bf    2 -     2         10.273768059814          6.781089830019          0.000000000000
      0.6206713851D+01  0.6559530854D+00
      0.2576489653D+01  0.3758563329D+00
 Atom C1       Shell     3 S   1     bf    3 -     3         10.273768059814          6.781089830019          0.000000000000
      0.5769633942D+00  0.1000000000D+01
 Atom C1       Shell     4 S   1     bf    4 -     4         10.273768059814          6.781089830019          0.000000000000
      0.2297283136D+00  0.1000000000D+01
 Atom C1       Shell     5 S   1     bf    5 -     5         10.273768059814          6.781089830019          0.000000000000
      0.9516444003D-01  0.1000000000D+01
 Atom C1       Shell     6 P   4     bf    6 -     8         10.273768059814          6.781089830019          0.000000000000
      0.3469723224D+02  0.1132722000D-01
      0.7958262283D+01  0.7616965920D-01
      0.2378082688D+01  0.3019225220D+00
      0.8143320818D+00  0.7278502735D+00
 Atom C1       Shell     7 P   1     bf    9 -    11         10.273768059814          6.781089830019          0.000000000000
      0.2888754725D+00  0.1000000000D+01
 Atom C1       Shell     8 P   1     bf   12 -    14         10.273768059814          6.781089830019          0.000000000000
      0.1005682367D+00  0.1000000000D+01
 Atom C1       Shell     9 D   1     bf   15 -    19         10.273768059814          6.781089830019          0.000000000000
      0.1097000000D+01  0.1000000000D+01
 Atom C1       Shell    10 D   1     bf   20 -    24         10.273768059814          6.781089830019          0.000000000000
      0.3180000000D+00  0.1000000000D+01
 Atom C1       Shell    11 F   1     bf   25 -    31         10.273768059814          6.781089830019          0.000000000000
      0.7610000000D+00  0.1000000000D+01
 Atom C2       Shell    12 S   6     bf   32 -    32          9.276617156181          9.254798555261          0.000000000000
      0.1357534968D+05  0.6064550360D-03
      0.2035233368D+04  0.4697908888D-02
      0.4632256236D+03  0.2433247765D-01
      0.1312001960D+03  0.9739996831D-01
      0.4285301589D+02  0.3019558425D+00
      0.1558418577D+02  0.6623360914D+00
 Atom C2       Shell    13 S   2     bf   33 -    33          9.276617156181          9.254798555261          0.000000000000
      0.6206713851D+01  0.6559530854D+00
      0.2576489653D+01  0.3758563329D+00
 Atom C2       Shell    14 S   1     bf   34 -    34          9.276617156181          9.254798555261          0.000000000000
      0.5769633942D+00  0.1000000000D+01
 Atom C2       Shell    15 S   1     bf   35 -    35          9.276617156181          9.254798555261          0.000000000000
      0.2297283136D+00  0.1000000000D+01
 Atom C2       Shell    16 S   1     bf   36 -    36          9.276617156181          9.254798555261          0.000000000000
      0.9516444003D-01  0.1000000000D+01
 Atom C2       Shell    17 P   4     bf   37 -    39          9.276617156181          9.254798555261          0.000000000000
      0.3469723224D+02  0.1132722000D-01
      0.7958262283D+01  0.7616965920D-01
      0.2378082688D+01  0.3019225220D+00
      0.8143320818D+00  0.7278502735D+00
 Atom C2       Shell    18 P   1     bf   40 -    42          9.276617156181          9.254798555261          0.000000000000
      0.2888754725D+00  0.1000000000D+01
 Atom C2       Shell    19 P   1     bf   43 -    45          9.276617156181          9.254798555261          0.000000000000
      0.1005682367D+00  0.1000000000D+01
 Atom C2       Shell    20 D   1     bf   46 -    50          9.276617156181          9.254798555261          0.000000000000
      0.1097000000D+01  0.1000000000D+01
 Atom C2       Shell    21 D   1     bf   51 -    55          9.276617156181          9.254798555261          0.000000000000
      0.3180000000D+00  0.1000000000D+01
 Atom C2       Shell    22 F   1     bf   56 -    62          9.276617156181          9.254798555261          0.000000000000
      0.7610000000D+00  0.1000000000D+01
 Atom C3       Shell    23 S   6     bf   63 -    63          6.714342714703          9.627283812954          0.000000000000
      0.1357534968D+05  0.6064550360D-03
      0.2035233368D+04  0.4697908888D-02
      0.4632256236D+03  0.2433247765D-01
      0.1312001960D+03  0.9739996831D-01
      0.4285301589D+02  0.3019558425D+00
      0.1558418577D+02  0.6623360914D+00
 Atom C3       Shell    24 S   2     bf   64 -    64          6.714342714703          9.627283812954          0.000000000000
      0.6206713851D+01  0.6559530854D+00
      0.2576489653D+01  0.3758563329D+00
 Atom C3       Shell    25 S   1     bf   65 -    65          6.714342714703          9.627283812954          0.000000000000
      0.5769633942D+00  0.1000000000D+01
 Atom C3       Shell    26 S   1     bf   66 -    66          6.714342714703          9.627283812954          0.000000000000
      0.2297283136D+00  0.1000000000D+01
 Atom C3       Shell    27 S   1     bf   67 -    67          6.714342714703          9.627283812954          0.000000000000
      0.9516444003D-01  0.1000000000D+01
 Atom C3       Shell    28 P   4     bf   68 -    70          6.714342714703          9.627283812954          0.000000000000
      0.3469723224D+02  0.1132722000D-01
      0.7958262283D+01  0.7616965920D-01
      0.2378082688D+01  0.3019225220D+00
      0.8143320818D+00  0.7278502735D+00
 Atom C3       Shell    29 P   1     bf   71 -    73          6.714342714703          9.627283812954          0.000000000000
      0.2888754725D+00  0.1000000000D+01
 Atom C3       Shell    30 P   1     bf   74 -    76          6.714342714703          9.627283812954          0.000000000000
      0.1005682367D+00  0.1000000000D+01
 Atom C3       Shell    31 D   1     bf   77 -    81          6.714342714703          9.627283812954          0.000000000000
      0.1097000000D+01  0.1000000000D+01
 Atom C3       Shell    32 D   1     bf   82 -    86          6.714342714703          9.627283812954          0.000000000000
      0.3180000000D+00  0.1000000000D+01
 Atom C3       Shell    33 F   1     bf   87 -    93          6.714342714703          9.627283812954          0.000000000000
      0.7610000000D+00  0.1000000000D+01
 Atom C4       Shell    34 S   6     bf   94 -    94          8.687675481797          4.733966601761          0.000000000000
      0.1357534968D+05  0.6064550360D-03
      0.2035233368D+04  0.4697908888D-02
      0.4632256236D+03  0.2433247765D-01
      0.1312001960D+03  0.9739996831D-01
      0.4285301589D+02  0.3019558425D+00
      0.1558418577D+02  0.6623360914D+00
 Atom C4       Shell    35 S   2     bf   95 -    95          8.687675481797          4.733966601761          0.000000000000
      0.6206713851D+01  0.6559530854D+00
      0.2576489653D+01  0.3758563329D+00
 Atom C4       Shell    36 S   1     bf   96 -    96          8.687675481797          4.733966601761          0.000000000000
      0.5769633942D+00  0.1000000000D+01
 Atom C4       Shell    37 S   1     bf   97 -    97          8.687675481797          4.733966601761          0.000000000000
      0.2297283136D+00  0.1000000000D+01
 Atom C4       Shell    38 S   1     bf   98 -    98          8.687675481797          4.733966601761          0.000000000000
      0.9516444003D-01  0.1000000000D+01
 Atom C4       Shell    39 P   4     bf   99 -   101          8.687675481797          4.733966601761          0.000000000000
      0.3469723224D+02  0.1132722000D-01
      0.7958262283D+01  0.7616965920D-01
      0.2378082688D+01  0.3019225220D+00
      0.8143320818D+00  0.7278502735D+00
 Atom C4       Shell    40 P   1     bf  102 -   104          8.687675481797          4.733966601761          0.000000000000
      0.2888754725D+00  0.1000000000D+01
 Atom C4       Shell    41 P   1     bf  105 -   107          8.687675481797          4.733966601761          0.000000000000
      0.1005682367D+00  0.1000000000D+01
 Atom C4       Shell    42 D   1     bf  108 -   112          8.687675481797          4.733966601761          0.000000000000
      0.1097000000D+01  0.1000000000D+01
 Atom C4       Shell    43 D   1     bf  113 -   117          8.687675481797          4.733966601761          0.000000000000
      0.3180000000D+00  0.1000000000D+01
 Atom C4       Shell    44 F   1     bf  118 -   124          8.687675481797          4.733966601761          0.000000000000
      0.7610000000D+00  0.1000000000D+01
 Atom C5       Shell    45 S   6     bf  125 -   125          6.027690447695          5.061251729101          0.000000000000
      0.1357534968D+05  0.6064550360D-03
      0.2035233368D+04  0.4697908888D-02
      0.4632256236D+03  0.2433247765D-01
      0.1312001960D+03  0.9739996831D-01
      0.4285301589D+02  0.3019558425D+00
      0.1558418577D+02  0.6623360914D+00
 Atom C5       Shell    46 S   2     bf  126 -   126          6.027690447695          5.061251729101          0.000000000000
      0.6206713851D+01  0.6559530854D+00
      0.2576489653D+01  0.3758563329D+00
 Atom C5       Shell    47 S   1     bf  127 -   127          6.027690447695          5.061251729101          0.000000000000
      0.5769633942D+00  0.1000000000D+01
 Atom C5       Shell    48 S   1     bf  128 -   128          6.027690447695          5.061251729101          0.000000000000
      0.2297283136D+00  0.1000000000D+01
 Atom C5       Shell    49 S   1     bf  129 -   129          6.027690447695          5.061251729101          0.000000000000
      0.9516444003D-01  0.1000000000D+01
 Atom C5       Shell    50 P   4     bf  130 -   132          6.027690447695          5.061251729101          0.000000000000
      0.3469723224D+02  0.1132722000D-01
      0.7958262283D+01  0.7616965920D-01
      0.2378082688D+01  0.3019225220D+00
      0.8143320818D+00  0.7278502735D+00
 Atom C5       Shell    51 P   1     bf  133 -   135          6.027690447695          5.061251729101          0.000000000000
      0.2888754725D+00  0.1000000000D+01
 Atom C5       Shell    52 P   1     bf  136 -   138          6.027690447695          5.061251729101          0.000000000000
      0.1005682367D+00  0.1000000000D+01
 Atom C5       Shell    53 D   1     bf  139 -   143          6.027690447695          5.061251729101          0.000000000000
      0.1097000000D+01  0.1000000000D+01
 Atom C5       Shell    54 D   1     bf  144 -   148          6.027690447695          5.061251729101          0.000000000000
      0.3180000000D+00  0.1000000000D+01
 Atom C5       Shell    55 F   1     bf  149 -   155          6.027690447695          5.061251729101          0.000000000000
      0.7610000000D+00  0.1000000000D+01
 Atom C6       Shell    56 S   6     bf  156 -   156          5.035909852550          7.533671808365          0.000000000000
      0.1357534968D+05  0.6064550360D-03
      0.2035233368D+04  0.4697908888D-02
      0.4632256236D+03  0.2433247765D-01
      0.1312001960D+03  0.9739996831D-01
      0.4285301589D+02  0.3019558425D+00
      0.1558418577D+02  0.6623360914D+00
[...]
 67,-0.00004616,0.,0.00022146,-0.00004164,0.,-0.00005148,0.00013916,0.,
 -0.00005761,-0.00004395,0.,0.00004675,0.00005488,0.,0.00004790,0.00000
 785,0.,-0.00030398,0.00017132,0.,0.00047757,0.00003209,0.,-0.00165791,
 0.00105205,0.,-0.00277655,0.00455456,0.,0.13185585,-0.24611217,0.,0.01
 911041,-0.01768844,0.,-0.00376771,-0.00361812,0.,-0.00127304,0.0010034
 5,0.,-0.00084434,0.00024017,0.,0.00024057,-0.00004910,0.,-0.00022760,0
 .00011932,0.,0.00014405,0.00008278,0.,-0.00013104,-0.00007049,0.,0.000
 02772,0.00001524,0.,-0.00001065,-0.00003259,0.,0.00006499,-0.00000676,
 0.,-0.00014820,-0.00001668,0.,0.00000152,-0.00000222,0.,0.00000321,0.0
 0000038,0.,0.00000057,0.00000245,0.,-0.00000277,0.00000033,0.,0.000002
 44,0.00000184,0.,0.00000494,0.00000258,0.,-0.00000396,-0.00000260,0.,-
 0.00000003,-0.00000307,0.,0.00004734,0.00000206,0.,0.00045832,0.000104
 21,0.,-0.14198851,0.26031516,0.,0.,-0.00000122,0.,0.,-0.00000187,0.,0.
 ,-0.00000046,0.,0.,0.00000102,0.,0.,0.00000106,0.,0.,0.00000277,0.,0.,
 -0.00000520,0.,0.,-0.00000551,0.,0.,-0.00001325,0.,0.,0.00001880,0.,0.
 ,-0.00002935,0.,0.,0.00003713,0.,0.,-0.00000435,0.,0.,-0.00001685,0.,0
 .,-0.00000611,0.,0.,0.00020275,0.,0.,-0.00015115,0.,0.,-0.00416272,0.,
 0.,0.00322074,0.,0.,-0.03566051,0.,0.,0.00261790,0.,0.,0.00687321,0.,0
 .,0.00699191,0.,0.,-0.00097281,0.,0.,-0.00090109,0.,0.,0.00016507,0.,0
 .,-0.00016451,0.,0.,0.00009889,0.,0.,0.00010940,0.,0.,-0.00001651,0.,0
 .,-0.00012438,0.,0.,0.00000400,0.,0.,0.00000117,0.,0.,0.00000057,0.,0.
 ,0.00000092,0.,0.,0.00000026,0.,0.,0.00000319,0.,0.,0.00000755,0.,0.,0
 .00000704,0.,0.,0.00004415,0.,0.,0.00026900,0.,0.,0.00023713,0.,0.,0.0
 2476269,-0.00001600,0.00001202,0.,0.00000211,0.00000699,0.,0.00000198,
 0.00001289,0.,-0.00000203,-0.00001254,0.,-0.00001201,-0.00001123,0.,0.
 00001543,-0.00001203,0.,-0.00000775,-0.00001660,0.,-0.00003199,-0.0000
 0949,0.,0.00001121,-0.00002163,0.,-0.00001232,0.00002647,0.,0.00003764
 ,-0.00000821,0.,0.00000791,-0.00000221,0.,-0.00004150,0.00000771,0.,0.
 00002121,0.00004250,0.,0.00001198,-0.00000349,0.,-0.00002690,-0.000014
 63,0.,-0.00001224,-0.00030304,0.,-0.00055246,0.00036392,0.,0.00119482,
 -0.00237873,0.,-0.00890714,0.00177701,0.,-0.33967332,-0.02450776,0.,-0
 .01364732,-0.00460016,0.,0.00063717,0.00016947,0.,0.00029102,0.0033145
 0,0.,-0.00066413,-0.00058408,0.,0.00000122,-0.00000297,0.,0.00006712,0
 .00003550,0.,-0.00012256,0.00033037,0.,-0.00005400,-0.00009898,0.,-0.0
 0002263,0.00005610,0.,0.00000787,-0.00000297,0.,-0.00003492,0.00001105
 ,0.,-0.00000305,0.00000308,0.,-0.00000590,-0.00000009,0.,0.00000023,-0
 .00000392,0.,0.00000519,0.00000027,0.,-0.00000078,-0.00000167,0.,-0.00
 000596,-0.00000193,0.,0.00000700,0.00000205,0.,0.00000018,0.00000137,0
 .,-0.00006350,-0.00000092,0.,0.00000912,-0.00003161,0.,0.00076051,-0.0
 0034149,0.,0.36000204,0.00002731,0.00002166,0.,0.00000338,-0.00003416,
 0.,-0.00003300,0.00001249,0.,-0.00003097,0.00001890,0.,0.00008114,0.00
 001180,0.,0.00003968,-0.00006693,0.,-0.00008502,0.00004195,0.,0.000083
 31,-0.00000255,0.,-0.00004985,0.00002481,0.,0.00004366,0.00003109,0.,-
 0.00031243,0.00011193,0.,0.00012386,-0.00019090,0.,0.00013676,0.000105
 99,0.,-0.00008387,-0.00012189,0.,-0.00009638,0.00000438,0.,0.00044535,
 -0.00011174,0.,-0.00036231,-0.00038703,0.,-0.00103953,0.00073567,0.,-0
 .00191162,-0.00528388,0.,-0.02977337,0.00269884,0.,-0.02476242,-0.0629
 6833,0.,0.02710291,0.00706851,0.,0.00031323,-0.00111009,0.,0.00288157,
 -0.00442835,0.,0.00069326,0.00087335,0.,-0.00013385,0.00008004,0.,-0.0
 0031648,-0.00021438,0.,0.00047892,-0.00025934,0.,0.00003810,0.00011787
 ,0.,0.00007718,-0.00001624,0.,-0.00014886,-0.00001814,0.,0.00020845,0.
 00006996,0.,0.00000044,0.00000049,0.,-0.00000018,-0.00000042,0.,0.0000
 0014,0.00000020,0.,-0.00000094,0.00000065,0.,-0.00000052,0.00000052,0.
 ,-0.00000170,0.00000013,0.,0.00000547,0.00001372,0.,-0.00000023,0.0000
 0147,0.,-0.00013693,-0.00001131,0.,0.00002163,-0.00003753,0.,0.0004673
 0,0.00080993,0.,0.02642996,0.06163758,0.,0.,-0.00000033,0.,0.,-0.00000
 062,0.,0.,0.00000037,0.,0.,-0.00000085,0.,0.,-0.00000142,0.,0.,-0.0000
 0011,0.,0.,-0.00000408,0.,0.,0.00000301,0.,0.,0.00000393,0.,0.,-0.0000
 0636,0.,0.,0.00003749,0.,0.,-0.00000075,0.,0.,-0.00000632,0.,0.,-0.000
 00020,0.,0.,0.00000204,0.,0.,0.00008502,0.,0.,-0.00036824,0.,0.,0.0001
 8909,0.,0.,0.00738440,0.,0.,0.00249450,0.,0.,-0.03781081,0.,0.,0.00283
 754,0.,0.,-0.00084803,0.,0.,0.00841333,0.,0.,0.00019115,0.,0.,-0.00083
 613,0.,0.,0.00008209,0.,0.,-0.00053371,0.,0.,-0.00006015,0.,0.,0.00004
 039,0.,0.,-0.00001251,0.,0.,0.00005507,0.,0.,0.00000059,0.,0.,0.000000
 30,0.,0.,0.00000057,0.,0.,0.00000069,0.,0.,0.00000072,0.,0.,0.00000169
 ,0.,0.,-0.00000277,0.,0.,0.00000302,0.,0.,-0.00002066,0.,0.,0.00007153
 ,0.,0.,-0.00360467,0.,0.,0.02634513,0.00001708,0.00000249,0.,-0.000007
 18,-0.00001722,0.,-0.00001252,0.00000526,0.,-0.00001838,0.00000807,0.,
 0.00005041,0.00001773,0.,0.00000325,-0.00002683,0.,-0.00003488,0.00003
 603,0.,0.00005574,-0.00000170,0.,-0.00003603,-0.00000489,0.,-0.0000319
 2,0.00003476,0.,-0.00017440,-0.00012005,0.,0.00004127,-0.00011067,0.,0
 .00006879,0.00004586,0.,-0.00006520,-0.00007379,0.,-0.00002325,0.00001
 759,0.,-0.00026007,0.00007345,0.,-0.00022249,0.00015092,0.,0.00034241,
 0.00008859,0.,-0.00107753,0.00051117,0.,-0.00146965,0.00337124,0.,0.01
 181451,0.01787468,0.,-0.11029835,-0.10721108,0.,-0.00549811,0.00112381
 ,0.,-0.00857169,-0.02954053,0.,0.00125171,-0.00181582,0.,0.00009476,-0
 .00168294,0.,0.00000729,-0.00015090,0.,0.00017497,0.00046708,0.,-0.000
 02743,-0.00000850,0.,-0.00001951,-0.00000504,0.,-0.00006984,-0.0000115
 0,0.,0.00017999,0.00014300,0.,-0.00000040,0.00000023,0.,0.00000100,-0.
 00000012,0.,-0.00000058,0.00000035,0.,-0.00000116,0.00000085,0.,-0.000
 00106,-0.00000087,0.,-0.00000705,-0.00000130,0.,0.00000443,0.00000288,
 0.,-0.00000770,0.00000413,0.,0.00000621,-0.00001917,0.,-0.00002231,-0.
 00007320,0.,0.00036271,0.00088319,0.,0.00083011,-0.00041516,0.,0.11307
 177,-0.00002216,-0.00000924,0.,-0.00000709,0.00002108,0.,0.00001986,0.
 00000233,0.,0.00001238,-0.00001922,0.,-0.00004217,-0.00000280,0.,-0.00
 002129,0.00002786,0.,0.00003755,-0.00001653,0.,-0.00004609,-0.00000588
 ,0.,0.00001958,-0.00001957,0.,-0.00003186,-0.00000004,0.,0.00015864,-0
 .00004735,0.,-0.00007519,0.00009782,0.,-0.00010289,-0.00005687,0.,0.00
 003975,0.00007863,0.,0.00006645,0.00000660,0.,-0.00021878,0.00002855,0
 .,0.00005005,-0.00004147,0.,-0.00012237,-0.00004527,0.,0.00060004,0.00
 040748,0.,0.00415260,-0.00230516,0.,-0.01383542,-0.01822537,0.,-0.1072
 5139,-0.28909846,0.,-0.00003638,0.00137848,0.,0.00058987,-0.00012536,0
 .,0.00169151,0.00096522,0.,0.00037033,-0.00012239,0.,0.00018021,0.0002
 2901,0.,-0.00047673,0.00006524,0.,0.00003469,-0.00009714,0.,-0.0000836
 7,-0.00000952,0.,0.00009875,-0.00000797,0.,-0.00012162,0.00001453,0.,-
 0.00000266,0.00000199,0.,-0.00000322,0.00000022,0.,-0.00000039,-0.0000
 0275,0.,0.00000343,0.00000031,0.,-0.00000084,-0.00000247,0.,-0.0000045
 0,-0.00000225,0.,0.00000544,0.00000273,0.,-0.00000448,0.00000290,0.,-0
 .00001454,-0.00001188,0.,0.00002796,0.00002544,0.,-0.00064394,-0.00100
 567,0.,0.00031449,0.00080680,0.,0.11519606,0.30685149,0.,0.,-0.0000000
 7,0.,0.,-0.00000156,0.,0.,0.00000009,0.,0.,-0.00000079,0.,0.,-0.000002
 88,0.,0.,-0.00000244,0.,0.,0.00000314,0.,0.,-0.00001632,0.,0.,-0.00000
 510,0.,0.,-0.00016374,0.,0.,0.00002187,0.,0.,0.00007726,0.,0.,-0.00001
 506,0.,0.,0.00001559,0.,0.,-0.00001565,0.,0.,0.00008065,0.,0.,0.000102
 26,0.,0.,-0.00101837,0.,0.,-0.00103431,0.,0.,0.00777137,0.,0.,0.003037
 04,0.,0.,-0.03558674,0.,0.,0.00614705,0.,0.,0.00294052,0.,0.,-0.003417
 71,0.,0.,-0.00001498,0.,0.,0.00023972,0.,0.,-0.00029789,0.,0.,0.000247
 50,0.,0.,-0.00001588,0.,0.,0.00003724,0.,0.,-0.00007377,0.,0.,0.000000
 64,0.,0.,0.00000067,0.,0.,0.00000072,0.,0.,0.00000154,0.,0.,0.00000301
 ,0.,0.,0.00002725,0.,0.,0.00000938,0.,0.,0.00000038,0.,0.,0.00010066,0
 .,0.,0.00004255,0.,0.,0.00013123,0.,0.,-0.00425725,0.,0.,0.02466558,0.
 00002158,0.00001676,0.,-0.00000739,-0.00002652,0.,-0.00002231,0.000017
 50,0.,-0.00003811,0.00000594,0.,0.00008336,0.00002979,0.,0.00002350,-0
 .00005313,0.,-0.00005631,0.00003128,0.,0.00000872,0.00000642,0.,-0.000
 02973,-0.00001365,0.,0.00002084,0.00003526,0.,-0.00016435,0.00010848,0
 .,-0.00039835,0.00004279,0.,0.00013597,0.00022410,0.,-0.00008249,-0.00
 012477,0.,-0.00004980,-0.00014186,0.,0.00024365,0.00006621,0.,-0.00002
 270,-0.00003863,0.,-0.00023220,0.00016942,0.,0.00049318,0.00078129,0.,
 0.00024706,0.00018164,0.,0.00005601,-0.00050775,0.,0.00125298,0.001502
 34,0.,-0.00222125,0.00269255,0.,0.01056498,0.01667730,0.,-0.10962032,-
 0.10613078,0.,-0.00060127,0.00024044,0.,-0.00545256,0.00156189,0.,-0.0
 0925986,-0.03001775,0.,0.00111534,-0.00207606,0.,0.00012955,0.00050175
 ,0.,0.00006788,-0.00020920,0.,0.00016174,-0.00166427,0.,-0.00000270,0.
 00000177,0.,-0.00000137,-0.00000010,0.,-0.00000018,-0.00000091,0.,0.00
 000011,0.00000217,0.,-0.00000746,-0.00000240,0.,-0.00000406,-0.0000019
 5,0.,-0.00000183,-0.00001293,0.,-0.00003650,0.00000757,0.,0.00001386,-
 0.00001668,0.,0.00004704,0.00008094,0.,-0.00002619,-0.00003745,0.,0.00
 000712,-0.00001926,0.,-0.00039646,-0.00049499,0.,0.11447752,-0.0000134
 7,-0.00001663,0.,-0.00001467,0.00001513,0.,0.00001769,0.00000017,0.,0.
 00000776,-0.00001631,0.,-0.00002588,0.00001620,0.,-0.00003389,0.000025
 62,0.,0.00002792,0.00000874,0.,-0.00000748,-0.00000695,0.,-0.00001352,
 -0.00001435,0.,-0.00001853,0.00000790,0.,0.00003148,-0.00001077,0.,-0.
 00014271,0.00007110,0.,-0.00011204,-0.00004535,0.,0.00001233,0.0000674
 3,0.,0.00008879,-0.00002064,0.,-0.00000854,-0.00007967,0.,-0.00007891,
 0.00001056,0.,0.00042222,-0.00017991,0.,-0.00130684,-0.00074467,0.,0.0
 0013827,0.00017046,0.,0.00031619,0.00000995,0.,-0.00181170,0.00110543,
 0.,0.00418684,-0.00187533,0.,-0.01337264,-0.01907896,0.,-0.10712247,-0
 .28578889,0.,0.00048123,0.00031118,0.,0.00015717,0.00144973,0.,0.00016
 551,-0.00030244,0.,0.00193255,0.00107936,0.,-0.00039330,0.00005609,0.,
 0.00026674,0.00012230,0.,0.00016671,-0.00019976,0.,-0.00000249,0.00000
 145,0.,-0.00000119,0.00000025,0.,-0.00000092,-0.00000184,0.,0.00000186
 ,0.00000012,0.,-0.00000272,-0.00000348,0.,-0.00000583,-0.00000289,0.,0
 .00000677,0.00000738,0.,-0.00001378,0.00001017,0.,-0.00001006,-0.00001
 895,0.,-0.00005157,-0.00013539,0.,0.00006434,0.00003100,0.,0.00004351,
 -0.00003709,0.,0.00119076,0.00024913,0.,0.11540202,0.30348839,0.,0.,-0
 .00000841,0.,0.,-0.00000159,0.,0.,0.00000184,0.,0.,0.00000989,0.,0.,-0
 .00000906,0.,0.,-0.00001911,0.,0.,-0.00000467,0.,0.,-0.00012716,0.,0.,
 -0.00001733,0.,0.,0.00012611,0.,0.,0.00017077,0.,0.,-0.00048276,0.,0.,
 -0.00003028,0.,0.,0.00001347,0.,0.,0.00002288,0.,0.,-0.00082052,0.,0.,
 0.00005728,0.,0.,0.00003955,0.,0.,0.00013185,0.,0.,-0.00003653,0.,0.,-
 0.00018969,0.,0.,-0.00249390,0.,0.,0.00437010,0.,0.,0.00307198,0.,0.,-
 0.03586853,0.,0.,-0.00073129,0.,0.,0.00799743,0.,0.,0.00458434,0.,0.,-
 0.00543979,0.,0.,-0.00008195,0.,0.,0.00024882,0.,0.,0.00028362,0.,0.,0
 .00000424,0.,0.,0.00000059,0.,0.,0.00000213,0.,0.,-0.00000486,0.,0.,0.
 00004872,0.,0.,-0.00001824,0.,0.,-0.00000198,0.,0.,0.00003324,0.,0.,0.
 00001072,0.,0.,-0.00002651,0.,0.,0.00004733,0.,0.,0.00012342,0.,0.,0.0
 0025756,0.,0.,0.02411720,0.00000473,0.00000452,0.,-0.00000962,-0.00000
 867,0.,-0.00000811,-0.00000620,0.,-0.00002491,0.00000915,0.,0.00005443
 ,-0.00016402,0.,-0.00004173,-0.00000930,0.,-0.00001689,-0.00001804,0.,
 0.00000731,0.00003882,0.,-0.00000537,0.00001056,0.,0.00002709,-0.00002
 675,0.,-0.00001077,-0.00002797,0.,0.00016245,-0.00000123,0.,0.00009898
 ,-0.00150820,0.,-0.00046880,0.00004922,0.,-0.00006141,0.00006346,0.,-0
 .00025672,0.00011715,0.,0.00005793,0.00008695,0.,0.00001184,-0.0000103
 1,0.,-0.00000644,-0.00006583,0.,-0.00000891,0.00001637,0.,0.00000398,-
 0.00000628,0.,-0.00001497,-0.00000251,0.,0.00017915,0.00006875,0.,0.00
 003404,-0.00033388,0.,0.00149103,0.00132376,0.,0.00058981,0.00076217,0
 .,-0.00251517,0.00252057,0.,0.01001014,0.01691290,0.,-0.11066953,-0.10
 854477,0.,-0.00947301,-0.03112303,0.,-0.00520222,0.00178849,0.,-0.0003
 6863,0.00016624,0.,-0.00000801,0.00000353,0.,-0.00000546,-0.00000143,0
 .,-0.00000713,-0.00000445,0.,0.00001363,-0.00001267,0.,-0.00000407,-0.
 00000548,0.,0.00000075,-0.00000744,0.,-0.00000092,-0.00000847,0.,-0.00
 001500,0.00004960,0.,-0.00001955,0.00002248,0.,-0.00000070,-0.00000371
 ,0.,-0.00000289,-0.00000521,0.,0.00000660,-0.00000377,0.,-0.00002536,0
 .00000695,0.,-0.00040885,-0.00050124,0.,0.11616677,-0.00000414,-0.0000
 0116,0.,-0.00001061,0.00000069,0.,0.00000226,0.00000748,0.,-0.00000888
 ,-0.00000984,0.,0.00001038,0.00001041,0.,-0.00001378,-0.00000360,0.,-0
 .00000621,0.00003677,0.,0.00000256,-0.00003110,0.,-0.00000503,-0.00003
 713,0.,-0.00002053,0.00004023,0.,-0.00002201,0.00004006,0.,-0.00006084
 ,-0.00004784,0.,-0.00003814,-0.00009886,0.,-0.00008246,0.00005967,0.,0
 .00006147,-0.00001356,0.,0.00040660,-0.00018625,0.,-0.00012009,-0.0000
 8877,0.,0.00000765,0.00001552,0.,0.00000426,0.00011665,0.,0.00011374,-
 0.00000533,0.,0.00000694,-0.00010396,0.,-0.00010052,-0.00005188,0.,-0.
 00002594,0.00012732,0.,0.00046484,0.00017939,0.,-0.00168286,0.00115392
 ,0.,-0.00121287,-0.00078344,0.,0.00409550,-0.00181583,0.,-0.01333860,-
 0.01894187,0.,-0.10991673,-0.28733604,0.,0.00137930,0.00162676,0.,0.00
 042588,0.00154706,0.,0.00053866,0.00034714,0.,-0.00000293,0.00000201,0
 .,-0.00000209,0.00000013,0.,-0.00000084,-0.00000191,0.,0.00000175,0.00
 000200,0.,-0.00000230,-0.00000269,0.,-0.00000726,-0.00000083,0.,0.0000
 0318,-0.00000493,0.,-0.00001394,0.00000717,0.,0.00002709,-0.00004558,0
 .,0.00001032,-0.00000240,0.,0.00000938,-0.00000023,0.,0.00001108,-0.00
 000295,0.,0.00003628,0.00001344,0.,0.00119296,0.00026340,0.,0.11815819
 ,0.30306468,0.,0.,-0.00000080,0.,0.,-0.00000754,0.,0.,0.00000031,0.,0.
 ,-0.00002373,0.,0.,-0.00003959,0.,0.,0.00008696,0.,0.,-0.00001760,0.,0
 .,0.00009792,0.,0.,-0.00000626,0.,0.,-0.00000192,0.,0.,0.00006131,0.,0
 .,-0.00060218,0.,0.,-0.00003412,0.,0.,-0.00104186,0.,0.,0.00010368,0.,
 0.,-0.00006878,0.,0.,0.00000307,0.,0.,-0.00002075,0.,0.,0.00004106,0.,
 0.,-0.00000173,0.,0.,-0.00001071,0.,0.,0.00005946,0.,0.,-0.00000266,0.
 ,0.,-0.00024699,0.,0.,-0.00150772,0.,0.,0.00020543,0.,0.,0.00308835,0.
 ,0.,0.00264631,0.,0.,-0.03732104,0.,0.,0.00470806,0.,0.,0.01103116,0.,
 0.,-0.00068558,0.,0.,0.00000253,0.,0.,0.00000169,0.,0.,0.00000893,0.,0
 .,0.00000202,0.,0.,-0.00001643,0.,0.,-0.00000064,0.,0.,0.00000680,0.,0
 .,0.00036944,0.,0.,-0.00000401,0.,0.,0.00000479,0.,0.,0.00000165,0.,0.
 ,0.00000122,0.,0.,0.00000154,0.,0.,0.00027578,0.,0.,0.02509780,0.00000
 074,0.00000974,0.,0.00000189,0.00000344,0.,0.00000844,0.00000075,0.,0.
 00002189,-0.00004636,0.,-0.00003322,0.00002294,0.,0.00000228,0.0000132
 2,0.,0.00000037,-0.00000709,0.,0.00000769,0.00005123,0.,0.00000815,0.0
 0001292,0.,0.00004899,-0.00007128,0.,-0.00017574,-0.00011178,0.,0.0004
 7505,-0.00055199,0.,0.00143820,-0.00141858,0.,0.00003285,0.00032286,0.
 ,0.00018202,-0.00007604,0.,-0.00000383,0.00002305,0.,0.00001500,0.0000
 3011,0.,0.00000054,-0.00000984,0.,0.00002251,-0.00003364,0.,-0.0000234
 0,-0.00000855,0.,-0.00006518,0.00001842,0.,0.00002506,0.00016197,0.,-0
 .00004674,-0.00005060,0.,-0.00048581,-0.00015156,0.,-0.00011679,0.0015
 4341,0.,0.00014912,0.00002342,0.,-0.00025990,-0.00026513,0.,-0.0046872
 5,-0.00283581,0.,-0.01405620,0.02856142,0.,-0.15070769,0.13116654,0.,0
 .00965532,-0.01203191,0.,-0.00141578,-0.00243575,0.,0.00000207,-0.0000
 0342,0.,0.00000622,0.00000341,0.,0.00000219,0.00000419,0.,-0.00002015,
 0.00001655,0.,-0.00000089,0.00000317,0.,0.00000092,0.00000350,0.,-0.00
 001231,-0.00001586,0.,-0.00030293,0.00039110,0.,-0.00000149,0.00000829
 ,0.,-0.00000170,0.00000837,0.,-0.00000455,0.00000675,0.,-0.00001633,0.
 00001567,0.,0.00000207,-0.00001192,0.,-0.00002737,-0.00006227,0.,0.000
 74049,-0.00027066,0.,0.15961518,0.00000323,0.00007746,0.,-0.00000777,-
 0.00002759,0.,-0.00001745,0.00004538,0.,-0.00004901,-0.00009309,0.,0.0
 0011551,-0.00005035,0.,0.00006183,-0.00008939,0.,-0.00009170,-0.000052
 40,0.,-0.00004116,0.00013220,0.,-0.00000670,0.00000267,0.,0.00013766,-
 0.00007255,0.,-0.00042383,-0.00025747,0.,0.00145234,-0.00068701,0.,0.0
 0182729,0.00125002,0.,-0.00048262,0.00008165,0.,-0.00000480,0.00014735
 ,0.,0.00002188,0.00005211,0.,0.00000768,0.00004701,0.,0.00002362,-0.00
 002093,0.,0.00000598,-0.00004275,0.,-0.00000955,0.00003504,0.,0.000020
 63,0.00000585,0.,-0.00000380,0.00003093,0.,-0.00007494,-0.00004141,0.,
 -0.00000677,0.00003035,0.,0.00003476,0.00016480,0.,0.00011925,-0.00003
 446,0.,-0.00066605,0.00021998,0.,-0.00146559,0.00100885,0.,-0.00395751
 ,0.00609916,0.,0.13248252,-0.24700915,0.,0.01816237,-0.01878299,0.,-0.
 00401034,-0.00293961,0.,-0.00001149,0.00000218,0.,-0.00000203,0.000005
 45,0.,0.00000071,-0.00000043,0.,-0.00002892,0.00002957,0.,-0.00000970,
 0.00000108,0.,-0.00001009,-0.00000227,0.,-0.00002187,-0.00005364,0.,-0
 .00137010,0.00015717,0.,-0.00000309,-0.00000388,0.,0.00000705,0.000000
 77,0.,0.00000256,-0.00000168,0.,0.00000006,0.00000253,0.,0.00000482,0.
 00000335,0.,0.00001048,0.00000163,0.,0.00023101,0.00095605,0.,-0.14195
 642,0.25967244,0.,0.,-0.00001445,0.,0.,0.00000019,0.,0.,-0.00000620,0.
 ,0.,-0.00002429,0.,0.,0.00002807,0.,0.,0.00001019,0.,0.,-0.00000880,0.
 ,0.,0.00005229,0.,0.,-0.00002283,0.,0.,0.00000659,0.,0.,-0.00010547,0.
 ,0.,0.00023290,0.,0.,-0.00158101,0.,0.,-0.00018566,0.,0.,-0.00000463,0
 .,0.,0.00009241,0.,0.,-0.00000581,0.,0.,-0.00000134,0.,0.,0.00008851,0
 .,0.,-0.00001978,0.,0.,0.00012126,0.,0.,-0.00005364,0.,0.,0.00011076,0
 .,0.,-0.00113661,0.,0.,-0.00000268,0.,0.,-0.00060758,0.,0.,-0.00058416
 ,0.,0.,0.01105670,0.,0.,0.00470106,0.,0.,-0.03741067,0.,0.,0.00270413,
 0.,0.,0.00300084,0.,0.,0.00000906,0.,0.,0.00000256,0.,0.,0.00000290,0.
 ,0.,0.00003951,0.,0.,0.00000089,0.,0.,0.00000496,0.,0.,-0.00001028,0.,
 0.,0.00027549,0.,0.,0.00000942,0.,0.,-0.00000195,0.,0.,-0.00001599,0.,
 0.,0.00000766,0.,0.,-0.00002349,0.,0.,0.00036330,0.,0.,-0.00624465,0.,
 0.,0.02515028\\-0.00000375,-0.00000528,0.,-0.00000137,0.00000162,0.,0.
 00000644,-0.00000463,0.,0.00000577,-0.00000416,0.,-0.00000493,-0.00000
 053,0.,-0.00000329,0.00000083,0.,0.00000725,-0.00000385,0.,-0.00000441
 ,-0.00000033,0.,0.00000625,-0.00000266,0.,-0.00000249,-0.00000320,0.,0
 .00000348,0.00000446,0.,0.00000330,-0.00000066,0.,-0.00000339,-0.00000
 293,0.,0.00000506,-0.00000216,0.,-0.00000306,0.00000205,0.,-0.00000221
 ,0.00000222,0.,0.00000356,-0.00000054,0.,-0.00000101,0.00000006,0.,0.0
 0000020,0.00000409,0.,0.00000023,0.00000307,0.,0.,0.00000247,0.,-0.000
 00136,0.00000202,0.,0.00000252,0.00000107,0.,0.00000014,0.00000172,0.,
 -0.00000256,0.00000061,0.,-0.00000318,0.00000145,0.,0.00000380,0.00000
 044,0.,0.00000018,-0.00000015,0.,-0.00000399,0.00000056,0.,0.00000070,
 0.00000085,0.,-0.00000080,-0.00000094,0.,-0.00000435,-0.00000013,0.,-0
 .00000069,-0.00000240,0.,0.00000008,-0.00000413,0.,-0.00000019,-0.0000
 0277,0.,-0.00000103,-0.00000123,0.,0.00000023,-0.00000163,0.,0.0000008
 1,-0.00000077,0.,0.00000078,0.00000021,0.,-0.00000156,0.,0.,0.00000213
 ,0.00000125,0.,0.00000208,0.00000204,0.,0.00000081,0.00000253,0.,-0.00
 000002,0.00000338,0.,-0.00000086,0.00000288,0.,-0.00000123,0.00000228,
 0.,-0.00000182,0.00000101,0.,-0.00000226,-0.00000005,0.\\\@


 THERE IS AN OLD, OLD RECIPE IN MAINE FOR STEWING COOT. PLACE THE
 BIRD IN A KETTLE OF WATER WITH A RED BUILDING BRICK FREE OF MORTAR AND
 BLEMISHES. PARBOIL THE COOT AND BRICK TOGETHER FOR THREE HOURS.
 POUR OFF THE WATER, REFILL THE KETTLE, AND AGAIN PARBOIL FOR THREE HOURS.
 ONCE AGAIN POUR OFF THE WATER, FOR THE LAST TIME ADD FRESH WATER,
 AND LET THE COOT AND BRICK SIMMER TOGETHER OVERNIGHT. IN THE MORNING,
 THROW AWAY THE COOT AND EAT THE BRICK.
 Job cpu time:       4 days 15 hours 26 minutes 34.6 seconds.
 File lengths (MBytes):  RWF=   4430 Int=      0 D2E=      0 Chk=     85 Scr=      1
 Normal termination of Gaussian 09 at Sun Jul 28 04:28:19 2019.
