 Entering Gaussian System, Link 0=g09
 Initial command:
 /home/minenky/programs//g09/l1.exe "/local/scratch/minenky/m1_00_106-98-90_C4H8_wB97XD/Gau-116921.inp" -scrdir="/local/scratch/minenky/m1_00_106-98-90_C4H8_wB97XD/"
 Entering Link 1 = /home/minenky/programs//g09/l1.exe PID=    116922.
  
 Copyright (c) 1988,1990,1992,1993,1995,1998,2003,2009,2013,
            Gaussian, Inc.  All Rights Reserved.
  
 This is part of the Gaussian(R) 09 program.  It is based on
 the Gaussian(R) 03 system (copyright 2003, Gaussian, Inc.),
 the Gaussian(R) 98 system (copyright 1998, Gaussian, Inc.),
 the Gaussian(R) 94 system (copyright 1995, Gaussian, Inc.),
 the Gaussian 92(TM) system (copyright 1992, Gaussian, Inc.),
 the Gaussian 90(TM) system (copyright 1990, Gaussian, Inc.),
 the Gaussian 88(TM) system (copyright 1988, Gaussian, Inc.),
 the Gaussian 86(TM) system (copyright 1986, Carnegie Mellon
 University), and the Gaussian 82(TM) system (copyright 1983,
 Carnegie Mellon University). Gaussian is a federally registered
 trademark of Gaussian, Inc.
  
 This software contains proprietary and confidential information,
 including trade secrets, belonging to Gaussian, Inc.
  
 This software is provided under written license and may be
 used, copied, transmitted, or stored only in accord with that
 written license.
  
 The following legend is applicable only to US Government
 contracts under FAR:
  
                    RESTRICTED RIGHTS LEGEND
  
 Use, reproduction and disclosure by the US Government is
 subject to restrictions as set forth in subparagraphs (a)
 and (c) of the Commercial Computer Software - Restricted
 Rights clause in FAR 52.227-19.
  
 Gaussian, Inc.
 340 Quinnipiac St., Bldg. 40, Wallingford CT 06492
  
  
 ---------------------------------------------------------------
 Warning -- This program may not be used in any manner that
 competes with the business of Gaussian, Inc. or will provide
 assistance to any competitor of Gaussian, Inc.  The licensee
 of this program is prohibited from giving any competitor of
 Gaussian, Inc. access to this program.  By using this program,
 the user acknowledges that Gaussian, Inc. is engaged in the
 business of creating and licensing software in the field of
 computational chemistry and represents and warrants to the
 licensee that it is not a competitor of Gaussian, Inc. and that
 it will not use this program in any manner prohibited above.
 ---------------------------------------------------------------
  

 Cite this work as:
 Gaussian 09, Revision D.01,
 M. J. Frisch, G. W. Trucks, H. B. Schlegel, G. E. Scuseria, 
 M. A. Robb, J. R. Cheeseman, G. Scalmani, V. Barone, B. Mennucci, 
 G. A. Petersson, H. Nakatsuji, M. Caricato, X. Li, H. P. Hratchian, 
 A. F. Izmaylov, J. Bloino, G. Zheng, J. L. Sonnenberg, M. Hada, 
 M. Ehara, K. Toyota, R. Fukuda, J. Hasegawa, M. Ishida, T. Nakajima, 
 Y. Honda, O. Kitao, H. Nakai, T. Vreven, J. A. Montgomery, Jr., 
 J. E. Peralta, F. Ogliaro, M. Bearpark, J. J. Heyd, E. Brothers, 
 K. N. Kudin, V. N. Staroverov, T. Keith, R. Kobayashi, J. Normand, 
 K. Raghavachari, A. Rendell, J. C. Burant, S. S. Iyengar, J. Tomasi, 
 M. Cossi, N. Rega, J. M. Millam, M. Klene, J. E. Knox, J. B. Cross, 
 V. Bakken, C. Adamo, J. Jaramillo, R. Gomperts, R. E. Stratmann, 
 O. Yazyev, A. J. Austin, R. Cammi, C. Pomelli, J. W. Ochterski, 
 R. L. Martin, K. Morokuma, V. G. Zakrzewski, G. A. Voth, 
 P. Salvador, J. J. Dannenberg, S. Dapprich, A. D. Daniels, 
 O. Farkas, J. B. Foresman, J. V. Ortiz, J. Cioslowski, 
 and D. J. Fox, Gaussian, Inc., Wallingford CT, 2013.
 
 ******************************************
 Gaussian 09:  AM64L-G09RevD.01 24-Apr-2013
                 9-Jul-2021 
 ******************************************
 %Mem=32000MB
 %NProcShared=16
 Will use up to   16 processors via shared memory.
 %Chk=m1_00_106-98-90_C4H8_wB97XD
 ----------------------------------------------------------------------
 #P wB97XD/def2tzvp opt=(tight) freq integral(Grid=ultrafine) # SCF(Max
 Cycle=380) 5d 7f GFPrint
 ----------------------------------------------------------------------
 1/7=10,14=-1,18=20,19=15,26=4,38=1/1,3;
 2/9=110,12=2,17=6,18=5,40=1/2;
 3/5=44,7=101,8=11,11=2,16=1,24=100,25=1,30=1,71=1,74=-58,75=-5/1,2,3;
 4//1;
 5/5=2,7=380,38=5/2;
 6/7=2,8=2,9=2,10=2,28=1/1;
 7//1,2,3,16;
 1/7=10,14=-1,18=20,19=15,26=4/3(2);
 2/9=110/2;
 99//99;
 2/9=110/2;
 3/5=44,7=101,8=11,11=2,16=1,25=1,30=1,71=1,74=-58,75=-5/1,2,3;
 4/5=5,16=3,69=1/1;
 5/5=2,7=380,38=5/2;
 7//1,2,3,16;
 1/7=10,14=-1,18=20,19=15,26=4/3(-5);
 2/9=110/2;
 6/7=2,8=2,9=2,10=2,19=2,28=1/1;
 99/9=1/99;
 Leave Link    1 at Fri Jul  9 19:19:35 2021, MaxMem=  4194304000 cpu:         0.8
 (Enter /home/minenky/programs//g09/l101.exe)
 ---------------------------------------
 The PBEPBE optimization and frequencies
 ---------------------------------------
 Symbolic Z-matrix:
 Charge =  0 Multiplicity = 1
 C                    -1.85081   0.01504  -0.27909 
 C                    -0.71902  -0.29121   0.34178 
 C                     0.53743   0.52293   0.30397 
 H                    -1.94482   0.9199   -0.86957 
 H                    -2.72381  -0.62225  -0.21962 
 H                    -0.66782  -1.2114    0.92015 
 H                     0.79572   0.83146   1.32327 
 H                     0.36246   1.43864  -0.26659 
 C                     1.71912  -0.24896  -0.29251 
 H                     2.62891   0.35377  -0.27766 
 H                     1.51444  -0.53303  -1.32622 
 H                     1.9146   -1.16388   0.27132 
 
 NAtoms=     12 NQM=       12 NQMF=       0 NMMI=      0 NMMIF=      0
                NMic=       0 NMicF=      0.
                    Isotopes and Nuclear Properties:
 (Nuclear quadrupole moments (NQMom) in fm**2, nuclear magnetic moments (NMagM)
  in nuclear magnetons)

  Atom         1           2           3           4           5           6           7           8           9          10
 IAtWgt=          12          12          12           1           1           1           1           1          12           1
 AtmWgt=  12.0000000  12.0000000  12.0000000   1.0078250   1.0078250   1.0078250   1.0078250   1.0078250  12.0000000   1.0078250
 NucSpn=           0           0           0           1           1           1           1           1           0           1
 AtZEff=   0.0000000   0.0000000   0.0000000   0.0000000   0.0000000   0.0000000   0.0000000   0.0000000   0.0000000   0.0000000
 NQMom=    0.0000000   0.0000000   0.0000000   0.0000000   0.0000000   0.0000000   0.0000000   0.0000000   0.0000000   0.0000000
 NMagM=    0.0000000   0.0000000   0.0000000   2.7928460   2.7928460   2.7928460   2.7928460   2.7928460   0.0000000   2.7928460
 AtZNuc=   6.0000000   6.0000000   6.0000000   1.0000000   1.0000000   1.0000000   1.0000000   1.0000000   6.0000000   1.0000000

  Atom        11          12
 IAtWgt=           1           1
 AtmWgt=   1.0078250   1.0078250
 NucSpn=           1           1
 AtZEff=   0.0000000   0.0000000
 NQMom=    0.0000000   0.0000000
 NMagM=    2.7928460   2.7928460
 AtZNuc=   1.0000000   1.0000000
 Leave Link  101 at Fri Jul  9 19:19:35 2021, MaxMem=  4194304000 cpu:         1.6
 (Enter /home/minenky/programs//g09/l103.exe)

 GradGradGradGradGradGradGradGradGradGradGradGradGradGradGradGradGradGrad
 Berny optimization.
 Initialization pass.
                           ----------------------------
                           !    Initial Parameters    !
                           ! (Angstroms and Degrees)  !
 --------------------------                            --------------------------
 ! Name  Definition              Value          Derivative Info.                !
 --------------------------------------------------------------------------------
 ! R1    R(1,2)                  1.3267         estimate D2E/DX2                !
 ! R2    R(1,4)                  1.0846         estimate D2E/DX2                !
 ! R3    R(1,5)                  1.0825         estimate D2E/DX2                !
 ! R4    R(2,3)                  1.4976         estimate D2E/DX2                !
 ! R5    R(2,6)                  1.0881         estimate D2E/DX2                !
 ! R6    R(3,7)                  1.0958         estimate D2E/DX2                !
 ! R7    R(3,8)                  1.093          estimate D2E/DX2                !
 ! R8    R(3,9)                  1.5323         estimate D2E/DX2                !
 ! R9    R(9,10)                 1.0914         estimate D2E/DX2                !
 ! R10   R(9,11)                 1.0914         estimate D2E/DX2                !
 ! R11   R(9,12)                 1.0923         estimate D2E/DX2                !
 ! A1    A(2,1,4)              121.4196         estimate D2E/DX2                !
 ! A2    A(2,1,5)              121.7607         estimate D2E/DX2                !
 ! A3    A(4,1,5)              116.8195         estimate D2E/DX2                !
 ! A4    A(1,2,3)              125.3373         estimate D2E/DX2                !
 ! A5    A(1,2,6)              118.9541         estimate D2E/DX2                !
 ! A6    A(3,2,6)              115.7017         estimate D2E/DX2                !
 ! A7    A(2,3,7)              109.1057         estimate D2E/DX2                !
 ! A8    A(2,3,8)              109.5309         estimate D2E/DX2                !
 ! A9    A(2,3,9)              112.5174         estimate D2E/DX2                !
 ! A10   A(7,3,8)              106.7026         estimate D2E/DX2                !
 ! A11   A(7,3,9)              108.7921         estimate D2E/DX2                !
 ! A12   A(8,3,9)              110.0155         estimate D2E/DX2                !
 ! A13   A(3,9,10)             111.0608         estimate D2E/DX2                !
 ! A14   A(3,9,11)             110.8046         estimate D2E/DX2                !
 ! A15   A(3,9,12)             111.0392         estimate D2E/DX2                !
 ! A16   A(10,9,11)            108.2369         estimate D2E/DX2                !
 ! A17   A(10,9,12)            107.8391         estimate D2E/DX2                !
 ! A18   A(11,9,12)            107.7246         estimate D2E/DX2                !
 ! D1    D(4,1,2,3)             -0.7527         estimate D2E/DX2                !
 ! D2    D(4,1,2,6)           -179.7505         estimate D2E/DX2                !
 ! D3    D(5,1,2,3)            179.4025         estimate D2E/DX2                !
 ! D4    D(5,1,2,6)              0.4047         estimate D2E/DX2                !
 ! D5    D(1,2,3,7)            119.7111         estimate D2E/DX2                !
 ! D6    D(1,2,3,8)              3.2492         estimate D2E/DX2                !
 ! D7    D(1,2,3,9)           -119.4482         estimate D2E/DX2                !
 ! D8    D(6,2,3,7)            -61.262          estimate D2E/DX2                !
 ! D9    D(6,2,3,8)           -177.7239         estimate D2E/DX2                !
 ! D10   D(6,2,3,9)             59.5787         estimate D2E/DX2                !
 ! D11   D(2,3,9,10)          -178.0822         estimate D2E/DX2                !
 ! D12   D(2,3,9,11)            61.583          estimate D2E/DX2                !
 ! D13   D(2,3,9,12)           -58.0926         estimate D2E/DX2                !
 ! D14   D(7,3,9,10)           -57.0618         estimate D2E/DX2                !
 ! D15   D(7,3,9,11)          -177.3966         estimate D2E/DX2                !
 ! D16   D(7,3,9,12)            62.9278         estimate D2E/DX2                !
 ! D17   D(8,3,9,10)            59.4932         estimate D2E/DX2                !
 ! D18   D(8,3,9,11)           -60.8416         estimate D2E/DX2                !
 ! D19   D(8,3,9,12)           179.4828         estimate D2E/DX2                !
 --------------------------------------------------------------------------------
 Trust Radius=3.00D-01 FncErr=1.00D-07 GrdErr=1.00D-06
 Number of steps in this run=     58 maximum allowed number of steps=    100.
 GradGradGradGradGradGradGradGradGradGradGradGradGradGradGradGradGradGrad

 Leave Link  103 at Fri Jul  9 19:19:35 2021, MaxMem=  4194304000 cpu:         0.0
 (Enter /home/minenky/programs//g09/l202.exe)
                          Input orientation:                          
 ---------------------------------------------------------------------
 Center     Atomic      Atomic             Coordinates (Angstroms)
 Number     Number       Type             X           Y           Z
 ---------------------------------------------------------------------
      1          6           0       -1.850809    0.015036   -0.279085
      2          6           0       -0.719018   -0.291212    0.341775
      3          6           0        0.537428    0.522933    0.303971
      4          1           0       -1.944815    0.919900   -0.869566
      5          1           0       -2.723806   -0.622250   -0.219619
      6          1           0       -0.667818   -1.211402    0.920150
      7          1           0        0.795716    0.831457    1.323265
      8          1           0        0.362462    1.438636   -0.266586
      9          6           0        1.719117   -0.248957   -0.292508
     10          1           0        2.628909    0.353770   -0.277662
     11          1           0        1.514441   -0.533026   -1.326216
     12          1           0        1.914601   -1.163878    0.271322
 ---------------------------------------------------------------------
                    Distance matrix (angstroms):
                    1          2          3          4          5
     1  C    0.000000
     2  C    1.326727   0.000000
     3  C    2.510297   1.497637   0.000000
     4  H    1.084566   2.106352   2.774221   0.000000
     5  H    1.082494   2.108062   3.495889   1.845937   0.000000
     6  H    2.083694   1.088067   2.200048   3.062067   2.423481
     7  H    3.199713   2.125589   1.095838   3.510960   4.108624
     8  H    2.631608   2.128867   1.093005   2.440533   3.711402
     9  C    3.579699   2.519643   1.532315   3.888910   4.459173
    10  H    4.492507   3.465302   2.177431   4.646483   5.441281
    11  H    3.566758   2.798036   2.174193   3.779679   4.381239
    12  H    3.983855   2.775330   2.177844   4.531981   4.695658
                    6          7          8          9         10
     6  H    0.000000
     7  H    2.545134   0.000000
     8  H    3.080993   1.756133   0.000000
     9  C    2.845048   2.151903   2.165446   0.000000
    10  H    3.840954   2.480272   2.512735   1.091431   0.000000
    11  H    3.204467   3.065637   2.517404   1.091393   1.768590
    12  H    2.663104   2.517906   3.077590   1.092336   1.764901
                   11         12
    11  H    0.000000
    12  H    1.763584   0.000000
 Stoichiometry    C4H8
 Framework group  C1[X(C4H8)]
 Deg. of freedom    30
 Full point group                 C1      NOp   1
 Largest Abelian subgroup         C1      NOp   1
 Largest concise Abelian subgroup C1      NOp   1
                         Standard orientation:                         
 ---------------------------------------------------------------------
 Center     Atomic      Atomic             Coordinates (Angstroms)
 Number     Number       Type             X           Y           Z
 ---------------------------------------------------------------------
      1          6           0       -1.850809    0.015036   -0.279085
      2          6           0       -0.719018   -0.291212    0.341775
      3          6           0        0.537428    0.522933    0.303971
      4          1           0       -1.944815    0.919900   -0.869566
      5          1           0       -2.723806   -0.622250   -0.219619
      6          1           0       -0.667818   -1.211402    0.920150
      7          1           0        0.795716    0.831457    1.323265
      8          1           0        0.362462    1.438636   -0.266586
      9          6           0        1.719117   -0.248957   -0.292508
     10          1           0        2.628909    0.353770   -0.277662
     11          1           0        1.514441   -0.533026   -1.326216
     12          1           0        1.914601   -1.163878    0.271322
 ---------------------------------------------------------------------
 Rotational constants (GHZ):     22.7450878      4.1652402      4.0688429
 Leave Link  202 at Fri Jul  9 19:19:36 2021, MaxMem=  4194304000 cpu:         1.4
 (Enter /home/minenky/programs//g09/l301.exe)
 Standard basis: def2TZVP (5D, 7F)
 ======================================================================================================
                                       Pseudopotential Parameters
 ======================================================================================================
  Center     Atomic      Valence      Angular      Power
  Number     Number     Electrons     Momentum     of R      Exponent        Coefficient   SO-Coeffient
 ======================================================================================================
    1          6
                                   No pseudopotential on this center.
    2          6
                                   No pseudopotential on this center.
    3          6
                                   No pseudopotential on this center.
    4          1
                                   No pseudopotential on this center.
    5          1
                                   No pseudopotential on this center.
    6          1
                                   No pseudopotential on this center.
    7          1
                                   No pseudopotential on this center.
    8          1
                                   No pseudopotential on this center.
    9          6
                                   No pseudopotential on this center.
   10          1
                                   No pseudopotential on this center.
   11          1
                                   No pseudopotential on this center.
   12          1
                                   No pseudopotential on this center.
 ======================================================================================================
 Ernie: Thresh=  0.10000D-02 Tol=  0.10000D-05 Strict=F.
 AO basis set (Overlap normalization):
 Atom C1       Shell     1 S   6     bf    1 -     1         -3.497522017403          0.028413357174         -0.527394572120
      0.1357534968D+05  0.6064550360D-03
      0.2035233368D+04  0.4697908888D-02
      0.4632256236D+03  0.2433247765D-01
      0.1312001960D+03  0.9739996831D-01
      0.4285301589D+02  0.3019558425D+00
      0.1558418577D+02  0.6623360914D+00
 Atom C1       Shell     2 S   2     bf    2 -     2         -3.497522017403          0.028413357174         -0.527394572120
      0.6206713851D+01  0.6559530854D+00
      0.2576489653D+01  0.3758563329D+00
 Atom C1       Shell     3 S   1     bf    3 -     3         -3.497522017403          0.028413357174         -0.527394572120
      0.5769633942D+00  0.1000000000D+01
 Atom C1       Shell     4 S   1     bf    4 -     4         -3.497522017403          0.028413357174         -0.527394572120
      0.2297283136D+00  0.1000000000D+01
 Atom C1       Shell     5 S   1     bf    5 -     5         -3.497522017403          0.028413357174         -0.527394572120
      0.9516444003D-01  0.1000000000D+01
 Atom C1       Shell     6 P   4     bf    6 -     8         -3.497522017403          0.028413357174         -0.527394572120
      0.3469723224D+02  0.1132722000D-01
      0.7958262283D+01  0.7616965920D-01
      0.2378082688D+01  0.3019225220D+00
      0.8143320818D+00  0.7278502735D+00
 Atom C1       Shell     7 P   1     bf    9 -    11         -3.497522017403          0.028413357174         -0.527394572120
      0.2888754725D+00  0.1000000000D+01
 Atom C1       Shell     8 P   1     bf   12 -    14         -3.497522017403          0.028413357174         -0.527394572120
      0.1005682367D+00  0.1000000000D+01
 Atom C1       Shell     9 D   1     bf   15 -    19         -3.497522017403          0.028413357174         -0.527394572120
      0.1097000000D+01  0.1000000000D+01
 Atom C1       Shell    10 D   1     bf   20 -    24         -3.497522017403          0.028413357174         -0.527394572120
      0.3180000000D+00  0.1000000000D+01
 Atom C1       Shell    11 F   1     bf   25 -    31         -3.497522017403          0.028413357174         -0.527394572120
      0.7610000000D+00  0.1000000000D+01
 Atom C2       Shell    12 S   6     bf   32 -    32         -1.358746962657         -0.550311398875          0.645860794743
      0.1357534968D+05  0.6064550360D-03
      0.2035233368D+04  0.4697908888D-02
      0.4632256236D+03  0.2433247765D-01
      0.1312001960D+03  0.9739996831D-01
      0.4285301589D+02  0.3019558425D+00
      0.1558418577D+02  0.6623360914D+00
 Atom C2       Shell    13 S   2     bf   33 -    33         -1.358746962657         -0.550311398875          0.645860794743
      0.6206713851D+01  0.6559530854D+00
      0.2576489653D+01  0.3758563329D+00
 Atom C2       Shell    14 S   1     bf   34 -    34         -1.358746962657         -0.550311398875          0.645860794743
      0.5769633942D+00  0.1000000000D+01
 Atom C2       Shell    15 S   1     bf   35 -    35         -1.358746962657         -0.550311398875          0.645860794743
      0.2297283136D+00  0.1000000000D+01
 Atom C2       Shell    16 S   1     bf   36 -    36         -1.358746962657         -0.550311398875          0.645860794743
      0.9516444003D-01  0.1000000000D+01
 Atom C2       Shell    17 P   4     bf   37 -    39         -1.358746962657         -0.550311398875          0.645860794743
      0.3469723224D+02  0.1132722000D-01
      0.7958262283D+01  0.7616965920D-01
      0.2378082688D+01  0.3019225220D+00
      0.8143320818D+00  0.7278502735D+00
 Atom C2       Shell    18 P   1     bf   40 -    42         -1.358746962657         -0.550311398875          0.645860794743
      0.2888754725D+00  0.1000000000D+01
 Atom C2       Shell    19 P   1     bf   43 -    45         -1.358746962657         -0.550311398875          0.645860794743
      0.1005682367D+00  0.1000000000D+01
 Atom C2       Shell    20 D   1     bf   46 -    50         -1.358746962657         -0.550311398875          0.645860794743
      0.1097000000D+01  0.1000000000D+01
 Atom C2       Shell    21 D   1     bf   51 -    55         -1.358746962657         -0.550311398875          0.645860794743
      0.3180000000D+00  0.1000000000D+01
 Atom C2       Shell    22 F   1     bf   56 -    62         -1.358746962657         -0.550311398875          0.645860794743
      0.7610000000D+00  0.1000000000D+01
 Atom C3       Shell    23 S   6     bf   63 -    63          1.015591811424          0.988199786486          0.574421588016
      0.1357534968D+05  0.6064550360D-03
      0.2035233368D+04  0.4697908888D-02
      0.4632256236D+03  0.2433247765D-01
      0.1312001960D+03  0.9739996831D-01
      0.4285301589D+02  0.3019558425D+00
      0.1558418577D+02  0.6623360914D+00
 Atom C3       Shell    24 S   2     bf   64 -    64          1.015591811424          0.988199786486          0.574421588016
      0.6206713851D+01  0.6559530854D+00
      0.2576489653D+01  0.3758563329D+00
 Atom C3       Shell    25 S   1     bf   65 -    65          1.015591811424          0.988199786486          0.574421588016
      0.5769633942D+00  0.1000000000D+01
 Atom C3       Shell    26 S   1     bf   66 -    66          1.015591811424          0.988199786486          0.574421588016
      0.2297283136D+00  0.1000000000D+01
 Atom C3       Shell    27 S   1     bf   67 -    67          1.015591811424          0.988199786486          0.574421588016
      0.9516444003D-01  0.1000000000D+01
 Atom C3       Shell    28 P   4     bf   68 -    70          1.015591811424          0.988199786486          0.574421588016
      0.3469723224D+02  0.1132722000D-01
      0.7958262283D+01  0.7616965920D-01
      0.2378082688D+01  0.3019225220D+00
      0.8143320818D+00  0.7278502735D+00
 Atom C3       Shell    29 P   1     bf   71 -    73          1.015591811424          0.988199786486          0.574421588016
      0.2888754725D+00  0.1000000000D+01
 Atom C3       Shell    30 P   1     bf   74 -    76          1.015591811424          0.988199786486          0.574421588016
      0.1005682367D+00  0.1000000000D+01
 Atom C3       Shell    31 D   1     bf   77 -    81          1.015591811424          0.988199786486          0.574421588016
      0.1097000000D+01  0.1000000000D+01
 Atom C3       Shell    32 D   1     bf   82 -    86          1.015591811424          0.988199786486          0.574421588016
      0.3180000000D+00  0.1000000000D+01
 Atom C3       Shell    33 F   1     bf   87 -    93          1.015591811424          0.988199786486          0.574421588016
      0.7610000000D+00  0.1000000000D+01
 Atom H4       Shell    34 S   3     bf   94 -    94         -3.675167686360          1.738358496983         -1.643241948792
      0.3406134100D+02  0.2543930721D-01
      0.5123574600D+01  0.1900859489D+00
      0.1164662600D+01  0.8524411301D+00
 Atom H4       Shell    35 S   1     bf   95 -    95         -3.675167686360          1.738358496983         -1.643241948792
      0.3272304100D+00  0.1000000000D+01
 Atom H4       Shell    36 S   1     bf   96 -    96         -3.675167686360          1.738358496983         -1.643241948792
      0.1030724100D+00  0.1000000000D+01
 Atom H4       Shell    37 P   1     bf   97 -    99         -3.675167686360          1.738358496983         -1.643241948792
      0.8000000000D+00  0.1000000000D+01
 Atom H5       Shell    38 S   3     bf  100 -   100         -5.147247210040         -1.175882722647         -0.415020117902
      0.3406134100D+02  0.2543930721D-01
      0.5123574600D+01  0.1900859489D+00
      0.1164662600D+01  0.8524411301D+00
 Atom H5       Shell    39 S   1     bf  101 -   101         -5.147247210040         -1.175882722647         -0.415020117902
      0.3272304100D+00  0.1000000000D+01
 Atom H5       Shell    40 S   1     bf  102 -   102         -5.147247210040         -1.175882722647         -0.415020117902
      0.1030724100D+00  0.1000000000D+01
 Atom H5       Shell    41 P   1     bf  103 -   105         -5.147247210040         -1.175882722647         -0.415020117902
      0.8000000000D+00  0.1000000000D+01
 Atom H6       Shell    42 S   3     bf  106 -   106         -1.261992909289         -2.289218484902          1.738831146851
      0.3406134100D+02  0.2543930721D-01
      0.5123574600D+01  0.1900859489D+00
      0.1164662600D+01  0.8524411301D+00
 Atom H6       Shell    43 S   1     bf  107 -   107         -1.261992909289         -2.289218484902          1.738831146851
      0.3272304100D+00  0.1000000000D+01
 Atom H6       Shell    44 S   1     bf  108 -   108         -1.261992909289         -2.289218484902          1.738831146851
      0.1030724100D+00  0.1000000000D+01
 Atom H6       Shell    45 P   1     bf  109 -   111         -1.261992909289         -2.289218484902          1.738831146851
      0.8000000000D+00  0.1000000000D+01
 Atom H7       Shell    46 S   3     bf  112 -   112          1.503685369566          1.571225673063          2.500608096909
      0.3406134100D+02  0.2543930721D-01
      0.5123574600D+01  0.1900859489D+00
      0.1164662600D+01  0.8524411301D+00
 Atom H7       Shell    47 S   1     bf  113 -   113          1.503685369566          1.571225673063          2.500608096909
      0.3272304100D+00  0.1000000000D+01
 Atom H7       Shell    48 S   1     bf  114 -   114          1.503685369566          1.571225673063          2.500608096909
      0.1030724100D+00  0.1000000000D+01
 Atom H7       Shell    49 P   1     bf  115 -   117          1.503685369566          1.571225673063          2.500608096909
      0.8000000000D+00  0.1000000000D+01
 Atom H8       Shell    50 S   3     bf  118 -   118          0.684953913861          2.718627661218         -0.503774885185
      0.3406134100D+02  0.2543930721D-01
      0.5123574600D+01  0.1900859489D+00
      0.1164662600D+01  0.8524411301D+00
 Atom H8       Shell    51 S   1     bf  119 -   119          0.684953913861          2.718627661218         -0.503774885185
      0.3272304100D+00  0.1000000000D+01
 Atom H8       Shell    52 S   1     bf  120 -   120          0.684953913861          2.718627661218         -0.503774885185
      0.1030724100D+00  0.1000000000D+01
 Atom H8       Shell    53 P   1     bf  121 -   123          0.684953913861          2.718627661218         -0.503774885185
      0.8000000000D+00  0.1000000000D+01
 Atom C9       Shell    54 S   6     bf  124 -   124          3.248660458886         -0.470460821446         -0.552760366002
      0.1357534968D+05  0.6064550360D-03
      0.2035233368D+04  0.4697908888D-02
      0.4632256236D+03  0.2433247765D-01
      0.1312001960D+03  0.9739996831D-01
      0.4285301589D+02  0.3019558425D+00
      0.1558418577D+02  0.6623360914D+00
 Atom C9       Shell    55 S   2     bf  125 -   125          3.248660458886         -0.470460821446         -0.552760366002
      0.6206713851D+01  0.6559530854D+00
      0.2576489653D+01  0.3758563329D+00
 Atom C9       Shell    56 S   1     bf  126 -   126          3.248660458886         -0.470460821446         -0.552760366002
      0.5769633942D+00  0.1000000000D+01
 Atom C9       Shell    57 S   1     bf  127 -   127          3.248660458886         -0.470460821446         -0.552760366002
      0.2297283136D+00  0.1000000000D+01
 Atom C9       Shell    58 S   1     bf  128 -   128          3.248660458886         -0.470460821446         -0.552760366002
      0.9516444003D-01  0.1000000000D+01
 Atom C9       Shell    59 P   4     bf  129 -   131          3.248660458886         -0.470460821446         -0.552760366002
      0.3469723224D+02  0.1132722000D-01
      0.7958262283D+01  0.7616965920D-01
      0.2378082688D+01  0.3019225220D+00
      0.8143320818D+00  0.7278502735D+00
 Atom C9       Shell    60 P   1     bf  132 -   134          3.248660458886         -0.470460821446         -0.552760366002
      0.2888754725D+00  0.1000000000D+01
 Atom C9       Shell    61 P   1     bf  135 -   137          3.248660458886         -0.470460821446         -0.552760366002
      0.1005682367D+00  0.1000000000D+01
 Atom C9       Shell    62 D   1     bf  138 -   142          3.248660458886         -0.470460821446         -0.552760366002
      0.1097000000D+01  0.1000000000D+01
 Atom C9       Shell    63 D   1     bf  143 -   147          3.248660458886         -0.470460821446         -0.552760366002
      0.3180000000D+00  0.1000000000D+01
 Atom C9       Shell    64 F   1     bf  148 -   154          3.248660458886         -0.470460821446         -0.552760366002
      0.7610000000D+00  0.1000000000D+01
 Atom H10      Shell    65 S   3     bf  155 -   155          4.967918127412          0.668528215962         -0.524705491833
      0.3406134100D+02  0.2543930721D-01
      0.5123574600D+01  0.1900859489D+00
      0.1164662600D+01  0.8524411301D+00
 Atom H10      Shell    66 S   1     bf  156 -   156          4.967918127412          0.668528215962         -0.524705491833
      0.3272304100D+00  0.1000000000D+01
 Atom H10      Shell    67 S   1     bf  157 -   157          4.967918127412          0.668528215962         -0.524705491833
      0.1030724100D+00  0.1000000000D+01
 Atom H10      Shell    68 P   1     bf  158 -   160          4.967918127412          0.668528215962         -0.524705491833
      0.8000000000D+00  0.1000000000D+01
 Atom H11      Shell    69 S   3     bf  161 -   161          2.861878896176         -1.007273451052         -2.506185387375
      0.3406134100D+02  0.2543930721D-01
      0.5123574600D+01  0.1900859489D+00
      0.1164662600D+01  0.8524411301D+00
 Atom H11      Shell    70 S   1     bf  162 -   162          2.861878896176         -1.007273451052         -2.506185387375
      0.3272304100D+00  0.1000000000D+01
 Atom H11      Shell    71 S   1     bf  163 -   163          2.861878896176         -1.007273451052         -2.506185387375
      0.1030724100D+00  0.1000000000D+01
 Atom H11      Shell    72 P   1     bf  164 -   166          2.861878896176         -1.007273451052         -2.506185387375
      0.8000000000D+00  0.1000000000D+01
 Atom H12      Shell    73 S   3     bf  167 -   167          3.618071757179         -2.199410928661          0.512723919503
      0.3406134100D+02  0.2543930721D-01
      0.5123574600D+01  0.1900859489D+00
      0.1164662600D+01  0.8524411301D+00
 Atom H12      Shell    74 S   1     bf  168 -   168          3.618071757179         -2.199410928661          0.512723919503
      0.3272304100D+00  0.1000000000D+01
 Atom H12      Shell    75 S   1     bf  169 -   169          3.618071757179         -2.199410928661          0.512723919503
      0.1030724100D+00  0.1000000000D+01
 Atom H12      Shell    76 P   1     bf  170 -   172          3.618071757179         -2.199410928661          0.512723919503
      0.8000000000D+00  0.1000000000D+01
 There are   192 symmetry adapted cartesian basis functions of A   symmetry.
 There are   172 symmetry adapted basis functions of A   symmetry.
   172 basis functions,   268 primitive gaussians,   192 cartesian basis functions
    16 alpha electrons       16 beta electrons
       nuclear repulsion energy       117.3463802672 Hartrees.
 IExCor= 4639 DFT=T Ex+Corr=wB97XD ExCW=0 ScaHFX=  1.000000
 ScaDFX=  1.000000  1.000000  1.000000  1.000000 ScalE2=  1.000000  1.000000
 IRadAn=      5 IRanWt=     -1 IRanGd=            0 ICorTp=0 IEmpDi=121
  HFx wShort=  0.000000 wLong=  0.200000 cFull=  0.222036 cShort=  0.000000 cLong=  0.777964
  DFx wShort=  0.000000 wLong=  0.200000 cFull=  0.000000 cShort=  0.000000 cLong=  1.000000
 NAtoms=   12 NActive=   12 NUniq=   12 SFac= 1.00D+00 NAtFMM=   60 NAOKFM=F Big=F
 Integral buffers will be    131072 words long.
 Raffenetti 2 integral format.
 Two-electron integral symmetry is turned on.
 R6Disp:  Grimme-D2 Dispersion energy=       -0.0044513467 Hartrees.
 Nuclear repulsion after empirical dispersion term =      117.3419289205 Hartrees.
 Leave Link  301 at Fri Jul  9 19:19:36 2021, MaxMem=  4194304000 cpu:         0.2
 (Enter /home/minenky/programs//g09/l302.exe)
 NPDir=0 NMtPBC=     1 NCelOv=     1 NCel=       1 NClECP=     1 NCelD=      1
         NCelK=      1 NCelE2=     1 NClLst=     1 CellRange=     0.0.
 One-electron integrals computed using PRISM.
   1 Symmetry operations used in ECPInt.
 ECPInt:  NShTT=    2926 NPrTT=    8368 LenC2=    2912 LenP2D=    7180.
 LDataN:  DoStor=T MaxTD1= 6 Len=  172
 NBasis=   172 RedAO= T EigKep=  1.68D-04  NBF=   172
 NBsUse=   172 1.00D-06 EigRej= -1.00D+00 NBFU=   172
 Precomputing XC quadrature grid using
 IXCGrd= 4 IRadAn=           5 IRanWt=          -1 IRanGd=           0 AccXCQ= 0.00D+00.
 Generated NRdTot=       0 NPtTot=           0 NUsed=           0 NTot=          32
 NSgBfM=   192   192   192   192   192 MxSgAt=    12 MxSgA2=    12.
 Leave Link  302 at Fri Jul  9 19:19:37 2021, MaxMem=  4194304000 cpu:        13.6
 (Enter /home/minenky/programs//g09/l303.exe)
 DipDrv:  MaxL=1.
 Leave Link  303 at Fri Jul  9 19:19:37 2021, MaxMem=  4194304000 cpu:         1.6
 (Enter /home/minenky/programs//g09/l401.exe)
 ExpMin= 9.52D-02 ExpMax= 1.36D+04 ExpMxC= 4.63D+02 IAcc=3 IRadAn=         5 AccDes= 0.00D+00
 Harris functional with IExCor= 4639 and IRadAn=       5 diagonalized for initial guess.
 HarFok:  IExCor= 4639 AccDes= 0.00D+00 IRadAn=         5 IDoV= 1 UseB2=F ITyADJ=14
 ICtDFT=  3500011 ScaDFX=  1.000000  1.000000  1.000000  1.000000
 FoFCou: FMM=F IPFlag=           0 FMFlag=      100000 FMFlg1=           0
         NFxFlg=           0 DoJE=T BraDBF=F KetDBF=T FulRan=T
         wScrn=  0.000000 ICntrl=     500 IOpCl=  0 I1Cent=   200000004 NGrid=           0
         NMat0=    1 NMatS0=      1 NMatT0=    0 NMatD0=    1 NMtDS0=    0 NMtDT0=    0
 Petite list used in FoFCou.
 Harris En= -149.423942912400    
 JPrj=0 DoOrth=F DoCkMO=F.
 Leave Link  401 at Fri Jul  9 19:19:38 2021, MaxMem=  4194304000 cpu:        13.5
 (Enter /home/minenky/programs//g09/l502.exe)
 Closed shell SCF:
 Using DIIS extrapolation, IDIIS=  1040.
 Integral symmetry usage will be decided dynamically.
 Keep R1 ints in memory in canonical form, NReq=225227108.
 IVT=      262914 IEndB=      262914 NGot=  4194304000 MDV=  3972671325
 LenX=  3972671325 LenY=  3972634020
 Requested convergence on RMS density matrix=1.00D-08 within 380 cycles.
 Requested convergence on MAX density matrix=1.00D-06.
 Requested convergence on             energy=1.00D-06.
 No special actions if energy rises.
 FoFCou: FMM=F IPFlag=           0 FMFlag=           0 FMFlg1=           0
         NFxFlg=           0 DoJE=F BraDBF=F KetDBF=F FulRan=T
         wScrn=  0.000000 ICntrl=     600 IOpCl=  0 I1Cent=           0 NGrid=           0
         NMat0=    1 NMatS0=  14878 NMatT0=    0 NMatD0=    1 NMtDS0=    0 NMtDT0=    0
 Symmetry not used in FoFCou.
 Integral accuracy reduced to 1.0D-05 until final iterations.

 Cycle   1  Pass 0  IDiag  1:
 E= -157.172958009136    
 DIIS: error= 5.22D-02 at cycle   1 NSaved=   1.
 NSaved= 1 IEnMin= 1 EnMin= -157.172958009136     IErMin= 1 ErrMin= 5.22D-02
 ErrMax= 5.22D-02  0.00D+00 EMaxC= 1.00D-01 BMatC= 3.35D-01 BMatP= 3.35D-01
 IDIUse=3 WtCom= 4.78D-01 WtEn= 5.22D-01
 Coeff-Com:  0.100D+01
 Coeff-En:   0.100D+01
 Coeff:      0.100D+01
 Gap=     0.413 Goal=   None    Shift=    0.000
 GapD=    0.413 DampG=2.000 DampE=0.500 DampFc=1.0000 IDamp=-1.
 RMSDP=1.29D-03 MaxDP=3.52D-02              OVMax= 5.17D-02

 Cycle   2  Pass 0  IDiag  1:
 E= -157.215229561155     Delta-E=       -0.042271552020 Rises=F Damp=F
 DIIS: error= 8.24D-03 at cycle   2 NSaved=   2.
 NSaved= 2 IEnMin= 2 EnMin= -157.215229561155     IErMin= 2 ErrMin= 8.24D-03
 ErrMax= 8.24D-03  0.00D+00 EMaxC= 1.00D-01 BMatC= 1.09D-02 BMatP= 3.35D-01
 IDIUse=3 WtCom= 9.18D-01 WtEn= 8.24D-02
 Coeff-Com:  0.843D-01 0.916D+00
 Coeff-En:   0.000D+00 0.100D+01
 Coeff:      0.773D-01 0.923D+00
 Gap=     0.430 Goal=   None    Shift=    0.000
 RMSDP=6.46D-04 MaxDP=1.85D-02 DE=-4.23D-02 OVMax= 3.25D-02

 Cycle   3  Pass 0  IDiag  1:
 E= -157.221691383533     Delta-E=       -0.006461822378 Rises=F Damp=F
 DIIS: error= 5.27D-03 at cycle   3 NSaved=   3.
 NSaved= 3 IEnMin= 3 EnMin= -157.221691383533     IErMin= 3 ErrMin= 5.27D-03
 ErrMax= 5.27D-03  0.00D+00 EMaxC= 1.00D-01 BMatC= 4.32D-03 BMatP= 1.09D-02
 IDIUse=3 WtCom= 9.47D-01 WtEn= 5.27D-02
 Coeff-Com:  0.233D-01 0.393D+00 0.584D+00
 Coeff-En:   0.000D+00 0.222D+00 0.778D+00
 Coeff:      0.220D-01 0.384D+00 0.594D+00
 Gap=     0.421 Goal=   None    Shift=    0.000
 RMSDP=2.21D-04 MaxDP=6.76D-03 DE=-6.46D-03 OVMax= 1.31D-02

 Cycle   4  Pass 0  IDiag  1:
 E= -157.225711053841     Delta-E=       -0.004019670308 Rises=F Damp=F
 DIIS: error= 2.50D-04 at cycle   4 NSaved=   4.
 NSaved= 4 IEnMin= 4 EnMin= -157.225711053841     IErMin= 4 ErrMin= 2.50D-04
 ErrMax= 2.50D-04  0.00D+00 EMaxC= 1.00D-01 BMatC= 1.70D-05 BMatP= 4.32D-03
 IDIUse=3 WtCom= 9.98D-01 WtEn= 2.50D-03
 Coeff-Com:  0.264D-02 0.443D-01 0.932D-01 0.860D+00
 Coeff-En:   0.000D+00 0.000D+00 0.000D+00 0.100D+01
 Coeff:      0.264D-02 0.441D-01 0.930D-01 0.860D+00
 Gap=     0.420 Goal=   None    Shift=    0.000
 RMSDP=3.16D-05 MaxDP=6.40D-04 DE=-4.02D-03 OVMax= 1.56D-03

 Cycle   5  Pass 0  IDiag  1:
 E= -157.225724984071     Delta-E=       -0.000013930230 Rises=F Damp=F
 DIIS: error= 1.63D-04 at cycle   5 NSaved=   5.
 NSaved= 5 IEnMin= 5 EnMin= -157.225724984071     IErMin= 5 ErrMin= 1.63D-04
 ErrMax= 1.63D-04  0.00D+00 EMaxC= 1.00D-01 BMatC= 5.32D-06 BMatP= 1.70D-05
 IDIUse=3 WtCom= 9.98D-01 WtEn= 1.63D-03
 Coeff-Com: -0.194D-02-0.312D-01-0.335D-01 0.381D+00 0.686D+00
 Coeff-En:   0.000D+00 0.000D+00 0.000D+00 0.000D+00 0.100D+01
 Coeff:     -0.194D-02-0.312D-01-0.334D-01 0.380D+00 0.686D+00
 Gap=     0.420 Goal=   None    Shift=    0.000
 RMSDP=1.56D-05 MaxDP=3.26D-04 DE=-1.39D-05 OVMax= 1.23D-03

 Cycle   6  Pass 0  IDiag  1:
 E= -157.225730586263     Delta-E=       -0.000005602192 Rises=F Damp=F
 DIIS: error= 3.24D-05 at cycle   6 NSaved=   6.
 NSaved= 6 IEnMin= 6 EnMin= -157.225730586263     IErMin= 6 ErrMin= 3.24D-05
 ErrMax= 3.24D-05  0.00D+00 EMaxC= 1.00D-01 BMatC= 2.38D-07 BMatP= 5.32D-06
 IDIUse=1 WtCom= 1.00D+00 WtEn= 0.00D+00
 Coeff-Com: -0.808D-03-0.135D-01-0.170D-01 0.639D-01 0.226D+00 0.742D+00
 Coeff:     -0.808D-03-0.135D-01-0.170D-01 0.639D-01 0.226D+00 0.742D+00
 Gap=     0.420 Goal=   None    Shift=    0.000
 RMSDP=4.10D-06 MaxDP=8.37D-05 DE=-5.60D-06 OVMax= 1.46D-04

 Initial convergence to 1.0D-05 achieved.  Increase integral accuracy.
 Cycle   7  Pass 1  IDiag  1:
 E= -157.225764321397     Delta-E=       -0.000033735134 Rises=F Damp=F
 DIIS: error= 2.43D-05 at cycle   1 NSaved=   1.
 NSaved= 1 IEnMin= 1 EnMin= -157.225764321397     IErMin= 1 ErrMin= 2.43D-05
 ErrMax= 2.43D-05  0.00D+00 EMaxC= 1.00D-01 BMatC= 2.05D-07 BMatP= 2.05D-07
 IDIUse=1 WtCom= 1.00D+00 WtEn= 0.00D+00
 Coeff-Com:  0.100D+01
 Coeff:      0.100D+01
 Gap=     0.420 Goal=   None    Shift=    0.000
 RMSDP=4.10D-06 MaxDP=8.37D-05 DE=-3.37D-05 OVMax= 1.37D-04

 Cycle   8  Pass 1  IDiag  1:
 E= -157.225764450554     Delta-E=       -0.000000129156 Rises=F Damp=F
 DIIS: error= 8.87D-06 at cycle   2 NSaved=   2.
 NSaved= 2 IEnMin= 2 EnMin= -157.225764450554     IErMin= 2 ErrMin= 8.87D-06
 ErrMax= 8.87D-06  0.00D+00 EMaxC= 1.00D-01 BMatC= 2.07D-08 BMatP= 2.05D-07
 IDIUse=1 WtCom= 1.00D+00 WtEn= 0.00D+00
 Coeff-Com:  0.106D+00 0.894D+00
 Coeff:      0.106D+00 0.894D+00
 Gap=     0.421 Goal=   None    Shift=    0.000
 RMSDP=9.53D-07 MaxDP=2.38D-05 DE=-1.29D-07 OVMax= 6.66D-05

 Cycle   9  Pass 1  IDiag  1:
 E= -157.225764460197     Delta-E=       -0.000000009643 Rises=F Damp=F
 DIIS: error= 5.61D-06 at cycle   3 NSaved=   3.
 NSaved= 3 IEnMin= 3 EnMin= -157.225764460197     IErMin= 3 ErrMin= 5.61D-06
 ErrMax= 5.61D-06  0.00D+00 EMaxC= 1.00D-01 BMatC= 1.10D-08 BMatP= 2.07D-08
 IDIUse=1 WtCom= 1.00D+00 WtEn= 0.00D+00
 Coeff-Com: -0.386D-01 0.421D+00 0.618D+00
 Coeff:     -0.386D-01 0.421D+00 0.618D+00
 Gap=     0.421 Goal=   None    Shift=    0.000
 RMSDP=3.70D-07 MaxDP=1.12D-05 DE=-9.64D-09 OVMax= 4.85D-05

 Cycle  10  Pass 1  IDiag  1:
 E= -157.225764470976     Delta-E=       -0.000000010779 Rises=F Damp=F
 DIIS: error= 1.03D-06 at cycle   4 NSaved=   4.
 NSaved= 4 IEnMin= 4 EnMin= -157.225764470976     IErMin= 4 ErrMin= 1.03D-06
 ErrMax= 1.03D-06  0.00D+00 EMaxC= 1.00D-01 BMatC= 2.49D-10 BMatP= 1.10D-08
 IDIUse=1 WtCom= 1.00D+00 WtEn= 0.00D+00
 Coeff-Com: -0.180D-01 0.146D+00 0.254D+00 0.618D+00
 Coeff:     -0.180D-01 0.146D+00 0.254D+00 0.618D+00
 Gap=     0.421 Goal=   None    Shift=    0.000
 RMSDP=8.70D-08 MaxDP=2.18D-06 DE=-1.08D-08 OVMax= 3.49D-06

 Cycle  11  Pass 1  IDiag  1:
 E= -157.225764471214     Delta-E=       -0.000000000237 Rises=F Damp=F
 DIIS: error= 3.21D-07 at cycle   5 NSaved=   5.
 NSaved= 5 IEnMin= 5 EnMin= -157.225764471214     IErMin= 5 ErrMin= 3.21D-07
 ErrMax= 3.21D-07  0.00D+00 EMaxC= 1.00D-01 BMatC= 1.44D-11 BMatP= 2.49D-10
 IDIUse=1 WtCom= 1.00D+00 WtEn= 0.00D+00
 Coeff-Com:  0.472D-02-0.615D-01-0.711D-01 0.719D-01 0.106D+01
 Coeff:      0.472D-02-0.615D-01-0.711D-01 0.719D-01 0.106D+01
 Gap=     0.421 Goal=   None    Shift=    0.000
 RMSDP=7.38D-08 MaxDP=1.05D-06 DE=-2.37D-10 OVMax= 4.78D-06

 Cycle  12  Pass 1  IDiag  1:
 E= -157.225764471252     Delta-E=       -0.000000000038 Rises=F Damp=F
 DIIS: error= 6.80D-08 at cycle   6 NSaved=   6.
 NSaved= 6 IEnMin= 6 EnMin= -157.225764471252     IErMin= 6 ErrMin= 6.80D-08
 ErrMax= 6.80D-08  0.00D+00 EMaxC= 1.00D-01 BMatC= 1.02D-12 BMatP= 1.44D-11
 IDIUse=1 WtCom= 1.00D+00 WtEn= 0.00D+00
 Coeff-Com:  0.128D-02-0.127D-01-0.171D-01-0.480D-01 0.125D+00 0.952D+00
 Coeff:      0.128D-02-0.127D-01-0.171D-01-0.480D-01 0.125D+00 0.952D+00
 Gap=     0.421 Goal=   None    Shift=    0.000
 RMSDP=1.47D-08 MaxDP=2.80D-07 DE=-3.84D-11 OVMax= 7.56D-07

 Cycle  13  Pass 1  IDiag  1:
 E= -157.225764471254     Delta-E=       -0.000000000002 Rises=F Damp=F
 DIIS: error= 1.84D-08 at cycle   7 NSaved=   7.
 NSaved= 7 IEnMin= 7 EnMin= -157.225764471254     IErMin= 7 ErrMin= 1.84D-08
 ErrMax= 1.84D-08  0.00D+00 EMaxC= 1.00D-01 BMatC= 7.52D-14 BMatP= 1.02D-12
 IDIUse=1 WtCom= 1.00D+00 WtEn= 0.00D+00
 Coeff-Com: -0.213D-04 0.132D-02 0.141D-02-0.200D-01-0.316D-01 0.210D+00
 Coeff-Com:  0.839D+00
 Coeff:     -0.213D-04 0.132D-02 0.141D-02-0.200D-01-0.316D-01 0.210D+00
 Coeff:      0.839D+00
 Gap=     0.421 Goal=   None    Shift=    0.000
 RMSDP=3.38D-09 MaxDP=6.62D-08 DE=-1.59D-12 OVMax= 1.82D-07

 SCF Done:  E(RwB97XD) =  -157.225764471     A.U. after   13 cycles
            NFock= 13  Conv=0.34D-08     -V/T= 2.0057
 KE= 1.563333372460D+02 PE=-5.983649468149D+02 EE= 1.674639161771D+02
 Leave Link  502 at Fri Jul  9 19:19:49 2021, MaxMem=  4194304000 cpu:       121.6
 (Enter /home/minenky/programs//g09/l601.exe)
 Copying SCF densities to generalized density rwf, IOpCl= 0 IROHF=0.

 **********************************************************************

            Population analysis using the SCF density.

 **********************************************************************

 Orbital symmetries:
       Occupied  (A) (A) (A) (A) (A) (A) (A) (A) (A) (A) (A) (A)
                 (A) (A) (A) (A)
       Virtual   (A) (A) (A) (A) (A) (A) (A) (A) (A) (A) (A) (A)
                 (A) (A) (A) (A) (A) (A) (A) (A) (A) (A) (A) (A)
                 (A) (A) (A) (A) (A) (A) (A) (A) (A) (A) (A) (A)
                 (A) (A) (A) (A) (A) (A) (A) (A) (A) (A) (A) (A)
                 (A) (A) (A) (A) (A) (A) (A) (A) (A) (A) (A) (A)
                 (A) (A) (A) (A) (A) (A) (A) (A) (A) (A) (A) (A)
                 (A) (A) (A) (A) (A) (A) (A) (A) (A) (A) (A) (A)
                 (A) (A) (A) (A) (A) (A) (A) (A) (A) (A) (A) (A)
                 (A) (A) (A) (A) (A) (A) (A) (A) (A) (A) (A) (A)
                 (A) (A) (A) (A) (A) (A) (A) (A) (A) (A) (A) (A)
                 (A) (A) (A) (A) (A) (A) (A) (A) (A) (A) (A) (A)
                 (A) (A) (A) (A) (A) (A) (A) (A) (A) (A) (A) (A)
                 (A) (A) (A) (A) (A) (A) (A) (A) (A) (A) (A) (A)
 The electronic state is 1-A.
 Alpha  occ. eigenvalues --  -10.28479 -10.28353 -10.27312 -10.27172  -0.90140
 Alpha  occ. eigenvalues --   -0.82692  -0.72258  -0.64521  -0.56002  -0.52935
 Alpha  occ. eigenvalues --   -0.51140  -0.46594  -0.45720  -0.42430  -0.41492
 Alpha  occ. eigenvalues --   -0.33945
 Alpha virt. eigenvalues --    0.08105   0.12338   0.14847   0.15625   0.17061
 Alpha virt. eigenvalues --    0.19457   0.19903   0.20380   0.21683   0.23062
 Alpha virt. eigenvalues --    0.26897   0.27846   0.29533   0.30817   0.32536
 Alpha virt. eigenvalues --    0.33705   0.35110   0.38194   0.40038   0.42798
 Alpha virt. eigenvalues --    0.43905   0.47893   0.48778   0.49831   0.50499
 Alpha virt. eigenvalues --    0.51356   0.53075   0.53742   0.54068   0.55589
 Alpha virt. eigenvalues --    0.58066   0.61517   0.66350   0.68192   0.68532
 Alpha virt. eigenvalues --    0.71493   0.75086   0.78001   0.84235   0.87237
 Alpha virt. eigenvalues --    0.92179   0.95743   0.99756   1.02273   1.03765
 Alpha virt. eigenvalues --    1.08574   1.11034   1.12268   1.16123   1.19122
 Alpha virt. eigenvalues --    1.19714   1.25744   1.29029   1.32156   1.33601
 Alpha virt. eigenvalues --    1.40257   1.52813   1.55879   1.57969   1.61539
 Alpha virt. eigenvalues --    1.62246   1.63399   1.64129   1.67054   1.68576
 Alpha virt. eigenvalues --    1.70086   1.76080   1.78735   1.80885   1.83778
 Alpha virt. eigenvalues --    1.88246   1.89163   1.92241   1.94057   1.97586
 Alpha virt. eigenvalues --    2.00731   2.04398   2.07411   2.16429   2.23759
 Alpha virt. eigenvalues --    2.27319   2.33811   2.36013   2.38449   2.39494
 Alpha virt. eigenvalues --    2.42426   2.46754   2.48286   2.49982   2.50493
 Alpha virt. eigenvalues --    2.57354   2.61247   2.63712   2.64597   2.67006
 Alpha virt. eigenvalues --    2.71147   2.72220   2.73562   2.75447   2.78186
 Alpha virt. eigenvalues --    2.82602   2.88258   2.91533   2.94693   2.96799
 Alpha virt. eigenvalues --    2.99561   3.05920   3.10592   3.12741   3.14407
 Alpha virt. eigenvalues --    3.15846   3.19021   3.20277   3.25251   3.27525
 Alpha virt. eigenvalues --    3.30385   3.31921   3.34333   3.36487   3.38278
 Alpha virt. eigenvalues --    3.41561   3.42489   3.48660   3.49407   3.55671
 Alpha virt. eigenvalues --    3.58077   3.60100   3.61941   3.66031   3.77705
 Alpha virt. eigenvalues --    3.78574   3.86193   3.92272   3.96966   3.99991
 Alpha virt. eigenvalues --    4.03999   4.09908   4.17132   4.20772   4.30347
 Alpha virt. eigenvalues --    4.39819   4.44449   4.55896   4.57106   4.60799
 Alpha virt. eigenvalues --    4.64233   4.66042   4.76658   4.82837   4.89241
 Alpha virt. eigenvalues --    4.98239   5.19042  22.20539  22.41384  22.55605
 Alpha virt. eigenvalues --   22.82373
          Condensed to atoms (all electrons):
               1          2          3          4          5          6
     1  C    4.885456   0.631902  -0.037228   0.414919   0.419154  -0.027880
     2  C    0.631902   5.000977   0.309747  -0.043984  -0.041390   0.399304
     3  C   -0.037228   0.309747   4.852355  -0.006883   0.006124  -0.043890
     4  H    0.414919  -0.043984  -0.006883   0.536473  -0.027430   0.005680
     5  H    0.419154  -0.041390   0.006124  -0.027430   0.527926  -0.007498
     6  H   -0.027880   0.399304  -0.043890   0.005680  -0.007498   0.554680
     7  H   -0.002576  -0.036860   0.422571   0.000251  -0.000376  -0.002679
     8  H    0.006757  -0.054046   0.418538   0.003502   0.000203   0.005414
     9  C   -0.002212  -0.044866   0.315603   0.000042  -0.000398   0.000204
    10  H   -0.000253   0.010947  -0.039822  -0.000013   0.000015  -0.000237
    11  H    0.000515  -0.000834  -0.033140   0.000168  -0.000075   0.000509
    12  H    0.002024  -0.003902  -0.039934   0.000011  -0.000002   0.001999
               7          8          9         10         11         12
     1  C   -0.002576   0.006757  -0.002212  -0.000253   0.000515   0.002024
     2  C   -0.036860  -0.054046  -0.044866   0.010947  -0.000834  -0.003902
     3  C    0.422571   0.418538   0.315603  -0.039822  -0.033140  -0.039934
     4  H    0.000251   0.003502   0.000042  -0.000013   0.000168   0.000011
     5  H   -0.000376   0.000203  -0.000398   0.000015  -0.000075  -0.000002
     6  H   -0.002679   0.005414   0.000204  -0.000237   0.000509   0.001999
     7  H    0.597690  -0.028464  -0.049187  -0.002864   0.007362  -0.004141
     8  H   -0.028464   0.587012  -0.029666  -0.004330  -0.004086   0.006182
     9  C   -0.049187  -0.029666   4.931979   0.408036   0.403875   0.412620
    10  H   -0.002864  -0.004330   0.408036   0.558163  -0.021483  -0.024313
    11  H    0.007362  -0.004086   0.403875  -0.021483   0.557313  -0.025892
    12  H   -0.004141   0.006182   0.412620  -0.024313  -0.025892   0.567285
 Mulliken charges:
               1
     1  C   -0.290579
     2  C   -0.126996
     3  C   -0.124042
     4  H    0.117265
     5  H    0.123748
     6  H    0.114394
     7  H    0.099273
     8  H    0.092985
     9  C   -0.346030
    10  H    0.116152
    11  H    0.115768
    12  H    0.108064
 Sum of Mulliken charges =   0.00000
 Mulliken charges with hydrogens summed into heavy atoms:
               1
     1  C   -0.049567
     2  C   -0.012602
     3  C    0.068216
     9  C   -0.006047
 Electronic spatial extent (au):  <R**2>=            365.9320
 Charge=              0.0000 electrons
 Dipole moment (field-independent basis, Debye):
    X=              0.3937    Y=              0.0544    Z=              0.0992  Tot=              0.4096
 Quadrupole moment (field-independent basis, Debye-Ang):
   XX=            -26.5644   YY=            -26.3661   ZZ=            -27.2914
   XY=              0.5632   XZ=              0.8806   YZ=             -1.3220
 Traceless Quadrupole moment (field-independent basis, Debye-Ang):
   XX=              0.1762   YY=              0.3745   ZZ=             -0.5508
   XY=              0.5632   XZ=              0.8806   YZ=             -1.3220
 Octapole moment (field-independent basis, Debye-Ang**2):
  XXX=             -1.5600  YYY=              0.1906  ZZZ=              0.5089  XYY=             -0.0470
  XXY=             -0.7692  XXZ=             -1.5909  XZZ=              1.9586  YZZ=              0.3155
  YYZ=              0.4764  XYZ=              1.5015
 Hexadecapole moment (field-independent basis, Debye-Ang**3):
 XXXX=           -362.7954 YYYY=            -74.9280 ZZZZ=            -65.7963 XXXY=              9.8110
 XXXZ=              5.9455 YYYX=              0.0082 YYYZ=             -4.1350 ZZZX=              0.8283
 ZZZY=             -0.5856 XXYY=            -72.7017 XXZZ=            -76.5783 YYZZ=            -22.6824
 XXYZ=             -3.0791 YYXZ=              1.1018 ZZXY=             -0.6920
 N-N= 1.173419289205D+02 E-N=-5.983649435730D+02  KE= 1.563333372460D+02
 No NMR shielding tensors so no spin-rotation constants.
 Leave Link  601 at Fri Jul  9 19:19:49 2021, MaxMem=  4194304000 cpu:         6.8
 (Enter /home/minenky/programs//g09/l701.exe)
 Compute integral first derivatives.
 ... and contract with generalized density number  0.
 R6Disp: Adding Grimme-D2 dispersion energy 1st derivatives to the gradient.
   1 Symmetry operations used in ECPInt.
 ECPInt:  NShTT=    2926 NPrTT=    8368 LenC2=    2912 LenP2D=    7180.
 LDataN:  DoStor=T MaxTD1= 7 Len=  274
 Leave Link  701 at Fri Jul  9 19:19:50 2021, MaxMem=  4194304000 cpu:         3.2
 (Enter /home/minenky/programs//g09/l702.exe)
 L702 exits ... SP integral derivatives will be done elsewhere.
 Leave Link  702 at Fri Jul  9 19:19:50 2021, MaxMem=  4194304000 cpu:         0.1
 (Enter /home/minenky/programs//g09/l703.exe)
 Compute integral first derivatives, UseDBF=F ICtDFT=           0.
 Integral derivatives from FoFJK, PRISM(SPDF).
 Calling FoFJK, ICntrl=      2127 FMM=F ISym2X=0 I1Cent= 0 IOpClX= 0 NMat=1 NMatS=1 NMatT=0.
 FoFJK:  IHMeth= 1 ICntrl=    2127 DoSepK=T KAlg= 0 I1Cent=   0 FoldK=F
 IRaf=         1 NMat=   1 IRICut=       1 DoRegI=T DoRafI=F ISym2E= 0.
 FoFCou: FMM=F IPFlag=           0 FMFlag=      100000 FMFlg1=         800
         NFxFlg=           0 DoJE=F BraDBF=F KetDBF=F FulRan=T
         wScrn=  0.000000 ICntrl=    2527 IOpCl=  0 I1Cent=           0 NGrid=           0
         NMat0=    1 NMatS0=      1 NMatT0=    0 NMatD0=    1 NMtDS0=    0 NMtDT0=    0
 Symmetry not used in FoFCou.
 Leave Link  703 at Fri Jul  9 19:19:55 2021, MaxMem=  4194304000 cpu:        69.9
 (Enter /home/minenky/programs//g09/l716.exe)
 Dipole        = 1.54883602D-01 2.14160173D-02 3.90268424D-02
 ***** Axes restored to original set *****
 -------------------------------------------------------------------
 Center     Atomic                   Forces (Hartrees/Bohr)
 Number     Number              X              Y              Z
 -------------------------------------------------------------------
      1        6           0.002928421   -0.000614724    0.001550490
      2        6          -0.002262154    0.000647916   -0.001583235
      3        6           0.001330482   -0.000307459   -0.000324548
      4        1           0.000249246    0.000316299   -0.000113617
      5        1           0.000032046   -0.000355443    0.000254938
      6        1          -0.000157287   -0.000059638   -0.000017515
      7        1          -0.000326422   -0.000315153   -0.000467609
      8        1           0.000117203   -0.000197662   -0.000033237
      9        6          -0.001339573    0.000653885    0.000549287
     10        1          -0.000347857   -0.000003029    0.000055862
     11        1          -0.000094825    0.000101302    0.000055195
     12        1          -0.000129279    0.000133706    0.000073989
 -------------------------------------------------------------------
 Cartesian Forces:  Max     0.002928421 RMS     0.000832601
 Leave Link  716 at Fri Jul  9 19:19:55 2021, MaxMem=  4194304000 cpu:         0.1
 (Enter /home/minenky/programs//g09/l103.exe)

 GradGradGradGradGradGradGradGradGradGradGradGradGradGradGradGradGradGrad
 Berny optimization.
 FormGI is forming the generalized inverse of G from B-inverse, IUseBI=4.
 Internal  Forces:  Max     0.003681176 RMS     0.000655617
 Search for a local minimum.
 Step number   1 out of a maximum of   58
 All quantities printed in internal units (Hartrees-Bohrs-Radians)
 RMS Force = .65562D-03 SwitMx=.10000D-02 MixMth= 2
 Mixed Optimization -- En-DIIS/RFO-DIIS
 Second derivative matrix not updated -- first step.
 ITU=  0
     Eigenvalues ---    0.00338   0.00797   0.01734   0.03058   0.03058
     Eigenvalues ---    0.04134   0.05442   0.05494   0.05527   0.09410
     Eigenvalues ---    0.12857   0.15999   0.16000   0.16000   0.16000
     Eigenvalues ---    0.16000   0.16000   0.21942   0.22000   0.29211
     Eigenvalues ---    0.32626   0.34147   0.34468   0.34544   0.34648
     Eigenvalues ---    0.34652   0.35037   0.35448   0.35695   0.60285
 RFO step:  Lambda=-5.02236476D-05 EMin= 3.38477609D-03
 Linear search not attempted -- first point.
 Iteration  1 RMS(Cart)=  0.00412539 RMS(Int)=  0.00000237
 Iteration  2 RMS(Cart)=  0.00000264 RMS(Int)=  0.00000078
 Iteration  3 RMS(Cart)=  0.00000000 RMS(Int)=  0.00000078
 ITry= 1 IFail=0 DXMaxC= 1.11D-02 DCOld= 1.00D+10 DXMaxT= 3.00D-01 DXLimC= 3.00D+00 Rises=F
 Variable       Old X    -DE/DX   Delta X   Delta X   Delta X     New X
                                 (Linear)    (Quad)   (Total)
    R1        2.50715  -0.00368   0.00000  -0.00611  -0.00611   2.50105
    R2        2.04953   0.00030   0.00000   0.00086   0.00086   2.05039
    R3        2.04562   0.00020   0.00000   0.00055   0.00055   2.04617
    R4        2.83012  -0.00062   0.00000  -0.00191  -0.00191   2.82821
    R5        2.05615   0.00003   0.00000   0.00010   0.00010   2.05624
    R6        2.07083  -0.00060   0.00000  -0.00176  -0.00176   2.06907
    R7        2.06548  -0.00017   0.00000  -0.00048  -0.00048   2.06500
    R8        2.89566  -0.00221   0.00000  -0.00755  -0.00755   2.88810
    R9        2.06251  -0.00029   0.00000  -0.00084  -0.00084   2.06167
   R10        2.06243  -0.00006   0.00000  -0.00018  -0.00018   2.06226
   R11        2.06422  -0.00010   0.00000  -0.00028  -0.00028   2.06394
    A1        2.11917  -0.00012   0.00000  -0.00078  -0.00078   2.11839
    A2        2.12512  -0.00034   0.00000  -0.00212  -0.00212   2.12301
    A3        2.03889   0.00046   0.00000   0.00289   0.00289   2.04178
    A4        2.18755  -0.00031   0.00000  -0.00139  -0.00139   2.18616
    A5        2.07614  -0.00002   0.00000  -0.00035  -0.00035   2.07579
    A6        2.01938   0.00032   0.00000   0.00177   0.00177   2.02114
    A7        1.90425  -0.00004   0.00000  -0.00140  -0.00140   1.90286
    A8        1.91167   0.00026   0.00000   0.00133   0.00133   1.91301
    A9        1.96380  -0.00049   0.00000  -0.00275  -0.00275   1.96105
   A10        1.86231   0.00001   0.00000   0.00177   0.00177   1.86408
   A11        1.89878   0.00027   0.00000   0.00147   0.00147   1.90025
   A12        1.92013   0.00001   0.00000  -0.00020  -0.00020   1.91993
   A13        1.93838  -0.00022   0.00000  -0.00155  -0.00155   1.93682
   A14        1.93391  -0.00010   0.00000  -0.00056  -0.00057   1.93334
   A15        1.93800  -0.00017   0.00000  -0.00095  -0.00095   1.93705
   A16        1.88909   0.00015   0.00000   0.00080   0.00080   1.88989
   A17        1.88215   0.00019   0.00000   0.00107   0.00107   1.88321
   A18        1.88015   0.00017   0.00000   0.00137   0.00137   1.88151
    D1       -0.01314   0.00003   0.00000   0.00121   0.00121  -0.01193
    D2       -3.13724   0.00000   0.00000  -0.00050  -0.00050  -3.13774
    D3        3.13116   0.00003   0.00000   0.00143   0.00143   3.13259
    D4        0.00706   0.00000   0.00000  -0.00029  -0.00029   0.00677
    D5        2.08935   0.00002   0.00000  -0.00137  -0.00137   2.08798
    D6        0.05671  -0.00012   0.00000  -0.00345  -0.00345   0.05326
    D7       -2.08476   0.00002   0.00000  -0.00227  -0.00227  -2.08703
    D8       -1.06922   0.00005   0.00000   0.00028   0.00028  -1.06895
    D9       -3.10187  -0.00009   0.00000  -0.00181  -0.00181  -3.10367
   D10        1.03984   0.00005   0.00000  -0.00062  -0.00062   1.03923
   D11       -3.10812   0.00005   0.00000  -0.00092  -0.00091  -3.10903
   D12        1.07483   0.00007   0.00000  -0.00052  -0.00052   1.07431
   D13       -1.01391   0.00003   0.00000  -0.00124  -0.00123  -1.01514
   D14       -0.99592  -0.00012   0.00000  -0.00344  -0.00344  -0.99936
   D15       -3.09615  -0.00010   0.00000  -0.00305  -0.00305  -3.09920
   D16        1.09830  -0.00014   0.00000  -0.00376  -0.00377   1.09453
   D17        1.03835   0.00005   0.00000  -0.00058  -0.00058   1.03778
   D18       -1.06189   0.00007   0.00000  -0.00018  -0.00018  -1.06206
   D19        3.13257   0.00004   0.00000  -0.00090  -0.00090   3.13167
         Item               Value     Threshold  Converged?
 Maximum Force            0.003681     0.000015     NO 
 RMS     Force            0.000656     0.000010     NO 
 Maximum Displacement     0.011072     0.000060     NO 
 RMS     Displacement     0.004126     0.000040     NO 
 Predicted change in Energy=-2.511727D-05
 Lowest energy point so far.  Saving SCF results.
 GradGradGradGradGradGradGradGradGradGradGradGradGradGradGradGradGradGrad

 Leave Link  103 at Fri Jul  9 19:19:55 2021, MaxMem=  4194304000 cpu:         3.5
 (Enter /home/minenky/programs//g09/l202.exe)
                          Input orientation:                          
 ---------------------------------------------------------------------
 Center     Atomic      Atomic             Coordinates (Angstroms)
 Number     Number       Type             X           Y           Z
 ---------------------------------------------------------------------
      1          6           0       -1.845974    0.014933   -0.278556
      2          6           0       -0.716921   -0.291893    0.340103
      3          6           0        0.537649    0.523315    0.303021
      4          1           0       -1.938956    0.921186   -0.867900
      5          1           0       -2.718391   -0.623560   -0.218180
      6          1           0       -0.666506   -1.212743    0.917592
      7          1           0        0.794031    0.830396    1.322232
      8          1           0        0.363582    1.438418   -0.268283
      9          6           0        1.715098   -0.248394   -0.291823
     10          1           0        2.624197    0.354596   -0.277841
     11          1           0        1.508951   -0.533050   -1.324978
     12          1           0        1.909648   -1.162197    0.273852
 ---------------------------------------------------------------------
                    Distance matrix (angstroms):
                    1          2          3          4          5
     1  C    0.000000
     2  C    1.323496   0.000000
     3  C    2.505662   1.496624   0.000000
     4  H    1.085020   2.103379   2.768200   0.000000
     5  H    1.082787   2.104178   3.491241   1.848214   0.000000
     6  H    2.080650   1.088117   2.200360   3.059537   2.418128
     7  H    3.193294   2.122990   1.094907   3.503446   4.101702
     8  H    2.628413   2.128755   1.092749   2.434902   3.708479
     9  C    3.570820   2.513153   1.528319   3.879677   4.449943
    10  H    4.483057   3.458738   2.172452   4.635899   5.431720
    11  H    3.556798   2.790190   2.170189   3.769852   4.370768
    12  H    3.974354   2.767794   2.173519   4.522813   4.685186
                    6          7          8          9         10
     6  H    0.000000
     7  H    2.543879   0.000000
     8  H    3.081564   1.756335   0.000000
     9  C    2.839840   2.148795   2.161592   0.000000
    10  H    3.835927   2.477120   2.507018   1.090987   0.000000
    11  H    3.197456   3.062322   2.512998   1.091301   1.768667
    12  H    2.655848   2.512793   3.073667   1.092188   1.765108
                   11         12
    11  H    0.000000
    12  H    1.764269   0.000000
 Stoichiometry    C4H8
 Framework group  C1[X(C4H8)]
 Deg. of freedom    30
 Full point group                 C1      NOp   1
 RotChk:  IX=0 Diff= 5.88D-03
 Largest Abelian subgroup         C1      NOp   1
 Largest concise Abelian subgroup C1      NOp   1
                         Standard orientation:                         
 ---------------------------------------------------------------------
 Center     Atomic      Atomic             Coordinates (Angstroms)
 Number     Number       Type             X           Y           Z
 ---------------------------------------------------------------------
      1          6           0       -1.846493    0.016961   -0.278025
      2          6           0       -0.717509   -0.292970    0.339211
      3          6           0        0.537456    0.521770    0.305327
      4          1           0       -1.939108    0.925686   -0.863609
      5          1           0       -2.719214   -0.621347   -0.220169
      6          1           0       -0.667470   -1.216221    0.912886
      7          1           0        0.794123    0.824514    1.325762
      8          1           0        0.363763    1.439309   -0.262171
      9          6           0        1.714448   -0.248053   -0.292856
     10          1           0        2.623844    0.354428   -0.276506
     11          1           0        1.508025   -0.528339   -1.327151
     12          1           0        1.908624   -1.164279    0.269015
 ---------------------------------------------------------------------
 Rotational constants (GHZ):     22.7789190      4.1845210      4.0862823
 Leave Link  202 at Fri Jul  9 19:19:55 2021, MaxMem=  4194304000 cpu:         0.8
 (Enter /home/minenky/programs//g09/l301.exe)
 Standard basis: def2TZVP (5D, 7F)
 Ernie: Thresh=  0.10000D-02 Tol=  0.10000D-05 Strict=F.
 There are   192 symmetry adapted cartesian basis functions of A   symmetry.
 There are   172 symmetry adapted basis functions of A   symmetry.
   172 basis functions,   268 primitive gaussians,   192 cartesian basis functions
    16 alpha electrons       16 beta electrons
       nuclear repulsion energy       117.5271633249 Hartrees.
 IExCor= 4639 DFT=T Ex+Corr=wB97XD ExCW=0 ScaHFX=  1.000000
 ScaDFX=  1.000000  1.000000  1.000000  1.000000 ScalE2=  1.000000  1.000000
 IRadAn=      5 IRanWt=     -1 IRanGd=            0 ICorTp=0 IEmpDi=121
  HFx wShort=  0.000000 wLong=  0.200000 cFull=  0.222036 cShort=  0.000000 cLong=  0.777964
  DFx wShort=  0.000000 wLong=  0.200000 cFull=  0.000000 cShort=  0.000000 cLong=  1.000000
 NAtoms=   12 NActive=   12 NUniq=   12 SFac= 1.00D+00 NAtFMM=   60 NAOKFM=F Big=F
 Integral buffers will be    131072 words long.
 Raffenetti 2 integral format.
 Two-electron integral symmetry is turned on.
 R6Disp:  Grimme-D2 Dispersion energy=       -0.0044585638 Hartrees.
 Nuclear repulsion after empirical dispersion term =      117.5227047611 Hartrees.
 Leave Link  301 at Fri Jul  9 19:19:55 2021, MaxMem=  4194304000 cpu:         0.2
 (Enter /home/minenky/programs//g09/l302.exe)
 NPDir=0 NMtPBC=     1 NCelOv=     1 NCel=       1 NClECP=     1 NCelD=      1
         NCelK=      1 NCelE2=     1 NClLst=     1 CellRange=     0.0.
 One-electron integrals computed using PRISM.
   1 Symmetry operations used in ECPInt.
 ECPInt:  NShTT=    2926 NPrTT=    8368 LenC2=    2912 LenP2D=    7187.
 LDataN:  DoStor=T MaxTD1= 6 Len=  172
 NBasis=   172 RedAO= T EigKep=  1.64D-04  NBF=   172
 NBsUse=   172 1.00D-06 EigRej= -1.00D+00 NBFU=   172
 Precomputing XC quadrature grid using
 IXCGrd= 4 IRadAn=           5 IRanWt=          -1 IRanGd=           0 AccXCQ= 0.00D+00.
 Generated NRdTot=       0 NPtTot=           0 NUsed=           0 NTot=          32
 NSgBfM=   192   192   192   192   192 MxSgAt=    12 MxSgA2=    12.
 Leave Link  302 at Fri Jul  9 19:19:56 2021, MaxMem=  4194304000 cpu:        12.0
 (Enter /home/minenky/programs//g09/l303.exe)
 DipDrv:  MaxL=1.
 Leave Link  303 at Fri Jul  9 19:19:56 2021, MaxMem=  4194304000 cpu:         1.3
 (Enter /home/minenky/programs//g09/l401.exe)
 Initial guess from the checkpoint file:  "m1_00_106-98-90_C4H8_wB97XD.chk"
 B after Tr=     0.000000    0.000000    0.000000
         Rot=    0.999998   -0.002076   -0.000057    0.000204 Ang=  -0.24 deg.
 Guess basis will be translated and rotated to current coordinates.
 JPrj=2 DoOrth=T DoCkMO=T.
 Leave Link  401 at Fri Jul  9 19:19:57 2021, MaxMem=  4194304000 cpu:         9.2
 (Enter /home/minenky/programs//g09/l502.exe)
 Closed shell SCF:
 Using DIIS extrapolation, IDIIS=  1040.
 Integral symmetry usage will be decided dynamically.
 Keep R1 ints in memory in canonical form, NReq=225227108.
 IVT=      262914 IEndB=      262914 NGot=  4194304000 MDV=  3972671325
 LenX=  3972671325 LenY=  3972634020
 Requested convergence on RMS density matrix=1.00D-08 within 380 cycles.
 Requested convergence on MAX density matrix=1.00D-06.
 Requested convergence on             energy=1.00D-06.
 No special actions if energy rises.
 FoFCou: FMM=F IPFlag=           0 FMFlag=           0 FMFlg1=           0
         NFxFlg=           0 DoJE=F BraDBF=F KetDBF=F FulRan=T
         wScrn=  0.000000 ICntrl=     600 IOpCl=  0 I1Cent=           0 NGrid=           0
         NMat0=    1 NMatS0=  14878 NMatT0=    0 NMatD0=    1 NMtDS0=    0 NMtDT0=    0
 Symmetry not used in FoFCou.

 Cycle   1  Pass 1  IDiag  1:
 E= -157.225778053328    
 DIIS: error= 1.71D-04 at cycle   1 NSaved=   1.
 NSaved= 1 IEnMin= 1 EnMin= -157.225778053328     IErMin= 1 ErrMin= 1.71D-04
 ErrMax= 1.71D-04  0.00D+00 EMaxC= 1.00D-01 BMatC= 9.27D-06 BMatP= 9.27D-06
 IDIUse=3 WtCom= 9.98D-01 WtEn= 1.71D-03
 Coeff-Com:  0.100D+01
 Coeff-En:   0.100D+01
 Coeff:      0.100D+01
 Gap=     0.810 Goal=   None    Shift=    0.000
 RMSDP=2.08D-05 MaxDP=4.42D-04              OVMax= 7.70D-04

 Cycle   2  Pass 1  IDiag  1:
 E= -157.225785854980     Delta-E=       -0.000007801651 Rises=F Damp=F
 DIIS: error= 4.97D-05 at cycle   2 NSaved=   2.
 NSaved= 2 IEnMin= 2 EnMin= -157.225785854980     IErMin= 2 ErrMin= 4.97D-05
 ErrMax= 4.97D-05  0.00D+00 EMaxC= 1.00D-01 BMatC= 6.20D-07 BMatP= 9.27D-06
 IDIUse=1 WtCom= 1.00D+00 WtEn= 0.00D+00
 Coeff-Com:  0.656D-01 0.934D+00
 Coeff:      0.656D-01 0.934D+00
 Gap=     0.422 Goal=   None    Shift=    0.000
 RMSDP=5.44D-06 MaxDP=1.19D-04 DE=-7.80D-06 OVMax= 3.18D-04

 Cycle   3  Pass 1  IDiag  1:
 E= -157.225786331748     Delta-E=       -0.000000476769 Rises=F Damp=F
 DIIS: error= 3.04D-05 at cycle   3 NSaved=   3.
 NSaved= 3 IEnMin= 3 EnMin= -157.225786331748     IErMin= 3 ErrMin= 3.04D-05
 ErrMax= 3.04D-05  0.00D+00 EMaxC= 1.00D-01 BMatC= 2.68D-07 BMatP= 6.20D-07
 IDIUse=1 WtCom= 1.00D+00 WtEn= 0.00D+00
 Coeff-Com: -0.340D-01 0.381D+00 0.653D+00
 Coeff:     -0.340D-01 0.381D+00 0.653D+00
 Gap=     0.422 Goal=   None    Shift=    0.000
 RMSDP=2.33D-06 MaxDP=5.65D-05 DE=-4.77D-07 OVMax= 2.08D-04

 Cycle   4  Pass 1  IDiag  1:
 E= -157.225786602314     Delta-E=       -0.000000270566 Rises=F Damp=F
 DIIS: error= 7.10D-06 at cycle   4 NSaved=   4.
 NSaved= 4 IEnMin= 4 EnMin= -157.225786602314     IErMin= 4 ErrMin= 7.10D-06
 ErrMax= 7.10D-06  0.00D+00 EMaxC= 1.00D-01 BMatC= 1.39D-08 BMatP= 2.68D-07
 IDIUse=1 WtCom= 1.00D+00 WtEn= 0.00D+00
 Coeff-Com: -0.130D-01 0.531D-01 0.205D+00 0.755D+00
 Coeff:     -0.130D-01 0.531D-01 0.205D+00 0.755D+00
 Gap=     0.422 Goal=   None    Shift=    0.000
 RMSDP=7.38D-07 MaxDP=1.58D-05 DE=-2.71D-07 OVMax= 6.65D-05

 Cycle   5  Pass 1  IDiag  1:
 E= -157.225786617508     Delta-E=       -0.000000015194 Rises=F Damp=F
 DIIS: error= 2.94D-06 at cycle   5 NSaved=   5.
 NSaved= 5 IEnMin= 5 EnMin= -157.225786617508     IErMin= 5 ErrMin= 2.94D-06
 ErrMax= 2.94D-06  0.00D+00 EMaxC= 1.00D-01 BMatC= 2.29D-09 BMatP= 1.39D-08
 IDIUse=1 WtCom= 1.00D+00 WtEn= 0.00D+00
 Coeff-Com:  0.270D-03-0.383D-01-0.171D-01 0.292D+00 0.763D+00
 Coeff:      0.270D-03-0.383D-01-0.171D-01 0.292D+00 0.763D+00
 Gap=     0.422 Goal=   None    Shift=    0.000
 RMSDP=3.93D-07 MaxDP=9.64D-06 DE=-1.52D-08 OVMax= 2.06D-05

 Cycle   6  Pass 1  IDiag  1:
 E= -157.225786620476     Delta-E=       -0.000000002968 Rises=F Damp=F
 DIIS: error= 8.32D-07 at cycle   6 NSaved=   6.
 NSaved= 6 IEnMin= 6 EnMin= -157.225786620476     IErMin= 6 ErrMin= 8.32D-07
 ErrMax= 8.32D-07  0.00D+00 EMaxC= 1.00D-01 BMatC= 5.46D-11 BMatP= 2.29D-09
 IDIUse=1 WtCom= 1.00D+00 WtEn= 0.00D+00
 Coeff-Com:  0.986D-03-0.779D-02-0.176D-01-0.315D-01 0.541D-01 0.100D+01
 Coeff:      0.986D-03-0.779D-02-0.176D-01-0.315D-01 0.541D-01 0.100D+01
 Gap=     0.422 Goal=   None    Shift=    0.000
 RMSDP=1.57D-07 MaxDP=4.17D-06 DE=-2.97D-09 OVMax= 7.07D-06

 Cycle   7  Pass 1  IDiag  1:
 E= -157.225786620643     Delta-E=       -0.000000000166 Rises=F Damp=F
 DIIS: error= 2.66D-07 at cycle   7 NSaved=   7.
 NSaved= 7 IEnMin= 7 EnMin= -157.225786620643     IErMin= 7 ErrMin= 2.66D-07
 ErrMax= 2.66D-07  0.00D+00 EMaxC= 1.00D-01 BMatC= 4.19D-12 BMatP= 5.46D-11
 IDIUse=1 WtCom= 1.00D+00 WtEn= 0.00D+00
 Coeff-Com:  0.279D-04 0.239D-02-0.593D-04-0.233D-01-0.508D-01 0.904D-01
 Coeff-Com:  0.981D+00
 Coeff:      0.279D-04 0.239D-02-0.593D-04-0.233D-01-0.508D-01 0.904D-01
 Coeff:      0.981D+00
 Gap=     0.422 Goal=   None    Shift=    0.000
 RMSDP=3.91D-08 MaxDP=1.10D-06 DE=-1.66D-10 OVMax= 2.14D-06

 Cycle   8  Pass 1  IDiag  1:
 E= -157.225786620653     Delta-E=       -0.000000000010 Rises=F Damp=F
 DIIS: error= 5.66D-08 at cycle   8 NSaved=   8.
 NSaved= 8 IEnMin= 8 EnMin= -157.225786620653     IErMin= 8 ErrMin= 5.66D-08
 ErrMax= 5.66D-08  0.00D+00 EMaxC= 1.00D-01 BMatC= 6.16D-13 BMatP= 4.19D-12
 IDIUse=1 WtCom= 1.00D+00 WtEn= 0.00D+00
 Coeff-Com: -0.813D-04 0.142D-02 0.158D-02-0.419D-02-0.190D-01-0.610D-01
 Coeff-Com:  0.272D+00 0.809D+00
 Coeff:     -0.813D-04 0.142D-02 0.158D-02-0.419D-02-0.190D-01-0.610D-01
 Coeff:      0.272D+00 0.809D+00
 Gap=     0.422 Goal=   None    Shift=    0.000
 RMSDP=8.32D-09 MaxDP=1.63D-07 DE=-9.83D-12 OVMax= 5.62D-07

 SCF Done:  E(RwB97XD) =  -157.225786621     A.U. after    8 cycles
            NFock=  8  Conv=0.83D-08     -V/T= 2.0056
 KE= 1.563541464992D+02 PE=-5.987447666517D+02 EE= 1.676421287707D+02
 Leave Link  502 at Fri Jul  9 19:20:05 2021, MaxMem=  4194304000 cpu:       104.9
 (Enter /home/minenky/programs//g09/l701.exe)
 Compute integral first derivatives.
 ... and contract with generalized density number  0.
 R6Disp: Adding Grimme-D2 dispersion energy 1st derivatives to the gradient.
   1 Symmetry operations used in ECPInt.
 ECPInt:  NShTT=    2926 NPrTT=    8368 LenC2=    2912 LenP2D=    7187.
 LDataN:  DoStor=T MaxTD1= 7 Len=  274
 Leave Link  701 at Fri Jul  9 19:20:06 2021, MaxMem=  4194304000 cpu:         7.4
 (Enter /home/minenky/programs//g09/l702.exe)
 L702 exits ... SP integral derivatives will be done elsewhere.
 Leave Link  702 at Fri Jul  9 19:20:06 2021, MaxMem=  4194304000 cpu:         0.1
 (Enter /home/minenky/programs//g09/l703.exe)
 Compute integral first derivatives, UseDBF=F ICtDFT=           0.
 Integral derivatives from FoFJK, PRISM(SPDF).
 Calling FoFJK, ICntrl=      2127 FMM=F ISym2X=0 I1Cent= 0 IOpClX= 0 NMat=1 NMatS=1 NMatT=0.
 FoFJK:  IHMeth= 1 ICntrl=    2127 DoSepK=T KAlg= 0 I1Cent=   0 FoldK=F
 IRaf=         1 NMat=   1 IRICut=       1 DoRegI=T DoRafI=F ISym2E= 0.
 FoFCou: FMM=F IPFlag=           0 FMFlag=      100000 FMFlg1=         800
         NFxFlg=           0 DoJE=F BraDBF=F KetDBF=F FulRan=T
         wScrn=  0.000000 ICntrl=    2527 IOpCl=  0 I1Cent=           0 NGrid=           0
         NMat0=    1 NMatS0=      1 NMatT0=    0 NMatD0=    1 NMtDS0=    0 NMtDT0=    0
 Symmetry not used in FoFCou.
 Leave Link  703 at Fri Jul  9 19:20:10 2021, MaxMem=  4194304000 cpu:        66.8
 (Enter /home/minenky/programs//g09/l716.exe)
 Dipole        = 1.54332976D-01 2.15194406D-02 4.02883135D-02
 ***** Axes restored to original set *****
 -------------------------------------------------------------------
 Center     Atomic                   Forces (Hartrees/Bohr)
 Number     Number              X              Y              Z
 -------------------------------------------------------------------
      1        6          -0.000390822    0.000066814   -0.000154510
      2        6          -0.000031414    0.000015187    0.000122705
      3        6           0.000378382   -0.000070223    0.000022171
      4        1          -0.000001698   -0.000006029    0.000005708
      5        1          -0.000017798   -0.000023715   -0.000026170
      6        1           0.000081286   -0.000016342    0.000011227
      7        1          -0.000076188    0.000054751    0.000023202
      8        1          -0.000096518   -0.000000850    0.000035684
      9        6          -0.000074465    0.000109053    0.000082159
     10        1           0.000107110   -0.000076503   -0.000067668
     11        1           0.000055828   -0.000029174   -0.000011520
     12        1           0.000066298   -0.000022969   -0.000042988
 -------------------------------------------------------------------
 Cartesian Forces:  Max     0.000390822 RMS     0.000109478
 Leave Link  716 at Fri Jul  9 19:20:10 2021, MaxMem=  4194304000 cpu:         0.1
 (Enter /home/minenky/programs//g09/l103.exe)

 GradGradGradGradGradGradGradGradGradGradGradGradGradGradGradGradGradGrad
 Berny optimization.
 Using GEDIIS/GDIIS optimizer.
 FormGI is forming the generalized inverse of G from B-inverse, IUseBI=4.
 Internal  Forces:  Max     0.000440056 RMS     0.000100003
 Search for a local minimum.
 Step number   2 out of a maximum of   58
 All quantities printed in internal units (Hartrees-Bohrs-Radians)
 RMS Force = .10000D-03 SwitMx=.10000D-02 MixMth= 2
 Mixed Optimization -- En-DIIS/RFO-DIIS
 Swapping is turned off.
 Update second derivatives using D2CorX and points    1    2
 DE= -2.21D-05 DEPred=-2.51D-05 R= 8.82D-01
 TightC=F SS=  1.41D+00  RLast= 1.45D-02 DXNew= 5.0454D-01 4.3610D-02
 Trust test= 8.82D-01 RLast= 1.45D-02 DXMaxT set to 3.00D-01
 ITU=  1  0
     Eigenvalues ---    0.00338   0.00795   0.01736   0.03058   0.03061
     Eigenvalues ---    0.04158   0.05455   0.05509   0.05540   0.09361
     Eigenvalues ---    0.12852   0.15830   0.15999   0.16000   0.16000
     Eigenvalues ---    0.16000   0.16455   0.21932   0.22403   0.29212
     Eigenvalues ---    0.33362   0.34183   0.34462   0.34546   0.34652
     Eigenvalues ---    0.34720   0.35038   0.35446   0.35675   0.63799
 En-DIIS/RFO-DIIS IScMMF=        0 using points:     2    1
 RFO step:  Lambda=-8.23910554D-07.
 NNeg= 0 NP= 2 Switch=  2.50D-03 Rises=F DC=  2.21D-05 SmlDif=  1.00D-05
 RMS Error=  0.1859298294D-03 NUsed= 2 EDIIS=F
 DidBck=F Rises=F RFO-DIIS coefs:    0.88979    0.11021
 Iteration  1 RMS(Cart)=  0.00096483 RMS(Int)=  0.00000045
 Iteration  2 RMS(Cart)=  0.00000047 RMS(Int)=  0.00000015
 ITry= 1 IFail=0 DXMaxC= 2.65D-03 DCOld= 1.00D+10 DXMaxT= 3.00D-01 DXLimC= 3.00D+00 Rises=F
 Variable       Old X    -DE/DX   Delta X   Delta X   Delta X     New X
                                 (Linear)    (Quad)   (Total)
    R1        2.50105   0.00044   0.00067  -0.00014   0.00053   2.50158
    R2        2.05039  -0.00001  -0.00009   0.00009   0.00000   2.05039
    R3        2.04617   0.00003  -0.00006   0.00014   0.00008   2.04625
    R4        2.82821   0.00028   0.00021   0.00052   0.00073   2.82894
    R5        2.05624   0.00002  -0.00001   0.00007   0.00006   2.05631
    R6        2.06907   0.00002   0.00019  -0.00018   0.00002   2.06909
    R7        2.06500   0.00000   0.00005  -0.00007  -0.00002   2.06498
    R8        2.88810   0.00014   0.00083  -0.00054   0.00029   2.88840
    R9        2.06167   0.00005   0.00009   0.00001   0.00010   2.06177
   R10        2.06226   0.00001   0.00002   0.00000   0.00002   2.06228
   R11        2.06394   0.00001   0.00003  -0.00001   0.00002   2.06395
    A1        2.11839   0.00000   0.00009  -0.00012  -0.00003   2.11836
[...]
     Eigenvalues ---    0.13751   0.15828   0.17151   0.20060   0.29590
     Eigenvalues ---    0.31740   0.33231   0.33871   0.34035   0.34186
     Eigenvalues ---    0.34779   0.35154   0.35871   0.36371   0.65136
 Angle between quadratic step and forces=  70.29 degrees.
 Linear search not attempted -- first point.
 Iteration  1 RMS(Cart)=  0.00000847 RMS(Int)=  0.00000000
 Iteration  2 RMS(Cart)=  0.00000000 RMS(Int)=  0.00000000
 ITry= 1 IFail=0 DXMaxC= 2.47D-05 DCOld= 1.00D+10 DXMaxT= 3.00D-01 DXLimC= 3.00D+00 Rises=F
 Variable       Old X    -DE/DX   Delta X   Delta X   Delta X     New X
                                 (Linear)    (Quad)   (Total)
    R1        2.50164   0.00000   0.00000   0.00000   0.00000   2.50164
    R2        2.05036   0.00000   0.00000   0.00000   0.00000   2.05036
    R3        2.04622   0.00000   0.00000   0.00000   0.00000   2.04622
    R4        2.82920   0.00000   0.00000   0.00000   0.00000   2.82920
    R5        2.05635   0.00000   0.00000   0.00000   0.00000   2.05635
    R6        2.06914   0.00000   0.00000   0.00000   0.00000   2.06914
    R7        2.06504   0.00000   0.00000   0.00000   0.00000   2.06504
    R8        2.88799   0.00000   0.00000   0.00001   0.00001   2.88800
    R9        2.06181   0.00000   0.00000   0.00000   0.00000   2.06181
   R10        2.06234   0.00000   0.00000   0.00000   0.00000   2.06234
   R11        2.06400   0.00000   0.00000   0.00000   0.00000   2.06400
    A1        2.11838   0.00000   0.00000   0.00000   0.00000   2.11838
    A2        2.12292   0.00000   0.00000   0.00000   0.00000   2.12292
    A3        2.04188   0.00000   0.00000   0.00000   0.00000   2.04188
    A4        2.18703   0.00000   0.00000   0.00000   0.00000   2.18703
    A5        2.07595   0.00000   0.00000  -0.00001  -0.00001   2.07595
    A6        2.02010   0.00000   0.00000   0.00000   0.00000   2.02010
    A7        1.90219   0.00000   0.00000   0.00000   0.00000   1.90219
    A8        1.91195   0.00000   0.00000   0.00000   0.00000   1.91195
    A9        1.96164   0.00000   0.00000   0.00000   0.00000   1.96163
   A10        1.86356   0.00000   0.00000   0.00000   0.00000   1.86356
   A11        1.90118   0.00000   0.00000   0.00000   0.00000   1.90118
   A12        1.92061   0.00000   0.00000   0.00000   0.00000   1.92061
   A13        1.93806   0.00000   0.00000   0.00000   0.00000   1.93805
   A14        1.93364   0.00000   0.00000   0.00000   0.00000   1.93364
   A15        1.93759   0.00000   0.00000   0.00000   0.00000   1.93759
   A16        1.88906   0.00000   0.00000   0.00000   0.00000   1.88907
   A17        1.88249   0.00000   0.00000   0.00000   0.00000   1.88250
   A18        1.88087   0.00000   0.00000   0.00000   0.00000   1.88088
    D1       -0.01175   0.00000   0.00000  -0.00001  -0.00001  -0.01176
    D2       -3.13736   0.00000   0.00000  -0.00001  -0.00001  -3.13737
    D3        3.13230   0.00000   0.00000   0.00000   0.00000   3.13230
    D4        0.00669   0.00000   0.00000   0.00000   0.00000   0.00669
    D5        2.08265   0.00000   0.00000   0.00000   0.00000   2.08265
    D6        0.04953   0.00000   0.00000  -0.00001  -0.00001   0.04953
    D7       -2.09126   0.00000   0.00000   0.00000   0.00000  -2.09126
    D8       -1.07446   0.00000   0.00000   0.00000   0.00000  -1.07446
    D9       -3.10758   0.00000   0.00000  -0.00001  -0.00001  -3.10759
   D10        1.03481   0.00000   0.00000   0.00000   0.00000   1.03481
   D11       -3.11055   0.00000   0.00000  -0.00002  -0.00002  -3.11057
   D12        1.07282   0.00000   0.00000  -0.00002  -0.00002   1.07280
   D13       -1.01639   0.00000   0.00000  -0.00002  -0.00002  -1.01641
   D14       -1.00071   0.00000   0.00000  -0.00002  -0.00002  -1.00072
   D15       -3.10052   0.00000   0.00000  -0.00002  -0.00002  -3.10054
   D16        1.09346   0.00000   0.00000  -0.00002  -0.00002   1.09344
   D17        1.03672   0.00000   0.00000  -0.00002  -0.00002   1.03671
   D18       -1.06309   0.00000   0.00000  -0.00001  -0.00001  -1.06311
   D19        3.13089   0.00000   0.00000  -0.00002  -0.00002   3.13087
         Item               Value     Threshold  Converged?
 Maximum Force            0.000001     0.000015     YES
 RMS     Force            0.000000     0.000010     YES
 Maximum Displacement     0.000025     0.000060     YES
 RMS     Displacement     0.000008     0.000040     YES
 Predicted change in Energy=-1.952337D-11
 Optimization completed.
    -- Stationary point found.
                           ----------------------------
                           !   Optimized Parameters   !
                           ! (Angstroms and Degrees)  !
 --------------------------                            --------------------------
 ! Name  Definition              Value          Derivative Info.                !
 --------------------------------------------------------------------------------
 ! R1    R(1,2)                  1.3238         -DE/DX =    0.0                 !
 ! R2    R(1,4)                  1.085          -DE/DX =    0.0                 !
 ! R3    R(1,5)                  1.0828         -DE/DX =    0.0                 !
 ! R4    R(2,3)                  1.4971         -DE/DX =    0.0                 !
 ! R5    R(2,6)                  1.0882         -DE/DX =    0.0                 !
 ! R6    R(3,7)                  1.0949         -DE/DX =    0.0                 !
 ! R7    R(3,8)                  1.0928         -DE/DX =    0.0                 !
 ! R8    R(3,9)                  1.5283         -DE/DX =    0.0                 !
 ! R9    R(9,10)                 1.0911         -DE/DX =    0.0                 !
 ! R10   R(9,11)                 1.0913         -DE/DX =    0.0                 !
 ! R11   R(9,12)                 1.0922         -DE/DX =    0.0                 !
 ! A1    A(2,1,4)              121.3744         -DE/DX =    0.0                 !
 ! A2    A(2,1,5)              121.6342         -DE/DX =    0.0                 !
 ! A3    A(4,1,5)              116.9913         -DE/DX =    0.0                 !
 ! A4    A(1,2,3)              125.3075         -DE/DX =    0.0                 !
 ! A5    A(1,2,6)              118.9434         -DE/DX =    0.0                 !
 ! A6    A(3,2,6)              115.7432         -DE/DX =    0.0                 !
 ! A7    A(2,3,7)              108.9872         -DE/DX =    0.0                 !
 ! A8    A(2,3,8)              109.5468         -DE/DX =    0.0                 !
 ! A9    A(2,3,9)              112.3934         -DE/DX =    0.0                 !
 ! A10   A(7,3,8)              106.774          -DE/DX =    0.0                 !
 ! A11   A(7,3,9)              108.9295         -DE/DX =    0.0                 !
 ! A12   A(8,3,9)              110.0429         -DE/DX =    0.0                 !
 ! A13   A(3,9,10)             111.0425         -DE/DX =    0.0                 !
 ! A14   A(3,9,11)             110.7896         -DE/DX =    0.0                 !
 ! A15   A(3,9,12)             111.0156         -DE/DX =    0.0                 !
 ! A16   A(10,9,11)            108.2353         -DE/DX =    0.0                 !
 ! A17   A(10,9,12)            107.859          -DE/DX =    0.0                 !
 ! A18   A(11,9,12)            107.7662         -DE/DX =    0.0                 !
 ! D1    D(4,1,2,3)             -0.6731         -DE/DX =    0.0                 !
 ! D2    D(4,1,2,6)           -179.7576         -DE/DX =    0.0                 !
 ! D3    D(5,1,2,3)            179.4678         -DE/DX =    0.0                 !
 ! D4    D(5,1,2,6)              0.3833         -DE/DX =    0.0                 !
 ! D5    D(1,2,3,7)            119.3272         -DE/DX =    0.0                 !
 ! D6    D(1,2,3,8)              2.8381         -DE/DX =    0.0                 !
 ! D7    D(1,2,3,9)           -119.8206         -DE/DX =    0.0                 !
 ! D8    D(6,2,3,7)            -61.5622         -DE/DX =    0.0                 !
 ! D9    D(6,2,3,8)           -178.0513         -DE/DX =    0.0                 !
 ! D10   D(6,2,3,9)             59.29           -DE/DX =    0.0                 !
 ! D11   D(2,3,9,10)          -178.2215         -DE/DX =    0.0                 !
 ! D12   D(2,3,9,11)            61.4679         -DE/DX =    0.0                 !
 ! D13   D(2,3,9,12)           -58.2346         -DE/DX =    0.0                 !
 ! D14   D(7,3,9,10)           -57.3362         -DE/DX =    0.0                 !
 ! D15   D(7,3,9,11)          -177.6469         -DE/DX =    0.0                 !
 ! D16   D(7,3,9,12)            62.6506         -DE/DX =    0.0                 !
 ! D17   D(8,3,9,10)            59.3999         -DE/DX =    0.0                 !
 ! D18   D(8,3,9,11)           -60.9108         -DE/DX =    0.0                 !
 ! D19   D(8,3,9,12)           179.3867         -DE/DX =    0.0                 !
 --------------------------------------------------------------------------------
 GradGradGradGradGradGradGradGradGradGradGradGradGradGradGradGradGradGrad

 Leave Link  103 at Fri Jul  9 19:23:28 2021, MaxMem=  4194304000 cpu:        29.2
 (Enter /home/minenky/programs//g09/l9999.exe)
 1\1\GINC-CN506-02-R\Freq\RwB97XD\def2TZVP\C4H8\MINENKY\09-Jul-2021\0\\
 #P Geom=AllCheck Guess=TCheck SCRF=Check GenChk RwB97XD/def2TZVP Freq\
 \The PBEPBE optimization and frequencies\\0,1\C,-1.8477664049,0.015934
 6377,-0.2775881122\C,-0.7172586845,-0.292079069,0.3384878937\C,0.53796
 19779,0.5231198934,0.3020426662\H,-1.9420530181,0.923540527,-0.8646097
 475\H,-2.7197183397,-0.6232582973,-0.2174657736\H,-0.6652548663,-1.214
 4658143,0.9134869999\H,0.7921739493,0.8315294013,1.3214348763\H,0.3634
 265758,1.4377645992,-0.269894759\C,1.7163329672,-0.2485513668,-0.29087
 06964\H,2.6256182587,0.3543172757,-0.2781313368\H,1.5112036007,-0.5353
 84414,-1.3236705728\H,1.911741984,-1.1614603729,0.2760195621\\Version=
 AM64L-G09RevD.01\State=1-A\HF=-157.2257877\RMSD=1.077e-09\RMSF=7.440e-
 07\ZeroPoint=0.1090861\Thermal=0.1143271\Dipole=0.1545876,0.0216707,0.
 0398765\DipoleDeriv=-0.2037858,0.0720899,0.0322447,0.0762291,-0.002346
 7,-0.1518362,-0.0013338,-0.1706625,-0.222331,0.2280993,0.0735228,0.136
 3343,0.1606234,0.0245018,-0.1387893,0.1250172,-0.1419746,-0.1096768,0.
 0104439,-0.0379975,-0.0288459,-0.0126101,0.088967,0.035593,-0.0224681,
 0.0205743,0.1538059,0.0588359,-0.0460207,-0.0070586,0.0100345,-0.03957
 61,0.114797,-0.0391745,0.0960602,0.0738744,-0.0474612,-0.0662922,-0.02
 91318,-0.1064302,0.026906,0.0416776,-0.0159913,0.0564168,0.1213994,0.0
 251711,-0.0073143,-0.0346223,-0.0263299,-0.0611424,0.1135219,-0.037683
 4,0.1063694,0.057341,-0.0317346,-0.0150085,-0.0350014,-0.0506239,0.042
 6124,-0.0570946,-0.0257164,-0.0798825,-0.1176748,-0.0099413,0.0631237,
 -0.0187282,0.0146631,-0.1017908,0.0595796,0.0057922,0.1037697,0.004849
 4,0.0372886,0.0166889,0.0137659,-0.0603827,0.0831744,-0.0410507,0.0127
 474,-0.0177288,0.0919924,-0.154564,-0.0668399,0.0113266,-0.0999779,-0.
 0065532,-0.003709,0.0133875,-0.0139673,0.0725504,0.0380961,-0.004583,-
 0.0580168,0.0255987,0.0407709,-0.0459405,0.0047523,-0.0644727,-0.11984
 95,0.0495521,0.0186307,0.0177336,0.0692059,-0.0955233,0.0732514,-0.019
 3291,0.105498,-0.0062808\Polar=62.4813613,-1.0130565,43.7814185,5.2695
 585,-2.4780717,42.5989409\PG=C01 [X(C4H8)]\NImag=0\\0.76623690,0.04086
 485,0.52572112,0.22299109,-0.23730086,0.33874877,-0.44475473,0.0851677
 0,-0.19947122,0.73166467,0.08637167,-0.12659751,0.07723786,-0.01834612
 ,0.51344788,-0.19999862,0.07684778,-0.17588429,0.22217430,-0.21999751,
 0.37657671,-0.02720093,-0.01761174,-0.00321664,-0.17367913,-0.06520079
 ,-0.00123280,0.47307933,0.00380304,0.00937496,0.00059538,-0.06852459,-
 0.13445720,0.00858663,0.00488703,0.55346202,-0.01577381,-0.00730318,0.
 00621068,0.00225709,0.01107455,-0.08103811,0.03867110,-0.03764658,0.56
 510035,-0.05721987,0.01139006,-0.01478229,0.00149290,0.02362167,-0.016
 37816,0.00071366,0.00330570,0.00158084,0.05327722,0.01528311,-0.248561
 55,0.13473611,-0.00126479,-0.00398159,0.00595814,0.00003066,-0.0010239
 0,-0.00459655,-0.01766758,0.25898813,-0.01697274,0.13315333,-0.1237363
 5,-0.00111400,0.01544175,-0.00295830,0.00318632,-0.00345976,-0.0054146
 1,0.02185399,-0.14938928,0.12294463,-0.23599935,-0.13804120,0.00810063
 ,-0.01824036,-0.01871045,0.00321960,-0.00004989,0.00053482,-0.00566896
 ,0.00467224,0.00343315,-0.00118896,0.25068175,-0.14248507,-0.15550691,
 0.01935287,0.00892303,0.00769037,0.00092467,-0.00069380,0.00333034,0.0
 0613421,-0.01878223,-0.00975859,0.00026144,0.15147525,0.15454430,0.010
 98165,0.02098465,-0.04390708,-0.01418625,-0.00962052,0.00424998,-0.003
 90464,0.00699292,0.00811970,0.01229978,0.00857000,0.00169095,-0.006576
 08,-0.02218629,0.03509782,0.00108461,0.02490797,-0.01743471,-0.0562717
 8,0.00510359,-0.00808987,0.00240821,-0.02206366,0.01393310,-0.00275401
 ,-0.00043472,-0.00520937,0.00000370,0.00128298,0.00227439,0.05725307,-
 0.00221804,-0.00314198,0.00546407,0.00868646,-0.24699783,0.12714162,0.
 00242051,-0.01283864,0.01013835,-0.00061834,0.00360428,0.00468040,0.00
 166675,-0.00097090,-0.00366191,-0.00653818,0.25962550,-0.00119500,0.01
 593281,-0.00283118,-0.01030338,0.12539536,-0.12253059,-0.00139774,0.00
 050978,0.00254029,-0.00519825,0.00476461,0.00699108,0.00206401,-0.0038
 4795,-0.00499307,0.01562487,-0.14313246,0.11894315,-0.00237922,-0.0028
 6913,0.00144631,-0.01084288,-0.00714605,-0.02862787,-0.05773436,-0.018
 49469,-0.05921689,0.00050030,-0.00075500,-0.00107209,-0.00149039,0.001
 22691,0.00170093,0.00073676,0.00022628,0.00087148,0.07027975,-0.001286
 36,-0.00136380,0.00073399,-0.00517444,-0.00421817,-0.01813055,-0.01788
 571,-0.06895104,-0.06293120,-0.00003734,-0.00001337,-0.00022183,-0.000
 59361,0.00072308,0.00049038,0.00037309,0.00031198,0.00047144,0.0184793
 9,0.07120432,0.00044571,-0.00088695,0.00063833,-0.00156314,0.00084346,
 0.00234756,-0.05601138,-0.06213295,-0.27035104,0.00025039,-0.00023346,
 -0.00014776,-0.00009183,-0.00009087,-0.00003440,-0.00058044,-0.0004535
 0,0.00031945,0.06069337,0.07254208,0.29378393,0.00136187,-0.00066639,0
 .00108459,0.00311508,-0.02525965,0.01632840,-0.05459150,0.03516537,-0.
 02381677,-0.00026717,0.00074206,-0.00066251,0.00028246,0.00027976,-0.0
 0001450,-0.00413429,-0.00310160,-0.00033117,-0.00177956,0.00649827,-0.
 00381057,0.06364071,0.00162328,0.00130955,-0.00049370,0.00244956,-0.01
 761600,0.01135975,0.03311020,-0.22787336,0.11438336,-0.00088232,0.0005
 4030,-0.00048261,0.00019158,0.00035678,-0.00033483,-0.00302619,-0.0007
 6242,0.00012836,-0.00143886,0.00817092,-0.00451549,-0.03731688,0.24896
 789,-0.00012810,-0.00142341,0.00032024,-0.00027817,0.00082384,-0.00118
 422,-0.02296976,0.11626732,-0.12445745,0.00032607,0.00004616,0.0002556
 5,0.00009468,-0.00018738,0.00001384,-0.00008023,0.00002840,0.00157777,
 -0.00425869,0.02510945,-0.01541948,0.02311309,-0.12635790,0.13028036,-
 0.00025634,-0.00190540,0.00151585,-0.03349059,0.01319054,0.01098453,-0
 .14140087,0.04750428,0.03668540,-0.00038180,0.00045421,0.00076163,0.00
 021682,-0.00096604,-0.00201520,0.00197990,0.00023964,-0.00052971,0.004
 65858,-0.00224218,-0.00218795,-0.00533795,0.00321555,0.00305070,0.5173
 9903,-0.00308683,-0.00252022,-0.00053388,-0.01140644,0.01415386,0.0079
 7736,0.04373125,-0.11187037,-0.02058600,-0.00025178,0.00044609,0.00030
 235,-0.00016368,-0.00046881,-0.00159194,-0.00073128,0.00043215,-0.0000
 1109,0.00881452,-0.00564802,-0.00396781,0.02228246,-0.01340432,-0.0127
 5531,0.04416561,0.54731053,-0.00152767,-0.00066296,-0.00032591,0.00219
 259,0.00116939,-0.00011029,0.03499656,-0.02255994,-0.09578672,-0.00001
 747,0.00016918,0.00042156,-0.00016391,-0.00035582,-0.00031982,0.000009
 36,-0.00025866,0.00020612,0.02716383,-0.01744173,-0.01276355,-0.014136
 14,0.00829051,0.00764748,0.03131713,-0.01913708,0.55892281,-0.00073691
 ,-0.00089344,0.00038312,-0.00281156,0.00501117,0.00196756,-0.01995493,
 -0.01503365,-0.00053852,-0.00009622,0.00018438,0.00018881,-0.00003730,
 -0.00024271,-0.00063839,0.00017295,-0.00014967,-0.00002057,0.00108755,
 -0.00028091,0.00028273,0.00039980,0.00011484,-0.00074296,-0.23009035,-
 0.12473727,-0.00391622,0.25103491,0.00071622,0.00074312,0.00019405,0.0
 0172163,-0.00215895,-0.00139206,0.01714251,0.01049262,-0.00033142,0.00
 006046,-0.00014974,-0.00020944,0.00006888,0.00013199,0.00040067,0.0002
 8537,0.00026193,-0.00021251,-0.00086672,0.00070980,0.00050323,-0.00054
 926,0.00071148,0.00051092,-0.12609528,-0.13254260,-0.00231433,0.134970
 47,0.14105586,0.00065581,0.00048287,0.00035173,0.00179189,-0.00221895,
 -0.00039042,0.01126728,0.00840581,-0.00097970,0.00003834,-0.00008290,-
 0.00005572,0.00009163,0.00007174,0.00025075,-0.00028405,-0.00010879,-0
 .00002785,-0.00024189,0.00070753,0.00018119,-0.00060978,-0.00007266,0.
 00032175,-0.00469028,-0.00299200,-0.04837889,0.00240128,0.00411516,0.0
 4749840,0.00003095,-0.00001050,-0.00072194,0.00231870,0.00017912,0.000
 99203,0.00381859,0.00675036,0.02640813,-0.00002189,0.00008567,0.000036
 60,0.00000324,0.00004312,0.00004065,-0.00006533,-0.00001834,0.00004377
 ,-0.00405111,0.00289972,0.00259193,0.00112755,-0.00061284,-0.00071381,
 -0.05836574,-0.01485297,-0.05236019,-0.00467609,-0.00521504,-0.0257156
 2,0.06191028,0.00021820,0.00018872,0.00016010,-0.00102266,0.00014092,0
 .00079051,-0.00297444,-0.00492680,-0.01708673,-0.00000758,-0.00002239,
 0.00007467,0.00009033,-0.00012462,-0.00008849,0.00011385,-0.00001025,0
 .00002152,0.00326732,-0.00105143,-0.00137410,-0.00073207,0.00009270,0.
 00002217,-0.01441647,-0.06529909,-0.06338687,-0.00270634,-0.00486828,-
 0.01764729,0.01251945,0.06772302,0.00054815,0.00031548,0.00041462,-0.0
 0108345,-0.00003869,0.00042563,-0.00191571,-0.00289187,-0.01158608,0.0
 0000521,0.00001221,0.00001587,0.00012912,-0.00007752,-0.00010635,0.000
 09473,0.00000308,-0.00016440,0.00225890,-0.00131408,0.00060226,0.00013
 422,-0.00019011,0.00081593,-0.05066063,-0.06385131,-0.28709957,0.00017
 337,0.00066883,0.00124486,0.05362285,0.07216481,0.31056711,-0.00016698
 ,-0.00033278,0.00010522,0.00149968,0.00118531,-0.00133909,-0.00540817,
 0.02216599,-0.01452073,0.00008464,-0.00009116,0.00019230,-0.00004293,-
 0.00006121,0.00003765,-0.00041379,-0.00059548,0.00037167,0.00101459,-0
 .00074991,-0.00001882,-0.00381700,0.00257206,0.00258718,-0.05493069,0.
 03623639,-0.02355785,0.00570814,-0.02223925,0.01529538,-0.00202915,0.0
 0565041,-0.00330676,0.05850165,0.00019592,0.00035451,-0.00014598,-0.00
 120934,0.00059421,-0.00006634,0.00304431,-0.01471863,0.00875120,-0.000
 13073,-0.00006767,-0.00015102,0.00004817,0.00005296,0.00004535,0.00072
 717,0.00048618,-0.00001986,-0.00044396,0.00012573,-0.00023364,0.002657
 93,-0.00049353,-0.00208427,0.03685554,-0.23058920,0.11648830,0.0037631
 3,-0.01438724,0.00933949,-0.00176776,0.00815750,-0.00480082,-0.0437403
 8,0.25048518,-0.00002649,-0.00013957,0.00000043,-0.00041625,-0.0001105
 4,0.00049635,0.00252741,-0.01266673,0.00764268,0.00002156,0.00004579,-
 0.00000699,-0.00000993,0.00000090,-0.00006233,-0.00025779,0.00015940,-
 0.00003077,-0.00071740,-0.00001547,0.00084351,0.00272114,-0.00171467,-
 0.00017188,-0.02423148,0.11714672,-0.12241322,0.00045979,-0.00193311,-
 0.00001611,-0.00422439,0.02634969,-0.01512989,0.02415383,-0.12712241,0
 .12884822\\-0.00000030,0.00000037,0.00000019,-0.00000057,-0.00000075,0
 .00000078,0.00000130,-0.00000042,-0.00000191,0.00000012,-0.00000087,-0
 .00000075,0.00000003,-0.00000038,0.00000057,0.00000057,0.00000068,0.00
 000084,0.00000004,0.00000120,-0.00000036,-0.00000019,0.00000011,-0.000
 00080,-0.00000162,0.00000132,0.00000098,0.00000008,-0.00000027,-0.0000
 0039,0.00000015,-0.00000091,0.00000013,0.00000038,-0.00000009,0.000000
 72\\\@


 Once you get people laughing, they're
 listening and you can tell them almost anything.
                                 -- Herb Gardner
 Job cpu time:       0 days  0 hours 31 minutes  5.4 seconds.
 File lengths (MBytes):  RWF=     33 Int=      0 D2E=      0 Chk=      3 Scr=      1
 Normal termination of Gaussian 09 at Fri Jul  9 19:23:28 2021.
