 Entering Gaussian System, Link 0=g09
 Initial command:
 /home/minenky/programs//g09/l1.exe "/local/scratch/minenky/m1_00_106-97-80_C4H10_wB97XD/Gau-116591.inp" -scrdir="/local/scratch/minenky/m1_00_106-97-80_C4H10_wB97XD/"
 Entering Link 1 = /home/minenky/programs//g09/l1.exe PID=    116592.
  
 Copyright (c) 1988,1990,1992,1993,1995,1998,2003,2009,2013,
            Gaussian, Inc.  All Rights Reserved.
  
 This is part of the Gaussian(R) 09 program.  It is based on
 the Gaussian(R) 03 system (copyright 2003, Gaussian, Inc.),
 the Gaussian(R) 98 system (copyright 1998, Gaussian, Inc.),
 the Gaussian(R) 94 system (copyright 1995, Gaussian, Inc.),
 the Gaussian 92(TM) system (copyright 1992, Gaussian, Inc.),
 the Gaussian 90(TM) system (copyright 1990, Gaussian, Inc.),
 the Gaussian 88(TM) system (copyright 1988, Gaussian, Inc.),
 the Gaussian 86(TM) system (copyright 1986, Carnegie Mellon
 University), and the Gaussian 82(TM) system (copyright 1983,
 Carnegie Mellon University). Gaussian is a federally registered
 trademark of Gaussian, Inc.
  
 This software contains proprietary and confidential information,
 including trade secrets, belonging to Gaussian, Inc.
  
 This software is provided under written license and may be
 used, copied, transmitted, or stored only in accord with that
 written license.
  
 The following legend is applicable only to US Government
 contracts under FAR:
  
                    RESTRICTED RIGHTS LEGEND
  
 Use, reproduction and disclosure by the US Government is
 subject to restrictions as set forth in subparagraphs (a)
 and (c) of the Commercial Computer Software - Restricted
 Rights clause in FAR 52.227-19.
  
 Gaussian, Inc.
 340 Quinnipiac St., Bldg. 40, Wallingford CT 06492
  
  
 ---------------------------------------------------------------
 Warning -- This program may not be used in any manner that
 competes with the business of Gaussian, Inc. or will provide
 assistance to any competitor of Gaussian, Inc.  The licensee
 of this program is prohibited from giving any competitor of
 Gaussian, Inc. access to this program.  By using this program,
 the user acknowledges that Gaussian, Inc. is engaged in the
 business of creating and licensing software in the field of
 computational chemistry and represents and warrants to the
 licensee that it is not a competitor of Gaussian, Inc. and that
 it will not use this program in any manner prohibited above.
 ---------------------------------------------------------------
  

 Cite this work as:
 Gaussian 09, Revision D.01,
 M. J. Frisch, G. W. Trucks, H. B. Schlegel, G. E. Scuseria, 
 M. A. Robb, J. R. Cheeseman, G. Scalmani, V. Barone, B. Mennucci, 
 G. A. Petersson, H. Nakatsuji, M. Caricato, X. Li, H. P. Hratchian, 
 A. F. Izmaylov, J. Bloino, G. Zheng, J. L. Sonnenberg, M. Hada, 
 M. Ehara, K. Toyota, R. Fukuda, J. Hasegawa, M. Ishida, T. Nakajima, 
 Y. Honda, O. Kitao, H. Nakai, T. Vreven, J. A. Montgomery, Jr., 
 J. E. Peralta, F. Ogliaro, M. Bearpark, J. J. Heyd, E. Brothers, 
 K. N. Kudin, V. N. Staroverov, T. Keith, R. Kobayashi, J. Normand, 
 K. Raghavachari, A. Rendell, J. C. Burant, S. S. Iyengar, J. Tomasi, 
 M. Cossi, N. Rega, J. M. Millam, M. Klene, J. E. Knox, J. B. Cross, 
 V. Bakken, C. Adamo, J. Jaramillo, R. Gomperts, R. E. Stratmann, 
 O. Yazyev, A. J. Austin, R. Cammi, C. Pomelli, J. W. Ochterski, 
 R. L. Martin, K. Morokuma, V. G. Zakrzewski, G. A. Voth, 
 P. Salvador, J. J. Dannenberg, S. Dapprich, A. D. Daniels, 
 O. Farkas, J. B. Foresman, J. V. Ortiz, J. Cioslowski, 
 and D. J. Fox, Gaussian, Inc., Wallingford CT, 2013.
 
 ******************************************
 Gaussian 09:  AM64L-G09RevD.01 24-Apr-2013
                 9-Jul-2021 
 ******************************************
 %Mem=32000MB
 %NProcShared=16
 Will use up to   16 processors via shared memory.
 %Chk=m1_00_106-97-80_C4H10_wB97XD
 ----------------------------------------------------------------------
 #P wB97XD/def2tzvp opt=(tight) freq integral(Grid=ultrafine) # SCF(Max
 Cycle=380) 5d 7f GFPrint
 ----------------------------------------------------------------------
 1/7=10,14=-1,18=20,19=15,26=4,38=1/1,3;
 2/9=110,12=2,17=6,18=5,40=1/2;
 3/5=44,7=101,8=11,11=2,16=1,24=100,25=1,30=1,71=1,74=-58,75=-5/1,2,3;
 4//1;
 5/5=2,7=380,38=5/2;
 6/7=2,8=2,9=2,10=2,28=1/1;
 7//1,2,3,16;
 1/7=10,14=-1,18=20,19=15,26=4/3(2);
 2/9=110/2;
 99//99;
 2/9=110/2;
 3/5=44,7=101,8=11,11=2,16=1,25=1,30=1,71=1,74=-58,75=-5/1,2,3;
 4/5=5,16=3,69=1/1;
 5/5=2,7=380,38=5/2;
 7//1,2,3,16;
 1/7=10,14=-1,18=20,19=15,26=4/3(-5);
 2/9=110/2;
 6/7=2,8=2,9=2,10=2,19=2,28=1/1;
 99/9=1/99;
 Leave Link    1 at Fri Jul  9 19:19:32 2021, MaxMem=  4194304000 cpu:         1.4
 (Enter /home/minenky/programs//g09/l101.exe)
 ---------------------------------------
 The PBEPBE optimization and frequencies
 ---------------------------------------
 Symbolic Z-matrix:
 Charge =  0 Multiplicity = 1
 C                     0.70201   1.82628   0. 
 C                     0.70201   0.30042   0. 
 H                     1.71723   2.22739   0. 
 H                     0.18895   2.21889   0.88139 
 H                     0.18895   2.21889  -0.88139 
 C                    -0.70201  -0.30042   0. 
 H                     1.24889  -0.0668    0.87489 
 H                     1.24889  -0.0668   -0.87489 
 C                    -0.70201  -1.82628   0. 
 H                    -1.24889   0.0668    0.87489 
 H                    -1.24889   0.0668   -0.87489 
 H                    -1.71723  -2.22739   0. 
 H                    -0.18895  -2.21889   0.88139 
 H                    -0.18895  -2.21889  -0.88139 
 
 NAtoms=     14 NQM=       14 NQMF=       0 NMMI=      0 NMMIF=      0
                NMic=       0 NMicF=      0.
                    Isotopes and Nuclear Properties:
 (Nuclear quadrupole moments (NQMom) in fm**2, nuclear magnetic moments (NMagM)
  in nuclear magnetons)

  Atom         1           2           3           4           5           6           7           8           9          10
 IAtWgt=          12          12           1           1           1          12           1           1          12           1
 AtmWgt=  12.0000000  12.0000000   1.0078250   1.0078250   1.0078250  12.0000000   1.0078250   1.0078250  12.0000000   1.0078250
 NucSpn=           0           0           1           1           1           0           1           1           0           1
 AtZEff=   0.0000000   0.0000000   0.0000000   0.0000000   0.0000000   0.0000000   0.0000000   0.0000000   0.0000000   0.0000000
 NQMom=    0.0000000   0.0000000   0.0000000   0.0000000   0.0000000   0.0000000   0.0000000   0.0000000   0.0000000   0.0000000
 NMagM=    0.0000000   0.0000000   2.7928460   2.7928460   2.7928460   0.0000000   2.7928460   2.7928460   0.0000000   2.7928460
 AtZNuc=   6.0000000   6.0000000   1.0000000   1.0000000   1.0000000   6.0000000   1.0000000   1.0000000   6.0000000   1.0000000

  Atom        11          12          13          14
 IAtWgt=           1           1           1           1
 AtmWgt=   1.0078250   1.0078250   1.0078250   1.0078250
 NucSpn=           1           1           1           1
 AtZEff=   0.0000000   0.0000000   0.0000000   0.0000000
 NQMom=    0.0000000   0.0000000   0.0000000   0.0000000
 NMagM=    2.7928460   2.7928460   2.7928460   2.7928460
 AtZNuc=   1.0000000   1.0000000   1.0000000   1.0000000
 Leave Link  101 at Fri Jul  9 19:19:32 2021, MaxMem=  4194304000 cpu:         0.6
 (Enter /home/minenky/programs//g09/l103.exe)

 GradGradGradGradGradGradGradGradGradGradGradGradGradGradGradGradGradGrad
 Berny optimization.
 Initialization pass.
                           ----------------------------
                           !    Initial Parameters    !
                           ! (Angstroms and Degrees)  !
 --------------------------                            --------------------------
 ! Name  Definition              Value          Derivative Info.                !
 --------------------------------------------------------------------------------
 ! R1    R(1,2)                  1.5259         estimate D2E/DX2                !
 ! R2    R(1,3)                  1.0916         estimate D2E/DX2                !
 ! R3    R(1,4)                  1.0928         estimate D2E/DX2                !
 ! R4    R(1,5)                  1.0928         estimate D2E/DX2                !
 ! R5    R(2,6)                  1.5272         estimate D2E/DX2                !
 ! R6    R(2,7)                  1.0952         estimate D2E/DX2                !
 ! R7    R(2,8)                  1.0952         estimate D2E/DX2                !
 ! R8    R(6,9)                  1.5259         estimate D2E/DX2                !
 ! R9    R(6,10)                 1.0952         estimate D2E/DX2                !
 ! R10   R(6,11)                 1.0952         estimate D2E/DX2                !
 ! R11   R(9,12)                 1.0916         estimate D2E/DX2                !
 ! R12   R(9,13)                 1.0928         estimate D2E/DX2                !
 ! R13   R(9,14)                 1.0928         estimate D2E/DX2                !
 ! A1    A(2,1,3)              111.5584         estimate D2E/DX2                !
 ! A2    A(2,1,4)              111.0549         estimate D2E/DX2                !
 ! A3    A(2,1,5)              111.0549         estimate D2E/DX2                !
 ! A4    A(3,1,4)              107.7362         estimate D2E/DX2                !
 ! A5    A(3,1,5)              107.7362         estimate D2E/DX2                !
 ! A6    A(4,1,5)              107.5189         estimate D2E/DX2                !
 ! A7    A(1,2,6)              113.1684         estimate D2E/DX2                !
 ! A8    A(1,2,7)              109.5917         estimate D2E/DX2                !
 ! A9    A(1,2,8)              109.5917         estimate D2E/DX2                !
 ! A10   A(6,2,7)              109.0969         estimate D2E/DX2                !
 ! A11   A(6,2,8)              109.0969         estimate D2E/DX2                !
 ! A12   A(7,2,8)              106.0455         estimate D2E/DX2                !
 ! A13   A(2,6,9)              113.1684         estimate D2E/DX2                !
 ! A14   A(2,6,10)             109.0969         estimate D2E/DX2                !
 ! A15   A(2,6,11)             109.0969         estimate D2E/DX2                !
 ! A16   A(9,6,10)             109.5917         estimate D2E/DX2                !
 ! A17   A(9,6,11)             109.5917         estimate D2E/DX2                !
 ! A18   A(10,6,11)            106.0455         estimate D2E/DX2                !
 ! A19   A(6,9,12)             111.5584         estimate D2E/DX2                !
 ! A20   A(6,9,13)             111.0549         estimate D2E/DX2                !
 ! A21   A(6,9,14)             111.0549         estimate D2E/DX2                !
 ! A22   A(12,9,13)            107.7362         estimate D2E/DX2                !
 ! A23   A(12,9,14)            107.7362         estimate D2E/DX2                !
 ! A24   A(13,9,14)            107.5189         estimate D2E/DX2                !
 ! D1    D(3,1,2,6)            180.0            estimate D2E/DX2                !
 ! D2    D(3,1,2,7)             57.9912         estimate D2E/DX2                !
 ! D3    D(3,1,2,8)            -57.9912         estimate D2E/DX2                !
 ! D4    D(4,1,2,6)             59.7962         estimate D2E/DX2                !
 ! D5    D(4,1,2,7)            -62.2126         estimate D2E/DX2                !
 ! D6    D(4,1,2,8)           -178.1949         estimate D2E/DX2                !
 ! D7    D(5,1,2,6)            -59.7962         estimate D2E/DX2                !
 ! D8    D(5,1,2,7)            178.1949         estimate D2E/DX2                !
 ! D9    D(5,1,2,8)             62.2126         estimate D2E/DX2                !
 ! D10   D(1,2,6,9)            180.0            estimate D2E/DX2                !
 ! D11   D(1,2,6,10)           -57.7147         estimate D2E/DX2                !
 ! D12   D(1,2,6,11)            57.7147         estimate D2E/DX2                !
 ! D13   D(7,2,6,9)            -57.7147         estimate D2E/DX2                !
 ! D14   D(7,2,6,10)            64.5705         estimate D2E/DX2                !
 ! D15   D(7,2,6,11)           180.0            estimate D2E/DX2                !
 ! D16   D(8,2,6,9)             57.7147         estimate D2E/DX2                !
 ! D17   D(8,2,6,10)           180.0            estimate D2E/DX2                !
 ! D18   D(8,2,6,11)           -64.5705         estimate D2E/DX2                !
 ! D19   D(2,6,9,12)           180.0            estimate D2E/DX2                !
 ! D20   D(2,6,9,13)            59.7962         estimate D2E/DX2                !
 ! D21   D(2,6,9,14)           -59.7962         estimate D2E/DX2                !
 ! D22   D(10,6,9,12)           57.9912         estimate D2E/DX2                !
 ! D23   D(10,6,9,13)          -62.2126         estimate D2E/DX2                !
 ! D24   D(10,6,9,14)          178.1949         estimate D2E/DX2                !
 ! D25   D(11,6,9,12)          -57.9912         estimate D2E/DX2                !
 ! D26   D(11,6,9,13)         -178.1949         estimate D2E/DX2                !
 ! D27   D(11,6,9,14)           62.2126         estimate D2E/DX2                !
 --------------------------------------------------------------------------------
 Trust Radius=3.00D-01 FncErr=1.00D-07 GrdErr=1.00D-06
 Number of steps in this run=     74 maximum allowed number of steps=    100.
 GradGradGradGradGradGradGradGradGradGradGradGradGradGradGradGradGradGrad

 Leave Link  103 at Fri Jul  9 19:19:33 2021, MaxMem=  4194304000 cpu:         0.0
 (Enter /home/minenky/programs//g09/l202.exe)
                          Input orientation:                          
 ---------------------------------------------------------------------
 Center     Atomic      Atomic             Coordinates (Angstroms)
 Number     Number       Type             X           Y           Z
 ---------------------------------------------------------------------
      1          6           0        0.702010    1.826283    0.000000
      2          6           0        0.702010    0.300424    0.000000
      3          1           0        1.717233    2.227386    0.000000
      4          1           0        0.188950    2.218886    0.881392
      5          1           0        0.188950    2.218886   -0.881392
      6          6           0       -0.702010   -0.300424    0.000000
      7          1           0        1.248889   -0.066797    0.874889
      8          1           0        1.248889   -0.066797   -0.874889
      9          6           0       -0.702010   -1.826283    0.000000
     10          1           0       -1.248889    0.066797    0.874889
     11          1           0       -1.248889    0.066797   -0.874889
     12          1           0       -1.717233   -2.227386    0.000000
     13          1           0       -0.188950   -2.218886    0.881392
     14          1           0       -0.188950   -2.218886   -0.881392
 ---------------------------------------------------------------------
                    Distance matrix (angstroms):
                    1          2          3          4          5
     1  C    0.000000
     2  C    1.525859   0.000000
     3  H    1.091587   2.178040   0.000000
     4  H    1.092804   2.172689   1.764249   0.000000
     5  H    1.092804   2.172689   1.764249   1.762784   0.000000
     6  C    2.548363   1.527184   3.498937   2.813820   2.813820
     7  H    2.155982   1.095152   2.499610   2.519496   3.071212
     8  H    2.155982   1.095152   2.499610   3.071212   2.519496
     9  C    3.913120   2.548363   4.720696   4.234862   4.234862
    10  H    2.768976   2.150818   3.772460   2.588225   3.127841
    11  H    2.768976   2.150818   3.772460   3.127841   2.588225
    12  H    4.720696   3.498937   5.624993   4.917288   4.917288
    13  H    4.234862   2.813820   4.917288   4.453833   4.789993
    14  H    4.234862   2.813820   4.917288   4.789993   4.453833
                    6          7          8          9         10
     6  C    0.000000
     7  H    2.150818   0.000000
     8  H    2.150818   1.749778   0.000000
     9  C    1.525859   2.768976   2.768976   0.000000
    10  H    1.095152   2.501348   3.052616   2.155982   0.000000
    11  H    1.095152   3.052616   2.501348   2.155982   1.749778
    12  H    2.178040   3.772460   3.772460   1.091587   2.499610
    13  H    2.172689   2.588225   3.127841   1.092804   2.519496
    14  H    2.172689   3.127841   2.588225   1.092804   3.071212
                   11         12         13         14
    11  H    0.000000
    12  H    2.499610   0.000000
    13  H    3.071212   1.764249   0.000000
    14  H    2.519496   1.764249   1.762784   0.000000
 Stoichiometry    C4H10
 Framework group  C2H[SGH(C4H2),X(H8)]
 Deg. of freedom    11
 Full point group                 C2H     NOp   4
 Largest Abelian subgroup         C2H     NOp   4
 Largest concise Abelian subgroup C2H     NOp   4
                         Standard orientation:                         
 ---------------------------------------------------------------------
 Center     Atomic      Atomic             Coordinates (Angstroms)
 Number     Number       Type             X           Y           Z
 ---------------------------------------------------------------------
      1          6           0        0.702010    1.826283    0.000000
      2          6           0        0.702010    0.300424    0.000000
      3          1           0        1.717233    2.227386    0.000000
      4          1           0        0.188950    2.218886    0.881392
      5          1           0        0.188950    2.218886   -0.881392
      6          6           0       -0.702010   -0.300424    0.000000
      7          1           0        1.248889   -0.066797    0.874889
      8          1           0        1.248889   -0.066797   -0.874889
      9          6           0       -0.702010   -1.826283    0.000000
     10          1           0       -1.248889    0.066797    0.874889
     11          1           0       -1.248889    0.066797   -0.874889
     12          1           0       -1.717233   -2.227386    0.000000
     13          1           0       -0.188950   -2.218886    0.881392
     14          1           0       -0.188950   -2.218886   -0.881392
 ---------------------------------------------------------------------
 Rotational constants (GHZ):     23.5729570      3.6330417      3.4121771
 Leave Link  202 at Fri Jul  9 19:19:34 2021, MaxMem=  4194304000 cpu:         3.0
 (Enter /home/minenky/programs//g09/l301.exe)
 Standard basis: def2TZVP (5D, 7F)
 ======================================================================================================
                                       Pseudopotential Parameters
 ======================================================================================================
  Center     Atomic      Valence      Angular      Power
  Number     Number     Electrons     Momentum     of R      Exponent        Coefficient   SO-Coeffient
 ======================================================================================================
    1          6
                                   No pseudopotential on this center.
    2          6
                                   No pseudopotential on this center.
    3          1
                                   No pseudopotential on this center.
    4          1
                                   No pseudopotential on this center.
    5          1
                                   No pseudopotential on this center.
    6          6
                                   No pseudopotential on this center.
    7          1
                                   No pseudopotential on this center.
    8          1
                                   No pseudopotential on this center.
    9          6
                                   No pseudopotential on this center.
   10          1
                                   No pseudopotential on this center.
   11          1
                                   No pseudopotential on this center.
   12          1
                                   No pseudopotential on this center.
   13          1
                                   No pseudopotential on this center.
   14          1
                                   No pseudopotential on this center.
 ======================================================================================================
 Ernie: Thresh=  0.10000D-02 Tol=  0.10000D-05 Strict=F.
 AO basis set (Overlap normalization):
 Atom C1       Shell     1 S   6     bf    1 -     1          1.326606642547          3.451174711145          0.000000000000
      0.1357534968D+05  0.6064550360D-03
      0.2035233368D+04  0.4697908888D-02
      0.4632256236D+03  0.2433247765D-01
      0.1312001960D+03  0.9739996831D-01
      0.4285301589D+02  0.3019558425D+00
      0.1558418577D+02  0.6623360914D+00
 Atom C1       Shell     2 S   2     bf    2 -     2          1.326606642547          3.451174711145          0.000000000000
      0.6206713851D+01  0.6559530854D+00
      0.2576489653D+01  0.3758563329D+00
 Atom C1       Shell     3 S   1     bf    3 -     3          1.326606642547          3.451174711145          0.000000000000
      0.5769633942D+00  0.1000000000D+01
 Atom C1       Shell     4 S   1     bf    4 -     4          1.326606642547          3.451174711145          0.000000000000
      0.2297283136D+00  0.1000000000D+01
 Atom C1       Shell     5 S   1     bf    5 -     5          1.326606642547          3.451174711145          0.000000000000
      0.9516444003D-01  0.1000000000D+01
 Atom C1       Shell     6 P   4     bf    6 -     8          1.326606642547          3.451174711145          0.000000000000
      0.3469723224D+02  0.1132722000D-01
      0.7958262283D+01  0.7616965920D-01
      0.2378082688D+01  0.3019225220D+00
      0.8143320818D+00  0.7278502735D+00
 Atom C1       Shell     7 P   1     bf    9 -    11          1.326606642547          3.451174711145          0.000000000000
      0.2888754725D+00  0.1000000000D+01
 Atom C1       Shell     8 P   1     bf   12 -    14          1.326606642547          3.451174711145          0.000000000000
      0.1005682367D+00  0.1000000000D+01
 Atom C1       Shell     9 D   1     bf   15 -    19          1.326606642547          3.451174711145          0.000000000000
      0.1097000000D+01  0.1000000000D+01
 Atom C1       Shell    10 D   1     bf   20 -    24          1.326606642547          3.451174711145          0.000000000000
      0.3180000000D+00  0.1000000000D+01
 Atom C1       Shell    11 F   1     bf   25 -    31          1.326606642547          3.451174711145          0.000000000000
      0.7610000000D+00  0.1000000000D+01
 Atom C2       Shell    12 S   6     bf   32 -    32          1.326606642547          0.567719083746          0.000000000000
      0.1357534968D+05  0.6064550360D-03
      0.2035233368D+04  0.4697908888D-02
      0.4632256236D+03  0.2433247765D-01
      0.1312001960D+03  0.9739996831D-01
      0.4285301589D+02  0.3019558425D+00
      0.1558418577D+02  0.6623360914D+00
 Atom C2       Shell    13 S   2     bf   33 -    33          1.326606642547          0.567719083746          0.000000000000
      0.6206713851D+01  0.6559530854D+00
      0.2576489653D+01  0.3758563329D+00
 Atom C2       Shell    14 S   1     bf   34 -    34          1.326606642547          0.567719083746          0.000000000000
      0.5769633942D+00  0.1000000000D+01
 Atom C2       Shell    15 S   1     bf   35 -    35          1.326606642547          0.567719083746          0.000000000000
      0.2297283136D+00  0.1000000000D+01
 Atom C2       Shell    16 S   1     bf   36 -    36          1.326606642547          0.567719083746          0.000000000000
      0.9516444003D-01  0.1000000000D+01
 Atom C2       Shell    17 P   4     bf   37 -    39          1.326606642547          0.567719083746          0.000000000000
      0.3469723224D+02  0.1132722000D-01
      0.7958262283D+01  0.7616965920D-01
      0.2378082688D+01  0.3019225220D+00
      0.8143320818D+00  0.7278502735D+00
 Atom C2       Shell    18 P   1     bf   40 -    42          1.326606642547          0.567719083746          0.000000000000
      0.2888754725D+00  0.1000000000D+01
 Atom C2       Shell    19 P   1     bf   43 -    45          1.326606642547          0.567719083746          0.000000000000
      0.1005682367D+00  0.1000000000D+01
 Atom C2       Shell    20 D   1     bf   46 -    50          1.326606642547          0.567719083746          0.000000000000
      0.1097000000D+01  0.1000000000D+01
 Atom C2       Shell    21 D   1     bf   51 -    55          1.326606642547          0.567719083746          0.000000000000
      0.3180000000D+00  0.1000000000D+01
 Atom C2       Shell    22 F   1     bf   56 -    62          1.326606642547          0.567719083746          0.000000000000
      0.7610000000D+00  0.1000000000D+01
 Atom H3       Shell    23 S   3     bf   63 -    63          3.245100076354          4.209149532224          0.000000000000
      0.3406134100D+02  0.2543930721D-01
      0.5123574600D+01  0.1900859489D+00
      0.1164662600D+01  0.8524411301D+00
 Atom H3       Shell    24 S   1     bf   64 -    64          3.245100076354          4.209149532224          0.000000000000
      0.3272304100D+00  0.1000000000D+01
 Atom H3       Shell    25 S   1     bf   65 -    65          3.245100076354          4.209149532224          0.000000000000
      0.1030724100D+00  0.1000000000D+01
 Atom H3       Shell    26 P   1     bf   66 -    68          3.245100076354          4.209149532224          0.000000000000
      0.8000000000D+00  0.1000000000D+01
 Atom H4       Shell    27 S   3     bf   69 -    69          0.357063752809          4.193086860094          1.665589495716
      0.3406134100D+02  0.2543930721D-01
      0.5123574600D+01  0.1900859489D+00
      0.1164662600D+01  0.8524411301D+00
 Atom H4       Shell    28 S   1     bf   70 -    70          0.357063752809          4.193086860094          1.665589495716
      0.3272304100D+00  0.1000000000D+01
 Atom H4       Shell    29 S   1     bf   71 -    71          0.357063752809          4.193086860094          1.665589495716
      0.1030724100D+00  0.1000000000D+01
 Atom H4       Shell    30 P   1     bf   72 -    74          0.357063752809          4.193086860094          1.665589495716
      0.8000000000D+00  0.1000000000D+01
 Atom H5       Shell    31 S   3     bf   75 -    75          0.357063752809          4.193086860094         -1.665589495716
      0.3406134100D+02  0.2543930721D-01
      0.5123574600D+01  0.1900859489D+00
      0.1164662600D+01  0.8524411301D+00
 Atom H5       Shell    32 S   1     bf   76 -    76          0.357063752809          4.193086860094         -1.665589495716
      0.3272304100D+00  0.1000000000D+01
 Atom H5       Shell    33 S   1     bf   77 -    77          0.357063752809          4.193086860094         -1.665589495716
      0.1030724100D+00  0.1000000000D+01
 Atom H5       Shell    34 P   1     bf   78 -    80          0.357063752809          4.193086860094         -1.665589495716
      0.8000000000D+00  0.1000000000D+01
 Atom C6       Shell    35 S   6     bf   81 -    81         -1.326606642547         -0.567719083746          0.000000000000
      0.1357534968D+05  0.6064550360D-03
      0.2035233368D+04  0.4697908888D-02
      0.4632256236D+03  0.2433247765D-01
      0.1312001960D+03  0.9739996831D-01
      0.4285301589D+02  0.3019558425D+00
      0.1558418577D+02  0.6623360914D+00
 Atom C6       Shell    36 S   2     bf   82 -    82         -1.326606642547         -0.567719083746          0.000000000000
      0.6206713851D+01  0.6559530854D+00
      0.2576489653D+01  0.3758563329D+00
 Atom C6       Shell    37 S   1     bf   83 -    83         -1.326606642547         -0.567719083746          0.000000000000
      0.5769633942D+00  0.1000000000D+01
 Atom C6       Shell    38 S   1     bf   84 -    84         -1.326606642547         -0.567719083746          0.000000000000
      0.2297283136D+00  0.1000000000D+01
 Atom C6       Shell    39 S   1     bf   85 -    85         -1.326606642547         -0.567719083746          0.000000000000
      0.9516444003D-01  0.1000000000D+01
 Atom C6       Shell    40 P   4     bf   86 -    88         -1.326606642547         -0.567719083746          0.000000000000
      0.3469723224D+02  0.1132722000D-01
      0.7958262283D+01  0.7616965920D-01
      0.2378082688D+01  0.3019225220D+00
      0.8143320818D+00  0.7278502735D+00
 Atom C6       Shell    41 P   1     bf   89 -    91         -1.326606642547         -0.567719083746          0.000000000000
      0.2888754725D+00  0.1000000000D+01
 Atom C6       Shell    42 P   1     bf   92 -    94         -1.326606642547         -0.567719083746          0.000000000000
      0.1005682367D+00  0.1000000000D+01
 Atom C6       Shell    43 D   1     bf   95 -    99         -1.326606642547         -0.567719083746          0.000000000000
      0.1097000000D+01  0.1000000000D+01
 Atom C6       Shell    44 D   1     bf  100 -   104         -1.326606642547         -0.567719083746          0.000000000000
      0.3180000000D+00  0.1000000000D+01
 Atom C6       Shell    45 F   1     bf  105 -   111         -1.326606642547         -0.567719083746          0.000000000000
      0.7610000000D+00  0.1000000000D+01
 Atom H7       Shell    46 S   3     bf  112 -   112          2.360058180373         -0.126228036498          1.653300606674
      0.3406134100D+02  0.2543930721D-01
      0.5123574600D+01  0.1900859489D+00
      0.1164662600D+01  0.8524411301D+00
 Atom H7       Shell    47 S   1     bf  113 -   113          2.360058180373         -0.126228036498          1.653300606674
      0.3272304100D+00  0.1000000000D+01
 Atom H7       Shell    48 S   1     bf  114 -   114          2.360058180373         -0.126228036498          1.653300606674
      0.1030724100D+00  0.1000000000D+01
 Atom H7       Shell    49 P   1     bf  115 -   117          2.360058180373         -0.126228036498          1.653300606674
      0.8000000000D+00  0.1000000000D+01
 Atom H8       Shell    50 S   3     bf  118 -   118          2.360058180373         -0.126228036498         -1.653300606674
      0.3406134100D+02  0.2543930721D-01
      0.5123574600D+01  0.1900859489D+00
      0.1164662600D+01  0.8524411301D+00
 Atom H8       Shell    51 S   1     bf  119 -   119          2.360058180373         -0.126228036498         -1.653300606674
      0.3272304100D+00  0.1000000000D+01
 Atom H8       Shell    52 S   1     bf  120 -   120          2.360058180373         -0.126228036498         -1.653300606674
      0.1030724100D+00  0.1000000000D+01
 Atom H8       Shell    53 P   1     bf  121 -   123          2.360058180373         -0.126228036498         -1.653300606674
      0.8000000000D+00  0.1000000000D+01
 Atom C9       Shell    54 S   6     bf  124 -   124         -1.326606642547         -3.451174711145          0.000000000000
      0.1357534968D+05  0.6064550360D-03
      0.2035233368D+04  0.4697908888D-02
      0.4632256236D+03  0.2433247765D-01
      0.1312001960D+03  0.9739996831D-01
      0.4285301589D+02  0.3019558425D+00
      0.1558418577D+02  0.6623360914D+00
 Atom C9       Shell    55 S   2     bf  125 -   125         -1.326606642547         -3.451174711145          0.000000000000
      0.6206713851D+01  0.6559530854D+00
      0.2576489653D+01  0.3758563329D+00
 Atom C9       Shell    56 S   1     bf  126 -   126         -1.326606642547         -3.451174711145          0.000000000000
      0.5769633942D+00  0.1000000000D+01
 Atom C9       Shell    57 S   1     bf  127 -   127         -1.326606642547         -3.451174711145          0.000000000000
      0.2297283136D+00  0.1000000000D+01
 Atom C9       Shell    58 S   1     bf  128 -   128         -1.326606642547         -3.451174711145          0.000000000000
      0.9516444003D-01  0.1000000000D+01
 Atom C9       Shell    59 P   4     bf  129 -   131         -1.326606642547         -3.451174711145          0.000000000000
      0.3469723224D+02  0.1132722000D-01
      0.7958262283D+01  0.7616965920D-01
      0.2378082688D+01  0.3019225220D+00
      0.8143320818D+00  0.7278502735D+00
 Atom C9       Shell    60 P   1     bf  132 -   134         -1.326606642547         -3.451174711145          0.000000000000
      0.2888754725D+00  0.1000000000D+01
 Atom C9       Shell    61 P   1     bf  135 -   137         -1.326606642547         -3.451174711145          0.000000000000
      0.1005682367D+00  0.1000000000D+01
 Atom C9       Shell    62 D   1     bf  138 -   142         -1.326606642547         -3.451174711145          0.000000000000
      0.1097000000D+01  0.1000000000D+01
 Atom C9       Shell    63 D   1     bf  143 -   147         -1.326606642547         -3.451174711145          0.000000000000
      0.3180000000D+00  0.1000000000D+01
 Atom C9       Shell    64 F   1     bf  148 -   154         -1.326606642547         -3.451174711145          0.000000000000
      0.7610000000D+00  0.1000000000D+01
 Atom H10      Shell    65 S   3     bf  155 -   155         -2.360058180373          0.126228036498          1.653300606674
      0.3406134100D+02  0.2543930721D-01
      0.5123574600D+01  0.1900859489D+00
      0.1164662600D+01  0.8524411301D+00
 Atom H10      Shell    66 S   1     bf  156 -   156         -2.360058180373          0.126228036498          1.653300606674
      0.3272304100D+00  0.1000000000D+01
 Atom H10      Shell    67 S   1     bf  157 -   157         -2.360058180373          0.126228036498          1.653300606674
      0.1030724100D+00  0.1000000000D+01
 Atom H10      Shell    68 P   1     bf  158 -   160         -2.360058180373          0.126228036498          1.653300606674
      0.8000000000D+00  0.1000000000D+01
 Atom H11      Shell    69 S   3     bf  161 -   161         -2.360058180373          0.126228036498         -1.653300606674
      0.3406134100D+02  0.2543930721D-01
      0.5123574600D+01  0.1900859489D+00
      0.1164662600D+01  0.8524411301D+00
 Atom H11      Shell    70 S   1     bf  162 -   162         -2.360058180373          0.126228036498         -1.653300606674
      0.3272304100D+00  0.1000000000D+01
 Atom H11      Shell    71 S   1     bf  163 -   163         -2.360058180373          0.126228036498         -1.653300606674
      0.1030724100D+00  0.1000000000D+01
 Atom H11      Shell    72 P   1     bf  164 -   166         -2.360058180373          0.126228036498         -1.653300606674
      0.8000000000D+00  0.1000000000D+01
 Atom H12      Shell    73 S   3     bf  167 -   167         -3.245100076354         -4.209149532224          0.000000000000
      0.3406134100D+02  0.2543930721D-01
      0.5123574600D+01  0.1900859489D+00
      0.1164662600D+01  0.8524411301D+00
 Atom H12      Shell    74 S   1     bf  168 -   168         -3.245100076354         -4.209149532224          0.000000000000
      0.3272304100D+00  0.1000000000D+01
 Atom H12      Shell    75 S   1     bf  169 -   169         -3.245100076354         -4.209149532224          0.000000000000
      0.1030724100D+00  0.1000000000D+01
 Atom H12      Shell    76 P   1     bf  170 -   172         -3.245100076354         -4.209149532224          0.000000000000
      0.8000000000D+00  0.1000000000D+01
 Atom H13      Shell    77 S   3     bf  173 -   173         -0.357063752809         -4.193086860094          1.665589495716
      0.3406134100D+02  0.2543930721D-01
      0.5123574600D+01  0.1900859489D+00
      0.1164662600D+01  0.8524411301D+00
 Atom H13      Shell    78 S   1     bf  174 -   174         -0.357063752809         -4.193086860094          1.665589495716
      0.3272304100D+00  0.1000000000D+01
 Atom H13      Shell    79 S   1     bf  175 -   175         -0.357063752809         -4.193086860094          1.665589495716
      0.1030724100D+00  0.1000000000D+01
 Atom H13      Shell    80 P   1     bf  176 -   178         -0.357063752809         -4.193086860094          1.665589495716
      0.8000000000D+00  0.1000000000D+01
 Atom H14      Shell    81 S   3     bf  179 -   179         -0.357063752809         -4.193086860094         -1.665589495716
      0.3406134100D+02  0.2543930721D-01
      0.5123574600D+01  0.1900859489D+00
      0.1164662600D+01  0.8524411301D+00
 Atom H14      Shell    82 S   1     bf  180 -   180         -0.357063752809         -4.193086860094         -1.665589495716
      0.3272304100D+00  0.1000000000D+01
 Atom H14      Shell    83 S   1     bf  181 -   181         -0.357063752809         -4.193086860094         -1.665589495716
      0.1030724100D+00  0.1000000000D+01
 Atom H14      Shell    84 P   1     bf  182 -   184         -0.357063752809         -4.193086860094         -1.665589495716
      0.8000000000D+00  0.1000000000D+01
 There are    67 symmetry adapted cartesian basis functions of AG  symmetry.
 There are    35 symmetry adapted cartesian basis functions of BG  symmetry.
 There are    35 symmetry adapted cartesian basis functions of AU  symmetry.
 There are    67 symmetry adapted cartesian basis functions of BU  symmetry.
 There are    59 symmetry adapted basis functions of AG  symmetry.
 There are    33 symmetry adapted basis functions of BG  symmetry.
 There are    33 symmetry adapted basis functions of AU  symmetry.
 There are    59 symmetry adapted basis functions of BU  symmetry.
   184 basis functions,   284 primitive gaussians,   204 cartesian basis functions
    17 alpha electrons       17 beta electrons
       nuclear repulsion energy       130.7048866774 Hartrees.
 IExCor= 4639 DFT=T Ex+Corr=wB97XD ExCW=0 ScaHFX=  1.000000
 ScaDFX=  1.000000  1.000000  1.000000  1.000000 ScalE2=  1.000000  1.000000
 IRadAn=      5 IRanWt=     -1 IRanGd=            0 ICorTp=0 IEmpDi=121
  HFx wShort=  0.000000 wLong=  0.200000 cFull=  0.222036 cShort=  0.000000 cLong=  0.777964
  DFx wShort=  0.000000 wLong=  0.200000 cFull=  0.000000 cShort=  0.000000 cLong=  1.000000
 NAtoms=   14 NActive=   14 NUniq=    5 SFac= 4.00D+00 NAtFMM=   60 NAOKFM=F Big=F
 Integral buffers will be    131072 words long.
 Raffenetti 2 integral format.
 Two-electron integral symmetry is turned on.
 R6Disp:  Grimme-D2 Dispersion energy=       -0.0062989526 Hartrees.
 Nuclear repulsion after empirical dispersion term =      130.6985877248 Hartrees.
 Leave Link  301 at Fri Jul  9 19:19:34 2021, MaxMem=  4194304000 cpu:         1.1
 (Enter /home/minenky/programs//g09/l302.exe)
 NPDir=0 NMtPBC=     1 NCelOv=     1 NCel=       1 NClECP=     1 NCelD=      1
         NCelK=      1 NCelE2=     1 NClLst=     1 CellRange=     0.0.
 One-electron integrals computed using PRISM.
 One-electron integral symmetry used in STVInt
   4 Symmetry operations used in ECPInt.
 ECPInt:  NShTT=    3570 NPrTT=    9988 LenC2=    3551 LenP2D=    8517.
 LDataN:  DoStor=T MaxTD1= 6 Len=  172
 NBasis=   184 RedAO= T EigKep=  2.46D-04  NBF=    59    33    33    59
 NBsUse=   184 1.00D-06 EigRej= -1.00D+00 NBFU=    59    33    33    59
 Precomputing XC quadrature grid using
 IXCGrd= 4 IRadAn=           5 IRanWt=          -1 IRanGd=           0 AccXCQ= 0.00D+00.
 Generated NRdTot=       0 NPtTot=           0 NUsed=           0 NTot=          32
 NSgBfM=   203   203   203   203   203 MxSgAt=    14 MxSgA2=    14.
 Leave Link  302 at Fri Jul  9 19:19:40 2021, MaxMem=  4194304000 cpu:        68.6
 (Enter /home/minenky/programs//g09/l303.exe)
 DipDrv:  MaxL=1.
 Leave Link  303 at Fri Jul  9 19:19:40 2021, MaxMem=  4194304000 cpu:         2.6
 (Enter /home/minenky/programs//g09/l401.exe)
 ExpMin= 9.52D-02 ExpMax= 1.36D+04 ExpMxC= 4.63D+02 IAcc=3 IRadAn=         5 AccDes= 0.00D+00
 Harris functional with IExCor= 4639 and IRadAn=       5 diagonalized for initial guess.
 HarFok:  IExCor= 4639 AccDes= 0.00D+00 IRadAn=         5 IDoV= 1 UseB2=F ITyADJ=14
 ICtDFT=  3500011 ScaDFX=  1.000000  1.000000  1.000000  1.000000
 FoFCou: FMM=F IPFlag=           0 FMFlag=      100000 FMFlg1=           0
         NFxFlg=           0 DoJE=T BraDBF=F KetDBF=T FulRan=T
         wScrn=  0.000000 ICntrl=     500 IOpCl=  0 I1Cent=   200000004 NGrid=           0
         NMat0=    1 NMatS0=      1 NMatT0=    0 NMatD0=    1 NMtDS0=    0 NMtDT0=    0
 Petite list used in FoFCou.
 Harris En= -150.346484102103    
 JPrj=0 DoOrth=F DoCkMO=F.
 Initial guess orbital symmetries:
       Occupied  (BU) (AG) (AG) (BU) (AG) (BU) (AG) (BU) (AU) (AG)
                 (BU) (BG) (BU) (AU) (AG) (AG) (BG)
       Virtual   (AG) (BU) (AU) (BU) (AG) (AG) (BG) (BU) (AU) (BG)
                 (BU) (AG) (BU) (AG) (BG) (AG) (BU) (AU) (AU) (BU)
                 (AG) (BU) (BG) (AG) (AU) (BU) (BU) (AG) (AG) (BU)
                 (AG) (BG) (BU) (AU) (BG) (AG) (BU) (AG) (BU) (AU)
                 (BU) (AG) (BG) (AG) (AU) (BU) (BG) (BU) (AG) (AG)
                 (BG) (AU) (BU) (AG) (BG) (AU) (BU) (BU) (AG) (AG)
                 (AU) (BU) (BG) (AU) (BG) (AG) (BU) (AU) (BU) (BG)
                 (AG) (BU) (AG) (AU) (AG) (BG) (AU) (AG) (BU) (AG)
                 (BG) (BU) (AU) (BU) (AG) (BU) (AG) (BU) (BU) (BG)
                 (AU) (BG) (AG) (BU) (AG) (BU) (AG) (AU) (BG) (AU)
                 (AG) (BG) (BU) (AU) (AG) (BG) (AG) (BU) (BG) (AU)
                 (BU) (AG) (BU) (AG) (BU) (AU) (BG) (AG) (BU) (BU)
                 (AG) (BG) (AU) (AG) (BU) (AG) (AU) (BU) (AG) (BG)
                 (BG) (AU) (BU) (AU) (AG) (BU) (BG) (AU) (BG) (BU)
                 (AG) (AU) (AG) (AU) (BG) (BU) (BG) (AG) (BU) (AG)
                 (AU) (BU) (AG) (BU) (BG) (BU) (AU) (BG) (AG) (AG)
                 (BU) (BU) (AG) (AG) (BU) (AG) (BU)
 The electronic state of the initial guess is 1-AG.
 Leave Link  401 at Fri Jul  9 19:19:46 2021, MaxMem=  4194304000 cpu:        66.9
 (Enter /home/minenky/programs//g09/l502.exe)
 Closed shell SCF:
 Using DIIS extrapolation, IDIIS=  1040.
 Integral symmetry usage will be decided dynamically.
 Keep R1 ints in memory in symmetry-blocked form, NReq=362975666.
 IVT=      278274 IEndB=      278274 NGot=  4194304000 MDV=  4157507257
 LenX=  4157507257 LenY=  4157465200
 Requested convergence on RMS density matrix=1.00D-08 within 380 cycles.
 Requested convergence on MAX density matrix=1.00D-06.
 Requested convergence on             energy=1.00D-06.
 No special actions if energy rises.
 FoFCou: FMM=F IPFlag=           0 FMFlag=           0 FMFlg1=           0
         NFxFlg=           0 DoJE=F BraDBF=F KetDBF=F FulRan=T
         wScrn=  0.000000 ICntrl=     600 IOpCl=  0 I1Cent=           0 NGrid=           0
         NMat0=    1 NMatS0=  17020 NMatT0=    0 NMatD0=    1 NMtDS0=    0 NMtDT0=    0
 Petite list used in FoFCou.
 Integral accuracy reduced to 1.0D-05 until final iterations.

 Cycle   1  Pass 0  IDiag  1:
 E= -158.405455138343    
 DIIS: error= 8.34D-02 at cycle   1 NSaved=   1.
 NSaved= 1 IEnMin= 1 EnMin= -158.405455138343     IErMin= 1 ErrMin= 8.34D-02
 ErrMax= 8.34D-02  0.00D+00 EMaxC= 1.00D-01 BMatC= 3.39D-01 BMatP= 3.39D-01
 IDIUse=3 WtCom= 1.66D-01 WtEn= 8.34D-01
 Coeff-Com:  0.100D+01
 Coeff-En:   0.100D+01
 Coeff:      0.100D+01
 Gap=     0.485 Goal=   None    Shift=    0.000
 GapD=    0.485 DampG=2.000 DampE=0.500 DampFc=1.0000 IDamp=-1.
 RMSDP=1.43D-03 MaxDP=3.92D-02              OVMax= 5.91D-02

 Cycle   2  Pass 0  IDiag  1:
 E= -158.449772880401     Delta-E=       -0.044317742058 Rises=F Damp=F
 DIIS: error= 1.24D-02 at cycle   2 NSaved=   2.
 NSaved= 2 IEnMin= 2 EnMin= -158.449772880401     IErMin= 2 ErrMin= 1.24D-02
 ErrMax= 1.24D-02  0.00D+00 EMaxC= 1.00D-01 BMatC= 1.56D-02 BMatP= 3.39D-01
 IDIUse=3 WtCom= 8.76D-01 WtEn= 1.24D-01
 Coeff-Com:  0.994D-01 0.901D+00
 Coeff-En:   0.000D+00 0.100D+01
 Coeff:      0.871D-01 0.913D+00
 Gap=     0.527 Goal=   None    Shift=    0.000
 RMSDP=7.00D-04 MaxDP=1.90D-02 DE=-4.43D-02 OVMax= 3.58D-02

 Cycle   3  Pass 0  IDiag  1:
 E= -158.458916857721     Delta-E=       -0.009143977320 Rises=F Damp=F
 DIIS: error= 7.70D-03 at cycle   3 NSaved=   3.
 NSaved= 3 IEnMin= 3 EnMin= -158.458916857721     IErMin= 3 ErrMin= 7.70D-03
 ErrMax= 7.70D-03  0.00D+00 EMaxC= 1.00D-01 BMatC= 6.67D-03 BMatP= 1.56D-02
 IDIUse=3 WtCom= 9.23D-01 WtEn= 7.70D-02
 Coeff-Com:  0.243D-01 0.399D+00 0.577D+00
 Coeff-En:   0.000D+00 0.249D+00 0.751D+00
 Coeff:      0.224D-01 0.387D+00 0.590D+00
 Gap=     0.514 Goal=   None    Shift=    0.000
 RMSDP=2.68D-04 MaxDP=6.87D-03 DE=-9.14D-03 OVMax= 1.45D-02

 Cycle   4  Pass 0  IDiag  1:
 E= -158.465267512515     Delta-E=       -0.006350654794 Rises=F Damp=F
 DIIS: error= 3.98D-04 at cycle   4 NSaved=   4.
 NSaved= 4 IEnMin= 4 EnMin= -158.465267512515     IErMin= 4 ErrMin= 3.98D-04
 ErrMax= 3.98D-04  0.00D+00 EMaxC= 1.00D-01 BMatC= 1.44D-05 BMatP= 6.67D-03
 IDIUse=3 WtCom= 9.96D-01 WtEn= 3.98D-03
 Coeff-Com: -0.201D-03-0.866D-03 0.297D-01 0.971D+00
 Coeff-En:   0.000D+00 0.000D+00 0.000D+00 0.100D+01
 Coeff:     -0.200D-03-0.862D-03 0.296D-01 0.972D+00
 Gap=     0.515 Goal=   None    Shift=    0.000
 RMSDP=2.97D-05 MaxDP=5.11D-04 DE=-6.35D-03 OVMax= 1.44D-03

 Cycle   5  Pass 0  IDiag  1:
 E= -158.465282861238     Delta-E=       -0.000015348722 Rises=F Damp=F
 DIIS: error= 1.49D-04 at cycle   5 NSaved=   5.
 NSaved= 5 IEnMin= 5 EnMin= -158.465282861238     IErMin= 5 ErrMin= 1.49D-04
 ErrMax= 1.49D-04  0.00D+00 EMaxC= 1.00D-01 BMatC= 3.66D-06 BMatP= 1.44D-05
 IDIUse=3 WtCom= 9.99D-01 WtEn= 1.49D-03
 Coeff-Com: -0.226D-02-0.372D-01-0.400D-01 0.405D+00 0.675D+00
 Coeff-En:   0.000D+00 0.000D+00 0.000D+00 0.000D+00 0.100D+01
 Coeff:     -0.226D-02-0.371D-01-0.399D-01 0.404D+00 0.675D+00
 Gap=     0.515 Goal=   None    Shift=    0.000
 RMSDP=8.77D-06 MaxDP=1.71D-04 DE=-1.53D-05 OVMax= 4.41D-04

 Initial convergence to 1.0D-05 achieved.  Increase integral accuracy.
 Cycle   6  Pass 1  IDiag  1:
 E= -158.465310669227     Delta-E=       -0.000027807990 Rises=F Damp=F
 DIIS: error= 3.51D-05 at cycle   1 NSaved=   1.
 NSaved= 1 IEnMin= 1 EnMin= -158.465310669227     IErMin= 1 ErrMin= 3.51D-05
 ErrMax= 3.51D-05  0.00D+00 EMaxC= 1.00D-01 BMatC= 2.00D-07 BMatP= 2.00D-07
 IDIUse=1 WtCom= 1.00D+00 WtEn= 0.00D+00
 Coeff-Com:  0.100D+01
 Coeff:      0.100D+01
 Gap=     0.515 Goal=   None    Shift=    0.000
 RMSDP=8.77D-06 MaxDP=1.71D-04 DE=-2.78D-05 OVMax= 1.18D-04

 Cycle   7  Pass 1  IDiag  1:
 E= -158.465310833029     Delta-E=       -0.000000163802 Rises=F Damp=F
 DIIS: error= 1.12D-05 at cycle   2 NSaved=   2.
 NSaved= 2 IEnMin= 2 EnMin= -158.465310833029     IErMin= 2 ErrMin= 1.12D-05
 ErrMax= 1.12D-05  0.00D+00 EMaxC= 1.00D-01 BMatC= 1.94D-08 BMatP= 2.00D-07
 IDIUse=1 WtCom= 1.00D+00 WtEn= 0.00D+00
 Coeff-Com:  0.108D+00 0.892D+00
 Coeff:      0.108D+00 0.892D+00
 Gap=     0.515 Goal=   None    Shift=    0.000
 RMSDP=1.17D-06 MaxDP=2.27D-05 DE=-1.64D-07 OVMax= 4.87D-05

 Cycle   8  Pass 1  IDiag  1:
 E= -158.465310847950     Delta-E=       -0.000000014922 Rises=F Damp=F
 DIIS: error= 8.01D-06 at cycle   3 NSaved=   3.
 NSaved= 3 IEnMin= 3 EnMin= -158.465310847950     IErMin= 3 ErrMin= 8.01D-06
 ErrMax= 8.01D-06  0.00D+00 EMaxC= 1.00D-01 BMatC= 8.01D-09 BMatP= 1.94D-08
 IDIUse=1 WtCom= 1.00D+00 WtEn= 0.00D+00
 Coeff-Com: -0.516D-01 0.375D+00 0.676D+00
 Coeff:     -0.516D-01 0.375D+00 0.676D+00
 Gap=     0.515 Goal=   None    Shift=    0.000
 RMSDP=4.32D-07 MaxDP=7.78D-06 DE=-1.49D-08 OVMax= 2.25D-05

 Cycle   9  Pass 1  IDiag  1:
 E= -158.465310855920     Delta-E=       -0.000000007970 Rises=F Damp=F
 DIIS: error= 7.49D-07 at cycle   4 NSaved=   4.
 NSaved= 4 IEnMin= 4 EnMin= -158.465310855920     IErMin= 4 ErrMin= 7.49D-07
 ErrMax= 7.49D-07  0.00D+00 EMaxC= 1.00D-01 BMatC= 5.16D-11 BMatP= 8.01D-09
 IDIUse=1 WtCom= 1.00D+00 WtEn= 0.00D+00
 Coeff-Com: -0.143D-02-0.433D-01-0.318D-01 0.108D+01
 Coeff:     -0.143D-02-0.433D-01-0.318D-01 0.108D+01
 Gap=     0.515 Goal=   None    Shift=    0.000
 RMSDP=1.71D-07 MaxDP=3.45D-06 DE=-7.97D-09 OVMax= 5.24D-06

 Cycle  10  Pass 1  IDiag  1:
 E= -158.465310856046     Delta-E=       -0.000000000126 Rises=F Damp=F
 DIIS: error= 1.89D-07 at cycle   5 NSaved=   5.
 NSaved= 5 IEnMin= 5 EnMin= -158.465310856046     IErMin= 5 ErrMin= 1.89D-07
 ErrMax= 1.89D-07  0.00D+00 EMaxC= 1.00D-01 BMatC= 3.49D-12 BMatP= 5.16D-11
 IDIUse=1 WtCom= 1.00D+00 WtEn= 0.00D+00
 Coeff-Com:  0.309D-02-0.267D-01-0.472D-01 0.122D+00 0.949D+00
 Coeff:      0.309D-02-0.267D-01-0.472D-01 0.122D+00 0.949D+00
 Gap=     0.515 Goal=   None    Shift=    0.000
 RMSDP=4.30D-08 MaxDP=8.50D-07 DE=-1.26D-10 OVMax= 1.46D-06

 Cycle  11  Pass 1  IDiag  1:
 E= -158.465310856060     Delta-E=       -0.000000000013 Rises=F Damp=F
 DIIS: error= 6.52D-08 at cycle   6 NSaved=   6.
 NSaved= 6 IEnMin= 6 EnMin= -158.465310856060     IErMin= 6 ErrMin= 6.52D-08
 ErrMax= 6.52D-08  0.00D+00 EMaxC= 1.00D-01 BMatC= 3.98D-13 BMatP= 3.49D-12
 IDIUse=1 WtCom= 1.00D+00 WtEn= 0.00D+00
 Coeff-Com:  0.111D-02-0.798D-02-0.159D-01 0.653D-02 0.323D+00 0.693D+00
 Coeff:      0.111D-02-0.798D-02-0.159D-01 0.653D-02 0.323D+00 0.693D+00
 Gap=     0.515 Goal=   None    Shift=    0.000
 RMSDP=5.26D-09 MaxDP=7.32D-08 DE=-1.32D-11 OVMax= 1.97D-07

 SCF Done:  E(RwB97XD) =  -158.465310856     A.U. after   11 cycles
            NFock= 11  Conv=0.53D-08     -V/T= 2.0061
 KE= 1.575105526458D+02 PE=-6.275564596990D+02 EE= 1.808820084723D+02
 Leave Link  502 at Fri Jul  9 19:21:40 2021, MaxMem=  4194304000 cpu:      1387.5
 (Enter /home/minenky/programs//g09/l601.exe)
 Copying SCF densities to generalized density rwf, IOpCl= 0 IROHF=0.

 **********************************************************************

            Population analysis using the SCF density.

 **********************************************************************

 Orbital symmetries:
       Occupied  (AG) (BU) (BU) (AG) (AG) (BU) (AG) (BU) (AU) (AG)
                 (BU) (BG) (BU) (AU) (AG) (AG) (BG)
       Virtual   (AG) (BU) (BU) (AU) (AG) (AG) (BG) (BU) (AU) (BG)
                 (BU) (AG) (BU) (AG) (BG) (AG) (AU) (BU) (AU) (BU)
                 (AG) (BG) (BU) (AG) (AU) (BU) (BU) (AG) (BU) (AG)
                 (BG) (AG) (AU) (BU) (BG) (AG) (BU) (AG) (BU) (AU)
                 (BU) (AG) (BG) (AG) (AU) (BU) (BG) (BU) (AG) (AG)
                 (BG) (AU) (BU) (BG) (AG) (AU) (BU) (BU) (AG) (AG)
                 (BU) (AU) (BG) (AU) (BG) (BU) (AG) (AU) (BU) (BG)
                 (AG) (BU) (AU) (AG) (AG) (BG) (AU) (AG) (BU) (AG)
                 (BG) (BU) (AU) (BU) (AG) (BU) (AG) (BU) (BU) (BG)
                 (AU) (BG) (AG) (BU) (BU) (AG) (AG) (AU) (BG) (AU)
                 (AG) (BG) (BU) (AU) (AG) (BG) (BU) (AG) (BG) (AU)
                 (BU) (AG) (BU) (AG) (BU) (AU) (BG) (AG) (BU) (BU)
                 (AG) (BG) (AG) (AU) (BU) (AG) (AU) (BU) (AG) (BG)
                 (BG) (AU) (BU) (AU) (AG) (BU) (BG) (AU) (BG) (BU)
                 (AG) (AU) (AG) (AU) (BG) (BU) (BG) (AG) (BU) (AG)
                 (AU) (BU) (AG) (BU) (BG) (BU) (AU) (BG) (AG) (AG)
                 (BU) (BU) (AG) (AG) (BU) (AG) (BU)
 The electronic state is 1-AG.
 Alpha  occ. eigenvalues --  -10.27359 -10.27337 -10.26670 -10.26670  -0.89376
 Alpha  occ. eigenvalues --   -0.82134  -0.72466  -0.66867  -0.55712  -0.51228
 Alpha  occ. eigenvalues --   -0.50524  -0.49583  -0.45079  -0.43144  -0.41423
 Alpha  occ. eigenvalues --   -0.40214  -0.40162
 Alpha virt. eigenvalues --    0.11304   0.13409   0.15732   0.15799   0.18590
 Alpha virt. eigenvalues --    0.18972   0.20197   0.20887   0.22017   0.22262
 Alpha virt. eigenvalues --    0.24148   0.25016   0.27799   0.29962   0.31505
 Alpha virt. eigenvalues --    0.32537   0.33368   0.34518   0.37472   0.39738
 Alpha virt. eigenvalues --    0.43525   0.45805   0.45845   0.46452   0.49437
 Alpha virt. eigenvalues --    0.51528   0.52695   0.52709   0.54091   0.55023
 Alpha virt. eigenvalues --    0.55211   0.56294   0.57103   0.57865   0.59784
 Alpha virt. eigenvalues --    0.66765   0.66885   0.69093   0.73963   0.77055
 Alpha virt. eigenvalues --    0.78879   0.88954   0.90192   0.91724   0.92786
 Alpha virt. eigenvalues --    0.96515   1.03129   1.06125   1.07726   1.09494
 Alpha virt. eigenvalues --    1.10873   1.15950   1.19413   1.21141   1.21781
 Alpha virt. eigenvalues --    1.23246   1.28174   1.29663   1.35833   1.54264
 Alpha virt. eigenvalues --    1.59253   1.59809   1.61609   1.61806   1.63089
 Alpha virt. eigenvalues --    1.64333   1.64744   1.67380   1.69724   1.69931
 Alpha virt. eigenvalues --    1.71404   1.75113   1.84376   1.84735   1.88447
 Alpha virt. eigenvalues --    1.91059   1.93806   1.94682   1.99514   1.99638
 Alpha virt. eigenvalues --    2.00792   2.03105   2.09771   2.15062   2.17051
 Alpha virt. eigenvalues --    2.20945   2.34757   2.36415   2.37451   2.40910
 Alpha virt. eigenvalues --    2.41701   2.43262   2.45166   2.48564   2.51028
 Alpha virt. eigenvalues --    2.51044   2.51491   2.56162   2.61376   2.62385
 Alpha virt. eigenvalues --    2.64674   2.67341   2.68881   2.71829   2.73320
 Alpha virt. eigenvalues --    2.74107   2.75913   2.76924   2.77621   2.81050
 Alpha virt. eigenvalues --    2.83755   2.87592   2.89402   3.00819   3.03112
 Alpha virt. eigenvalues --    3.11302   3.14779   3.16206   3.18906   3.21763
 Alpha virt. eigenvalues --    3.22987   3.27057   3.29005   3.29334   3.31393
 Alpha virt. eigenvalues --    3.36665   3.39491   3.42072   3.42907   3.43682
 Alpha virt. eigenvalues --    3.48219   3.49013   3.52622   3.55311   3.59687
 Alpha virt. eigenvalues --    3.61301   3.64726   3.68141   3.75509   3.80594
 Alpha virt. eigenvalues --    3.82486   3.89641   3.95104   3.97662   3.97827
 Alpha virt. eigenvalues --    4.04347   4.05580   4.13032   4.18922   4.25561
 Alpha virt. eigenvalues --    4.38923   4.40657   4.41180   4.50096   4.55852
 Alpha virt. eigenvalues --    4.61300   4.62393   4.68360   4.72728   4.78695
 Alpha virt. eigenvalues --    4.82436   4.95369   5.10972  22.39087  22.45884
 Alpha virt. eigenvalues --   22.51200  22.58119
          Condensed to atoms (all electrons):
               1          2          3          4          5          6
     1  C    4.886753   0.313304   0.416591   0.412602   0.412602  -0.046719
     2  C    0.313304   4.950765  -0.041287  -0.037240  -0.037240   0.324530
     3  H    0.416591  -0.041287   0.556094  -0.023871  -0.023871   0.009965
     4  H    0.412602  -0.037240  -0.023871   0.573478  -0.030097  -0.005420
     5  H    0.412602  -0.037240  -0.023871  -0.030097   0.573478  -0.005420
     6  C   -0.046719   0.324530   0.009965  -0.005420  -0.005420   4.950765
     7  H   -0.032178   0.411263  -0.004498  -0.006225   0.007535  -0.040315
     8  H   -0.032178   0.411263  -0.004498   0.007535  -0.006225  -0.040315
     9  C    0.010341  -0.046719  -0.000522  -0.000082  -0.000082   0.313304
    10  H   -0.003644  -0.040315  -0.000164   0.003850  -0.000158   0.411263
    11  H   -0.003644  -0.040315  -0.000164  -0.000158   0.003850   0.411263
    12  H   -0.000522   0.009965   0.000012   0.000001   0.000001  -0.041287
    13  H   -0.000082  -0.005420   0.000001   0.000077  -0.000025  -0.037240
    14  H   -0.000082  -0.005420   0.000001  -0.000025   0.000077  -0.037240
               7          8          9         10         11         12
     1  C   -0.032178  -0.032178   0.010341  -0.003644  -0.003644  -0.000522
     2  C    0.411263   0.411263  -0.046719  -0.040315  -0.040315   0.009965
     3  H   -0.004498  -0.004498  -0.000522  -0.000164  -0.000164   0.000012
     4  H   -0.006225   0.007535  -0.000082   0.003850  -0.000158   0.000001
     5  H    0.007535  -0.006225  -0.000082  -0.000158   0.003850   0.000001
     6  C   -0.040315  -0.040315   0.313304   0.411263   0.411263  -0.041287
     7  H    0.614231  -0.037262  -0.003644  -0.007574   0.008679  -0.000164
     8  H   -0.037262   0.614231  -0.003644   0.008679  -0.007574  -0.000164
     9  C   -0.003644  -0.003644   4.886753  -0.032178  -0.032178   0.416591
    10  H   -0.007574   0.008679  -0.032178   0.614231  -0.037262  -0.004498
    11  H    0.008679  -0.007574  -0.032178  -0.037262   0.614231  -0.004498
    12  H   -0.000164  -0.000164   0.416591  -0.004498  -0.004498   0.556094
    13  H    0.003850  -0.000158   0.412602  -0.006225   0.007535  -0.023871
    14  H   -0.000158   0.003850   0.412602   0.007535  -0.006225  -0.023871
              13         14
     1  C   -0.000082  -0.000082
     2  C   -0.005420  -0.005420
     3  H    0.000001   0.000001
     4  H    0.000077  -0.000025
     5  H   -0.000025   0.000077
     6  C   -0.037240  -0.037240
     7  H    0.003850  -0.000158
     8  H   -0.000158   0.003850
     9  C    0.412602   0.412602
    10  H   -0.006225   0.007535
    11  H    0.007535  -0.006225
    12  H   -0.023871  -0.023871
    13  H    0.573478  -0.030097
    14  H   -0.030097   0.573478
 Mulliken charges:
               1
     1  C   -0.333143
     2  C   -0.167134
     3  H    0.116211
     4  H    0.105574
     5  H    0.105574
     6  C   -0.167134
     7  H    0.086459
     8  H    0.086459
     9  C   -0.333143
    10  H    0.086459
    11  H    0.086459
    12  H    0.116211
    13  H    0.105574
    14  H    0.105574
 Sum of Mulliken charges =   0.00000
 Mulliken charges with hydrogens summed into heavy atoms:
               1
     1  C   -0.005783
     2  C    0.005783
     6  C    0.005783
     9  C   -0.005783
 Electronic spatial extent (au):  <R**2>=            424.3684
 Charge=              0.0000 electrons
 Dipole moment (field-independent basis, Debye):
    X=              0.0000    Y=              0.0000    Z=              0.0000  Tot=              0.0000
 Quadrupole moment (field-independent basis, Debye-Ang):
   XX=            -28.3763   YY=            -29.3728   ZZ=            -27.8348
   XY=              0.0128   XZ=              0.0000   YZ=              0.0000
 Traceless Quadrupole moment (field-independent basis, Debye-Ang):
   XX=              0.1517   YY=             -0.8448   ZZ=              0.6932
   XY=              0.0128   XZ=              0.0000   YZ=              0.0000
 Octapole moment (field-independent basis, Debye-Ang**2):
  XXX=              0.0000  YYY=              0.0000  ZZZ=              0.0000  XYY=              0.0000
  XXY=              0.0000  XXZ=              0.0000  XZZ=              0.0000  YZZ=              0.0000
  YYZ=              0.0000  XYZ=              0.0000
 Hexadecapole moment (field-independent basis, Debye-Ang**3):
 XXXX=           -147.4539 YYYY=           -401.9937 ZZZZ=            -57.9688 XXXY=            -62.8321
 XXXZ=              0.0000 YYYX=            -69.1630 YYYZ=              0.0000 ZZZX=              0.0000
 ZZZY=              0.0000 XXYY=            -87.7891 XXZZ=            -34.6650 YYZZ=            -72.6767
 XXYZ=              0.0000 YYXZ=              0.0000 ZZXY=            -24.9489
 N-N= 1.306985877248D+02 E-N=-6.275564658458D+02  KE= 1.575105526458D+02
 Symmetry AG   KE= 7.629212264951D+01
 Symmetry BG   KE= 4.045129453548D+00
 Symmetry AU   KE= 3.855727401618D+00
 Symmetry BU   KE= 7.331757314115D+01
 No NMR shielding tensors so no spin-rotation constants.
 Leave Link  601 at Fri Jul  9 19:21:48 2021, MaxMem=  4194304000 cpu:        54.9
 (Enter /home/minenky/programs//g09/l701.exe)
 Compute integral first derivatives.
 ... and contract with generalized density number  0.
 R6Disp: Adding Grimme-D2 dispersion energy 1st derivatives to the gradient.
   4 Symmetry operations used in ECPInt.
 ECPInt:  NShTT=    3570 NPrTT=    9988 LenC2=    3551 LenP2D=    8517.
 LDataN:  DoStor=T MaxTD1= 7 Len=  274
 Leave Link  701 at Fri Jul  9 19:21:58 2021, MaxMem=  4194304000 cpu:        49.0
 (Enter /home/minenky/programs//g09/l702.exe)
 L702 exits ... SP integral derivatives will be done elsewhere.
 Leave Link  702 at Fri Jul  9 19:21:59 2021, MaxMem=  4194304000 cpu:         0.1
 (Enter /home/minenky/programs//g09/l703.exe)
 Compute integral first derivatives, UseDBF=F ICtDFT=           0.
 Integral derivatives from FoFJK, PRISM(SPDF).
 Calling FoFJK, ICntrl=      2127 FMM=F ISym2X=1 I1Cent= 0 IOpClX= 0 NMat=1 NMatS=1 NMatT=0.
 FoFJK:  IHMeth= 1 ICntrl=    2127 DoSepK=T KAlg= 0 I1Cent=   0 FoldK=F
 IRaf=         1 NMat=   1 IRICut=       1 DoRegI=T DoRafI=F ISym2E= 1.
 FoFCou: FMM=F IPFlag=           0 FMFlag=      100000 FMFlg1=         800
         NFxFlg=           0 DoJE=F BraDBF=F KetDBF=F FulRan=T
         wScrn=  0.000000 ICntrl=    2527 IOpCl=  0 I1Cent=           0 NGrid=           0
         NMat0=    1 NMatS0=      1 NMatT0=    0 NMatD0=    1 NMtDS0=    0 NMtDT0=    0
 Petite list used in FoFCou.
 Leave Link  703 at Fri Jul  9 19:22:20 2021, MaxMem=  4194304000 cpu:       142.6
 (Enter /home/minenky/programs//g09/l716.exe)
 Dipole        =-6.99440506D-15-1.24344979D-14-2.22044605D-16
 ***** Axes restored to original set *****
 -------------------------------------------------------------------
 Center     Atomic                   Forces (Hartrees/Bohr)
 Number     Number              X              Y              Z
 -------------------------------------------------------------------
      1        6          -0.000152722   -0.001132448    0.000000000
      2        6          -0.000721538    0.000424732    0.000000000
      3        1          -0.000155329   -0.000319855    0.000000000
      4        1           0.000023775   -0.000252903   -0.000051926
      5        1           0.000023775   -0.000252903    0.000051926
      6        6           0.000721538   -0.000424732    0.000000000
      7        1          -0.000227369    0.000174790   -0.000115486
      8        1          -0.000227369    0.000174790    0.000115486
      9        6           0.000152722    0.001132448    0.000000000
     10        1           0.000227369   -0.000174790   -0.000115486
     11        1           0.000227369   -0.000174790    0.000115486
     12        1           0.000155329    0.000319855    0.000000000
     13        1          -0.000023775    0.000252903   -0.000051926
     14        1          -0.000023775    0.000252903    0.000051926
 -------------------------------------------------------------------
 Cartesian Forces:  Max     0.001132448 RMS     0.000342180
 Leave Link  716 at Fri Jul  9 19:22:20 2021, MaxMem=  4194304000 cpu:         0.1
 (Enter /home/minenky/programs//g09/l103.exe)

 GradGradGradGradGradGradGradGradGradGradGradGradGradGradGradGradGradGrad
 Berny optimization.
 FormGI is forming the generalized inverse of G from B-inverse, IUseBI=4.
 Internal  Forces:  Max     0.001958187 RMS     0.000444785
 Search for a local minimum.
 Step number   1 out of a maximum of   74
 All quantities printed in internal units (Hartrees-Bohrs-Radians)
 RMS Force = .44478D-03 SwitMx=.10000D-02 MixMth= 2
 Mixed Optimization -- En-DIIS/RFO-DIIS
 Second derivative matrix not updated -- first step.
 ITU=  0
     Eigenvalues ---    0.00406   0.00424   0.00424   0.03505   0.03505
     Eigenvalues ---    0.04846   0.04846   0.05487   0.05487   0.05555
     Eigenvalues ---    0.05555   0.08465   0.08465   0.12293   0.12293
     Eigenvalues ---    0.16000   0.16000   0.16000   0.16000   0.16000
     Eigenvalues ---    0.16000   0.21899   0.21899   0.29685   0.29809
     Eigenvalues ---    0.29809   0.34224   0.34224   0.34224   0.34224
     Eigenvalues ---    0.34491   0.34491   0.34491   0.34491   0.34630
     Eigenvalues ---    0.34630
 RFO step:  Lambda=-4.70814653D-05 EMin= 4.06357356D-03
 Linear search not attempted -- first point.
 Iteration  1 RMS(Cart)=  0.00488596 RMS(Int)=  0.00000184
 Iteration  2 RMS(Cart)=  0.00000180 RMS(Int)=  0.00000060
 Iteration  3 RMS(Cart)=  0.00000000 RMS(Int)=  0.00000060
 ITry= 1 IFail=0 DXMaxC= 1.36D-02 DCOld= 1.00D+10 DXMaxT= 3.00D-01 DXLimC= 3.00D+00 Rises=F
 ClnCor:  largest displacement from symmetrization is 2.84D-08 for atom    11.
 Variable       Old X    -DE/DX   Delta X   Delta X   Delta X     New X
                                 (Linear)    (Quad)   (Total)
    R1        2.88346  -0.00196   0.00000  -0.00657  -0.00657   2.87689
    R2        2.06280  -0.00026   0.00000  -0.00076  -0.00076   2.06204
    R3        2.06510  -0.00014   0.00000  -0.00042  -0.00042   2.06468
    R4        2.06510  -0.00014   0.00000  -0.00042  -0.00042   2.06468
    R5        2.88596  -0.00179   0.00000  -0.00602  -0.00602   2.87994
    R6        2.06954  -0.00026   0.00000  -0.00077  -0.00077   2.06877
    R7        2.06954  -0.00026   0.00000  -0.00077  -0.00077   2.06877
    R8        2.88346  -0.00196   0.00000  -0.00657  -0.00657   2.87689
    R9        2.06954  -0.00026   0.00000  -0.00077  -0.00077   2.06877
   R10        2.06954  -0.00026   0.00000  -0.00077  -0.00077   2.06877
   R11        2.06280  -0.00026   0.00000  -0.00076  -0.00076   2.06204
   R12        2.06510  -0.00014   0.00000  -0.00042  -0.00042   2.06468
   R13        2.06510  -0.00014   0.00000  -0.00042  -0.00042   2.06468
    A1        1.94706  -0.00024   0.00000  -0.00153  -0.00153   1.94553
    A2        1.93827  -0.00020   0.00000  -0.00127  -0.00127   1.93700
    A3        1.93827  -0.00020   0.00000  -0.00127  -0.00127   1.93700
    A4        1.88035   0.00024   0.00000   0.00147   0.00147   1.88182
    A5        1.88035   0.00024   0.00000   0.00147   0.00147   1.88182
    A6        1.87656   0.00022   0.00000   0.00138   0.00137   1.87793
    A7        1.97516  -0.00047   0.00000  -0.00272  -0.00272   1.97244
    A8        1.91274   0.00011   0.00000   0.00011   0.00011   1.91284
    A9        1.91274   0.00011   0.00000   0.00011   0.00011   1.91284
   A10        1.90410   0.00013   0.00000   0.00037   0.00037   1.90447
   A11        1.90410   0.00013   0.00000   0.00037   0.00037   1.90447
   A12        1.85084   0.00001   0.00000   0.00208   0.00208   1.85292
   A13        1.97516  -0.00047   0.00000  -0.00272  -0.00272   1.97244
   A14        1.90410   0.00013   0.00000   0.00037   0.00037   1.90447
   A15        1.90410   0.00013   0.00000   0.00037   0.00037   1.90447
   A16        1.91274   0.00011   0.00000   0.00011   0.00011   1.91284
   A17        1.91274   0.00011   0.00000   0.00011   0.00011   1.91284
   A18        1.85084   0.00001   0.00000   0.00208   0.00208   1.85292
   A19        1.94706  -0.00024   0.00000  -0.00153  -0.00153   1.94553
   A20        1.93827  -0.00020   0.00000  -0.00127  -0.00127   1.93700
   A21        1.93827  -0.00020   0.00000  -0.00127  -0.00127   1.93700
   A22        1.88035   0.00024   0.00000   0.00147   0.00147   1.88182
   A23        1.88035   0.00024   0.00000   0.00147   0.00147   1.88182
   A24        1.87656   0.00022   0.00000   0.00138   0.00137   1.87793
    D1        3.14159   0.00000   0.00000   0.00000   0.00000   3.14159
    D2        1.01214   0.00007   0.00000   0.00131   0.00131   1.01345
    D3       -1.01214  -0.00007   0.00000  -0.00131  -0.00131  -1.01345
    D4        1.04364   0.00000   0.00000   0.00003   0.00003   1.04367
    D5       -1.08581   0.00007   0.00000   0.00134   0.00134  -1.08448
    D6       -3.11009  -0.00007   0.00000  -0.00129  -0.00129  -3.11137
    D7       -1.04364   0.00000   0.00000  -0.00003  -0.00003  -1.04367
    D8        3.11009   0.00007   0.00000   0.00129   0.00129   3.11137
    D9        1.08581  -0.00007   0.00000  -0.00134  -0.00134   1.08448
   D10        3.14159   0.00000   0.00000   0.00000   0.00000   3.14159
   D11       -1.00731  -0.00008   0.00000  -0.00144  -0.00144  -1.00875
   D12        1.00731   0.00008   0.00000   0.00144   0.00144   1.00875
   D13       -1.00731  -0.00008   0.00000  -0.00144  -0.00144  -1.00875
   D14        1.12697  -0.00016   0.00000  -0.00288  -0.00288   1.12408
   D15        3.14159   0.00000   0.00000   0.00000   0.00000   3.14159
   D16        1.00731   0.00008   0.00000   0.00144   0.00144   1.00875
   D17       -3.14159   0.00000   0.00000   0.00000   0.00000  -3.14159
   D18       -1.12697   0.00016   0.00000   0.00288   0.00288  -1.12408
   D19        3.14159   0.00000   0.00000   0.00000   0.00000   3.14159
   D20        1.04364   0.00000   0.00000   0.00003   0.00003   1.04367
   D21       -1.04364   0.00000   0.00000  -0.00003  -0.00003  -1.04367
   D22        1.01214   0.00007   0.00000   0.00131   0.00131   1.01345
   D23       -1.08581   0.00007   0.00000   0.00134   0.00134  -1.08448
   D24        3.11009   0.00007   0.00000   0.00129   0.00129   3.11137
   D25       -1.01214  -0.00007   0.00000  -0.00131  -0.00131  -1.01345
   D26       -3.11009  -0.00007   0.00000  -0.00129  -0.00129  -3.11137
   D27        1.08581  -0.00007   0.00000  -0.00134  -0.00134   1.08448
         Item               Value     Threshold  Converged?
 Maximum Force            0.001958     0.000015     NO 
 RMS     Force            0.000445     0.000010     NO 
 Maximum Displacement     0.013638     0.000060     NO 
 RMS     Displacement     0.004886     0.000040     NO 
 Predicted change in Energy=-2.354493D-05
 Lowest energy point so far.  Saving SCF results.
 GradGradGradGradGradGradGradGradGradGradGradGradGradGradGradGradGradGrad

 Leave Link  103 at Fri Jul  9 19:22:39 2021, MaxMem=  4194304000 cpu:        88.1
 (Enter /home/minenky/programs//g09/l202.exe)
                          Input orientation:                          
 ---------------------------------------------------------------------
 Center     Atomic      Atomic             Coordinates (Angstroms)
 Number     Number       Type             X           Y           Z
 ---------------------------------------------------------------------
      1          6           0        0.699716    1.820904    0.000000
      2          6           0        0.701091    0.298521    0.000000
      3          1           0        1.714818    2.221222    0.000000
      4          1           0        0.186179    2.211669    0.881658
      5          1           0        0.186179    2.211669   -0.881658
      6          6           0       -0.701091   -0.298521    0.000000
      7          1           0        1.246928   -0.068180    0.875246
      8          1           0        1.246928   -0.068180   -0.875246
      9          6           0       -0.699716   -1.820904    0.000000
     10          1           0       -1.246928    0.068180    0.875246
     11          1           0       -1.246928    0.068180   -0.875246
     12          1           0       -1.714818   -2.221222    0.000000
     13          1           0       -0.186179   -2.211669    0.881658
     14          1           0       -0.186179   -2.211669   -0.881658
 ---------------------------------------------------------------------
                    Distance matrix (angstroms):
                    1          2          3          4          5
     1  C    0.000000
     2  C    1.522383   0.000000
     3  H    1.091186   2.173573   0.000000
     4  H    1.092583   2.168545   1.764695   0.000000
     5  H    1.092583   2.168545   1.764695   1.763315   0.000000
     6  C    2.540517   1.524000   3.490806   2.804572   2.804572
     7  H    2.152705   1.094744   2.495263   2.514546   3.067509
     8  H    2.152705   1.094744   2.495263   3.067509   2.514546
     9  C    3.901433   2.540517   4.708371   4.221822   4.221822
    10  H    2.761796   2.147997   3.764782   2.578446   3.120105
    11  H    2.761796   2.147997   3.764782   3.120105   2.578446
    12  H    4.708371   3.490806   5.612283   4.903227   4.903227
    13  H    4.221822   2.804572   4.903227   4.438983   4.776385
    14  H    4.221822   2.804572   4.903227   4.776385   4.438983
                    6          7          8          9         10
     6  C    0.000000
     7  H    2.147997   0.000000
     8  H    2.147997   1.750492   0.000000
     9  C    1.522383   2.761796   2.761796   0.000000
    10  H    1.094744   2.497581   3.049940   2.152705   0.000000
    11  H    1.094744   3.049940   2.497581   2.152705   1.750492
    12  H    2.173573   3.764782   3.764782   1.091186   2.495263
    13  H    2.168545   2.578446   3.120105   1.092583   2.514546
    14  H    2.168545   3.120105   2.578446   1.092583   3.067509
                   11         12         13         14
    11  H    0.000000
    12  H    2.495263   0.000000
    13  H    3.067509   1.764695   0.000000
    14  H    2.514546   1.764695   1.763315   0.000000
 Stoichiometry    C4H10
 Framework group  C2H[SGH(C4H2),X(H8)]
 Deg. of freedom    11
 Full point group                 C2H     NOp   4
 RotChk:  IX=0 Diff= 1.28D-03
 Largest Abelian subgroup         C2H     NOp   4
 Largest concise Abelian subgroup C2H     NOp   4
                         Standard orientation:                         
 ---------------------------------------------------------------------
 Center     Atomic      Atomic             Coordinates (Angstroms)
 Number     Number       Type             X           Y           Z
 ---------------------------------------------------------------------
      1          6           0        0.701360    1.820271    0.000000
      2          6           0        0.701360    0.297888    0.000000
      3          1           0        1.716824    2.219672    0.000000
      4          1           0        0.188177    2.211500    0.881658
      5          1           0        0.188177    2.211500   -0.881658
      6          6           0       -0.701360   -0.297888    0.000000
      7          1           0        1.246866   -0.069307    0.875246
      8          1           0        1.246866   -0.069307   -0.875246
      9          6           0       -0.701360   -1.820271    0.000000
     10          1           0       -1.246866    0.069307    0.875246
     11          1           0       -1.246866    0.069307   -0.875246
     12          1           0       -1.716824   -2.219672    0.000000
     13          1           0       -0.188177   -2.211500    0.881658
     14          1           0       -0.188177   -2.211500   -0.881658
 ---------------------------------------------------------------------
 Rotational constants (GHZ):     23.5850049      3.6543357      3.4314144
 Leave Link  202 at Fri Jul  9 19:22:39 2021, MaxMem=  4194304000 cpu:         1.9
 (Enter /home/minenky/programs//g09/l301.exe)
 Standard basis: def2TZVP (5D, 7F)
 Ernie: Thresh=  0.10000D-02 Tol=  0.10000D-05 Strict=F.
 There are    67 symmetry adapted cartesian basis functions of AG  symmetry.
 There are    35 symmetry adapted cartesian basis functions of BG  symmetry.
 There are    35 symmetry adapted cartesian basis functions of AU  symmetry.
 There are    67 symmetry adapted cartesian basis functions of BU  symmetry.
 There are    59 symmetry adapted basis functions of AG  symmetry.
 There are    33 symmetry adapted basis functions of BG  symmetry.
 There are    33 symmetry adapted basis functions of AU  symmetry.
 There are    59 symmetry adapted basis functions of BU  symmetry.
   184 basis functions,   284 primitive gaussians,   204 cartesian basis functions
    17 alpha electrons       17 beta electrons
       nuclear repulsion energy       130.9482058230 Hartrees.
 IExCor= 4639 DFT=T Ex+Corr=wB97XD ExCW=0 ScaHFX=  1.000000
 ScaDFX=  1.000000  1.000000  1.000000  1.000000 ScalE2=  1.000000  1.000000
 IRadAn=      5 IRanWt=     -1 IRanGd=            0 ICorTp=0 IEmpDi=121
  HFx wShort=  0.000000 wLong=  0.200000 cFull=  0.222036 cShort=  0.000000 cLong=  0.777964
  DFx wShort=  0.000000 wLong=  0.200000 cFull=  0.000000 cShort=  0.000000 cLong=  1.000000
 NAtoms=   14 NActive=   14 NUniq=    5 SFac= 4.00D+00 NAtFMM=   60 NAOKFM=F Big=F
 Integral buffers will be    131072 words long.
 Raffenetti 2 integral format.
 Two-electron integral symmetry is turned on.
 R6Disp:  Grimme-D2 Dispersion energy=       -0.0063136551 Hartrees.
 Nuclear repulsion after empirical dispersion term =      130.9418921679 Hartrees.
 Leave Link  301 at Fri Jul  9 19:22:40 2021, MaxMem=  4194304000 cpu:         0.4
 (Enter /home/minenky/programs//g09/l302.exe)
 NPDir=0 NMtPBC=     1 NCelOv=     1 NCel=       1 NClECP=     1 NCelD=      1
         NCelK=      1 NCelE2=     1 NClLst=     1 CellRange=     0.0.
 One-electron integrals computed using PRISM.
 One-electron integral symmetry used in STVInt
   4 Symmetry operations used in ECPInt.
 ECPInt:  NShTT=    3570 NPrTT=    9988 LenC2=    3551 LenP2D=    8521.
 LDataN:  DoStor=T MaxTD1= 6 Len=  172
 NBasis=   184 RedAO= T EigKep=  2.41D-04  NBF=    59    33    33    59
 NBsUse=   184 1.00D-06 EigRej= -1.00D+00 NBFU=    59    33    33    59
 Precomputing XC quadrature grid using
 IXCGrd= 4 IRadAn=           5 IRanWt=          -1 IRanGd=           0 AccXCQ= 0.00D+00.
 Generated NRdTot=       0 NPtTot=           0 NUsed=           0 NTot=          32
 NSgBfM=   203   203   203   203   203 MxSgAt=    14 MxSgA2=    14.
 Leave Link  302 at Fri Jul  9 19:23:23 2021, MaxMem=  4194304000 cpu:       236.8
 (Enter /home/minenky/programs//g09/l303.exe)
 DipDrv:  MaxL=1.
 Leave Link  303 at Fri Jul  9 19:23:24 2021, MaxMem=  4194304000 cpu:         6.6
 (Enter /home/minenky/programs//g09/l401.exe)
 Initial guess from the checkpoint file:  "m1_00_106-97-80_C4H10_wB97XD.chk"
 B after Tr=     0.000000    0.000000    0.000000
         Rot=    1.000000    0.000000    0.000000    0.000486 Ang=   0.06 deg.
 Guess basis will be translated and rotated to current coordinates.
 JPrj=2 DoOrth=T DoCkMO=T.
 Initial guess orbital symmetries:
       Occupied  (AG) (BU) (BU) (AG) (AG) (BU) (AG) (BU) (AU) (AG)
                 (BU) (BG) (BU) (AU) (AG) (AG) (BG)
       Virtual   (AG) (AG) (AG) (AG) (AG) (AG) (AG) (AG) (AG) (AG)
                 (AG) (AG) (AG) (AG) (AG) (AG) (AG) (AG) (AG) (AG)
                 (AG) (AG) (AG) (AG) (AG) (AG) (AG) (AG) (AG) (AG)
                 (AG) (AG) (AG) (AG) (AG) (AG) (AG) (AG) (AG) (AG)
                 (AG) (AG) (AG) (AG) (AG) (AG) (AG) (AG) (AG) (AG)
                 (AG) (AG) (BG) (BG) (BG) (BG) (BG) (BG) (BG) (BG)
                 (BG) (BG) (BG) (BG) (BG) (BG) (BG) (BG) (BG) (BG)
                 (BG) (BG) (BG) (BG) (BG) (BG) (BG) (BG) (BG) (BG)
                 (BG) (BG) (BG) (AU) (AU) (AU) (AU) (AU) (AU) (AU)
                 (AU) (AU) (AU) (AU) (AU) (AU) (AU) (AU) (AU) (AU)
                 (AU) (AU) (AU) (AU) (AU) (AU) (AU) (AU) (AU) (AU)
                 (AU) (AU) (AU) (AU) (BU) (BU) (BU) (BU) (BU) (BU)
                 (BU) (BU) (BU) (BU) (BU) (BU) (BU) (BU) (BU) (BU)
                 (BU) (BU) (BU) (BU) (BU) (BU) (BU) (BU) (BU) (BU)
                 (BU) (BU) (BU) (BU) (BU) (BU) (BU) (BU) (BU) (BU)
                 (BU) (BU) (BU) (BU) (BU) (BU) (BU) (BU) (BU) (BU)
                 (BU) (BU) (BU) (BU) (BU) (BU) (BU)
 The electronic state of the initial guess is 1-AG.
 Leave Link  401 at Fri Jul  9 19:23:30 2021, MaxMem=  4194304000 cpu:        29.2
 (Enter /home/minenky/programs//g09/l502.exe)
 Closed shell SCF:
 Using DIIS extrapolation, IDIIS=  1040.
 Integral symmetry usage will be decided dynamically.
 Keep R1 ints in memory in symmetry-blocked form, NReq=362975666.
 IVT=      278274 IEndB=      278274 NGot=  4194304000 MDV=  4157507257
 LenX=  4157507257 LenY=  4157465200
 Requested convergence on RMS density matrix=1.00D-08 within 380 cycles.
 Requested convergence on MAX density matrix=1.00D-06.
 Requested convergence on             energy=1.00D-06.
 No special actions if energy rises.
 FoFCou: FMM=F IPFlag=           0 FMFlag=           0 FMFlg1=           0
         NFxFlg=           0 DoJE=F BraDBF=F KetDBF=F FulRan=T
         wScrn=  0.000000 ICntrl=     600 IOpCl=  0 I1Cent=           0 NGrid=           0
         NMat0=    1 NMatS0=  17020 NMatT0=    0 NMatD0=    1 NMtDS0=    0 NMtDT0=    0
 Petite list used in FoFCou.

 Cycle   1  Pass 1  IDiag  1:
 E= -158.465322998145    
 DIIS: error= 1.66D-04 at cycle   1 NSaved=   1.
 NSaved= 1 IEnMin= 1 EnMin= -158.465322998145     IErMin= 1 ErrMin= 1.66D-04
 ErrMax= 1.66D-04  0.00D+00 EMaxC= 1.00D-01 BMatC= 7.22D-06 BMatP= 7.22D-06
 IDIUse=3 WtCom= 9.98D-01 WtEn= 1.66D-03
 Coeff-Com:  0.100D+01
 Coeff-En:   0.100D+01
 Coeff:      0.100D+01
 Gap=     0.949 Goal=   None    Shift=    0.000
 RMSDP=1.63D-05 MaxDP=2.51D-04              OVMax= 6.64D-04

 Cycle   2  Pass 1  IDiag  1:
[...]
   D20        1.04346   0.00000   0.00000  -0.00001  -0.00001   1.04346
   D21       -1.04346   0.00000   0.00000   0.00001   0.00001  -1.04346
   D22        1.01305   0.00000   0.00000  -0.00002  -0.00002   1.01303
   D23       -1.08508   0.00000   0.00000  -0.00002  -0.00002  -1.08511
   D24        3.11118   0.00000   0.00000  -0.00001  -0.00001   3.11117
   D25       -1.01305   0.00000   0.00000   0.00002   0.00002  -1.01303
   D26       -3.11118   0.00000   0.00000   0.00001   0.00001  -3.11117
   D27        1.08508   0.00000   0.00000   0.00002   0.00002   1.08511
         Item               Value     Threshold  Converged?
 Maximum Force            0.000012     0.000015     YES
 RMS     Force            0.000003     0.000010     YES
 Maximum Displacement     0.000041     0.000060     YES
 RMS     Displacement     0.000012     0.000040     YES
 Predicted change in Energy=-1.267367D-09
 Optimization completed.
    -- Stationary point found.
                           ----------------------------
                           !   Optimized Parameters   !
                           ! (Angstroms and Degrees)  !
 --------------------------                            --------------------------
 ! Name  Definition              Value          Derivative Info.                !
 --------------------------------------------------------------------------------
 ! R1    R(1,2)                  1.5227         -DE/DX =    0.0                 !
 ! R2    R(1,3)                  1.0912         -DE/DX =    0.0                 !
 ! R3    R(1,4)                  1.0926         -DE/DX =    0.0                 !
 ! R4    R(1,5)                  1.0926         -DE/DX =    0.0                 !
 ! R5    R(2,6)                  1.5243         -DE/DX =    0.0                 !
 ! R6    R(2,7)                  1.0948         -DE/DX =    0.0                 !
 ! R7    R(2,8)                  1.0948         -DE/DX =    0.0                 !
 ! R8    R(6,9)                  1.5227         -DE/DX =    0.0                 !
 ! R9    R(6,10)                 1.0948         -DE/DX =    0.0                 !
 ! R10   R(6,11)                 1.0948         -DE/DX =    0.0                 !
 ! R11   R(9,12)                 1.0912         -DE/DX =    0.0                 !
 ! R12   R(9,13)                 1.0926         -DE/DX =    0.0                 !
 ! R13   R(9,14)                 1.0926         -DE/DX =    0.0                 !
 ! A1    A(2,1,3)              111.5237         -DE/DX =    0.0                 !
 ! A2    A(2,1,4)              110.9885         -DE/DX =    0.0                 !
 ! A3    A(2,1,5)              110.9885         -DE/DX =    0.0                 !
 ! A4    A(3,1,4)              107.7983         -DE/DX =    0.0                 !
 ! A5    A(3,1,5)              107.7983         -DE/DX =    0.0                 !
 ! A6    A(4,1,5)              107.5723         -DE/DX =    0.0                 !
 ! A7    A(1,2,6)              113.0716         -DE/DX =    0.0                 !
 ! A8    A(1,2,7)              109.6024         -DE/DX =    0.0                 !
 ! A9    A(1,2,8)              109.6024         -DE/DX =    0.0                 !
 ! A10   A(6,2,7)              109.102          -DE/DX =    0.0                 !
 ! A11   A(6,2,8)              109.102          -DE/DX =    0.0                 !
 ! A12   A(7,2,8)              106.122          -DE/DX =    0.0                 !
 ! A13   A(2,6,9)              113.0716         -DE/DX =    0.0                 !
 ! A14   A(2,6,10)             109.102          -DE/DX =    0.0                 !
 ! A15   A(2,6,11)             109.102          -DE/DX =    0.0                 !
 ! A16   A(9,6,10)             109.6024         -DE/DX =    0.0                 !
 ! A17   A(9,6,11)             109.6024         -DE/DX =    0.0                 !
 ! A18   A(10,6,11)            106.122          -DE/DX =    0.0                 !
 ! A19   A(6,9,12)             111.5237         -DE/DX =    0.0                 !
 ! A20   A(6,9,13)             110.9885         -DE/DX =    0.0                 !
 ! A21   A(6,9,14)             110.9885         -DE/DX =    0.0                 !
 ! A22   A(12,9,13)            107.7983         -DE/DX =    0.0                 !
 ! A23   A(12,9,14)            107.7983         -DE/DX =    0.0                 !
 ! A24   A(13,9,14)            107.5723         -DE/DX =    0.0                 !
 ! D1    D(3,1,2,6)            180.0            -DE/DX =    0.0                 !
 ! D2    D(3,1,2,7)             58.0433         -DE/DX =    0.0                 !
 ! D3    D(3,1,2,8)            -58.0433         -DE/DX =    0.0                 !
 ! D4    D(4,1,2,6)             59.786          -DE/DX =    0.0                 !
 ! D5    D(4,1,2,7)            -62.1706         -DE/DX =    0.0                 !
 ! D6    D(4,1,2,8)           -178.2573         -DE/DX =    0.0                 !
 ! D7    D(5,1,2,6)            -59.786          -DE/DX =    0.0                 !
 ! D8    D(5,1,2,7)            178.2573         -DE/DX =    0.0                 !
 ! D9    D(5,1,2,8)             62.1706         -DE/DX =    0.0                 !
 ! D10   D(1,2,6,9)            180.0            -DE/DX =    0.0                 !
 ! D11   D(1,2,6,10)           -57.7631         -DE/DX =    0.0                 !
 ! D12   D(1,2,6,11)            57.7631         -DE/DX =    0.0                 !
 ! D13   D(7,2,6,9)            -57.7631         -DE/DX =    0.0                 !
 ! D14   D(7,2,6,10)            64.4737         -DE/DX =    0.0                 !
 ! D15   D(7,2,6,11)           180.0            -DE/DX =    0.0                 !
 ! D16   D(8,2,6,9)             57.7631         -DE/DX =    0.0                 !
 ! D17   D(8,2,6,10)           180.0            -DE/DX =    0.0                 !
 ! D18   D(8,2,6,11)           -64.4737         -DE/DX =    0.0                 !
 ! D19   D(2,6,9,12)           180.0            -DE/DX =    0.0                 !
 ! D20   D(2,6,9,13)            59.786          -DE/DX =    0.0                 !
 ! D21   D(2,6,9,14)           -59.786          -DE/DX =    0.0                 !
 ! D22   D(10,6,9,12)           58.0433         -DE/DX =    0.0                 !
 ! D23   D(10,6,9,13)          -62.1706         -DE/DX =    0.0                 !
 ! D24   D(10,6,9,14)          178.2573         -DE/DX =    0.0                 !
 ! D25   D(11,6,9,12)          -58.0433         -DE/DX =    0.0                 !
 ! D26   D(11,6,9,13)         -178.2573         -DE/DX =    0.0                 !
 ! D27   D(11,6,9,14)           62.1706         -DE/DX =    0.0                 !
 --------------------------------------------------------------------------------
 GradGradGradGradGradGradGradGradGradGradGradGradGradGradGradGradGradGrad

 Leave Link  103 at Fri Jul  9 19:30:55 2021, MaxMem=  4194304000 cpu:        72.6
 (Enter /home/minenky/programs//g09/l9999.exe)
 1\1\GINC-CN506-02-R\Freq\RwB97XD\def2TZVP\C4H10\MINENKY\09-Jul-2021\0\
 \#P Geom=AllCheck Guess=TCheck SCRF=Check GenChk RwB97XD/def2TZVP Freq
 \\The PBEPBE optimization and frequencies\\0,1\C,0.7002788017,1.821754
 5675,0.\C,0.7010468447,0.2990288001,0.\H,1.7151871351,2.2226141426,0.\
 H,0.1867306895,2.212844093,0.8815298415\H,0.1867306895,2.212844093,-0.
 8815298415\C,-0.7010468447,-0.2990288001,0.\H,1.2471027713,-0.06799113
 54,0.8750479976\H,1.2471027713,-0.0679911354,-0.8750479976\C,-0.700278
 8017,-1.8217545675,0.\H,-1.2471027713,0.0679911354,0.8750479976\H,-1.2
 471027713,0.0679911354,-0.8750479976\H,-1.7151871351,-2.2226141426,0.\
 H,-0.1867306895,-2.212844093,0.8815298415\H,-0.1867306895,-2.212844093
 ,-0.8815298415\\Version=AM64L-G09RevD.01\State=1-AG\HF=-158.4653311\RM
 SD=1.955e-09\RMSF=6.080e-06\ZeroPoint=0.1326572\Thermal=0.1384072\Dipo
 le=0.,0.,0.\DipoleDeriv=0.0763876,-0.0422754,0.,-0.0210582,0.005136,0.
 ,0.,0.,0.1161302,0.0827932,-0.0060205,0.,-0.0139038,0.0795476,0.,0.,0.
 ,0.1494186,-0.1338659,-0.1161617,0.,-0.0697907,-0.0272591,0.,0.,0.,0.0
 74254,0.014589,0.0625985,0.0938164,0.0151011,-0.0017654,-0.0293267,0.0
 850812,-0.0829804,-0.0844971,0.014589,0.0625985,-0.0938164,0.0151011,-
 0.0017654,0.0293267,-0.0850812,0.0829804,-0.0844971,0.0827932,-0.00602
 05,0.,-0.0139037,0.0795476,0.,0.,0.,0.1494185,-0.0272464,0.0196303,-0.
 0717847,0.0372752,-0.0269469,0.0700841,-0.1073833,0.0767837,-0.0854042
 ,-0.0272464,0.0196303,0.0717847,0.0372752,-0.0269469,-0.0700841,0.1073
 833,-0.0767837,-0.0854042,0.0763876,-0.0422754,0.,-0.0210582,0.005136,
 0.,0.,0.,0.1161302,-0.0272464,0.0196303,0.0717847,0.0372752,-0.0269469
 ,-0.0700841,0.1073833,-0.0767837,-0.0854043,-0.0272464,0.0196303,-0.07
 17847,0.0372752,-0.0269469,0.0700841,-0.1073833,0.0767837,-0.0854042,-
 0.1338659,-0.1161617,0.,-0.0697907,-0.0272591,0.,0.,0.,0.074254,0.0145
 89,0.0625985,-0.0938164,0.0151011,-0.0017654,0.0293267,-0.0850812,0.08
 29804,-0.0844971,0.014589,0.0625985,0.0938164,0.0151011,-0.0017654,-0.
 0293267,0.0850812,-0.0829804,-0.0844971\Polar=49.4200828,3.3300059,56.
 1294872,0.,0.,46.2401303\PG=C02H [SGH(C4H2),X(H8)]\NImag=0\\0.57867626
 ,0.00495303,0.47981211,0.,0.,0.56976506,-0.08080038,0.00236635,0.,0.51
 345528,0.00496801,-0.20179016,0.,-0.03702452,0.49509147,0.,0.,-0.08027
 245,0.,0.,0.59483000,-0.28173144,-0.08926516,0.,0.00244273,0.00228306,
 0.,0.30344398,-0.08759690,-0.08044501,0.,-0.03326640,-0.01052199,0.,0.
 09759748,0.08893173,0.,0.,-0.04766398,0.,0.,-0.00146051,0.,0.,0.046352
 57,-0.10642045,0.04268134,0.10064669,-0.00091592,0.00022150,-0.0000076
 8,-0.01323529,0.01097739,0.02515583,0.11107202,0.04211807,-0.07775092,
 -0.07285441,0.01634698,-0.01278554,-0.02909476,-0.00475966,0.00359624,
 0.01034753,-0.04745994,0.08736860,0.10060558,-0.07384269,-0.22218940,-
 0.00051064,0.00050287,0.00075750,-0.00097964,0.00103890,0.00073827,-0.
 11131781,0.08148297,0.23835698,-0.10642045,0.04268134,-0.10064669,-0.0
 0091592,0.00022150,0.00000768,-0.01323529,0.01097739,-0.02515583,0.007
 82167,-0.00634797,0.01320528,0.11107202,0.04211807,-0.07775092,0.07285
 441,0.01634698,-0.01278554,0.02909476,-0.00475966,0.00359624,-0.010347
 53,-0.00634797,0.00337814,-0.00900010,-0.04745994,0.08736860,-0.100605
 58,0.07384269,-0.22218940,0.00051064,-0.00050287,0.00075750,0.00097964
 ,-0.00103890,0.00073827,-0.01320528,0.00900010,-0.02051038,0.11131781,
 -0.08148297,0.23835698,0.00065629,-0.00387844,0.,-0.18218203,-0.035864
 74,0.,0.00100180,0.00273308,0.,0.00079630,0.00143567,-0.00007838,0.000
 79630,0.00143567,0.00007838,0.51345528,-0.03527223,-0.01758443,0.,-0.0
 3586474,-0.09245134,0.,-0.00042970,-0.00678872,0.,-0.00042793,0.001495
 78,0.00025066,-0.00042793,0.00149578,-0.00025066,-0.03702452,0.4950914
 7,0.,0.,-0.00059281,0.,0.,-0.08105268,0.,0.,0.00026783,-0.00102677,-0.
 00088458,0.00019093,0.00102677,0.00088458,0.00019093,0.,0.,0.59483000,
 0.00016777,-0.00041168,0.00069389,-0.10905710,0.04158391,-0.09949947,0
 .00042442,0.00021052,0.00039811,-0.00022017,0.00021716,-0.00020045,0.0
 0081600,-0.00035161,0.00005083,-0.01811011,0.00929259,-0.02714333,0.12
 101011,0.01662337,-0.01327827,0.02850538,0.04146184,-0.07468256,0.0663
 8411,-0.00054616,0.00118696,0.00005092,0.00032233,0.00138370,-0.000464
 50,0.00001327,-0.00689819,-0.00036023,-0.00677715,0.00299492,-0.010659
 80,-0.04322260,0.08530943,0.00086711,-0.00078105,0.00092595,-0.1004179
 8,0.06727151,-0.21667474,0.00032025,0.00060797,0.00001287,0.00006116,0
 .00039087,0.00081412,0.00042751,-0.00039963,0.00160129,0.00027735,0.00
 014973,-0.00013338,0.11137888,-0.07454702,0.23194953,0.00016777,-0.000
 41168,-0.00069389,-0.10905711,0.04158391,0.09949947,0.00042442,0.00021
 052,-0.00039811,0.00081600,-0.00035161,-0.00005083,-0.00022017,0.00021
 716,0.00020045,-0.01811011,0.00929259,0.02714333,0.00801075,-0.0057907
 7,-0.01298376,0.12101011,0.01662337,-0.01327827,-0.02850538,0.04146184
 ,-0.07468256,-0.06638411,-0.00054616,0.00118696,-0.00005092,0.00001327
 ,-0.00689819,0.00036023,0.00032233,0.00138370,0.00046450,-0.00677715,0
 .00299492,0.01065980,-0.00579077,0.00330355,0.00855016,-0.04322260,0.0
 8530943,-0.00086711,0.00078105,0.00092595,0.10041798,-0.06727151,-0.21
 667474,-0.00032025,-0.00060797,0.00001287,-0.00042751,0.00039963,0.001
 60129,-0.00006116,-0.00039087,0.00081412,-0.00027735,-0.00014973,-0.00
 013338,0.01298376,-0.00855016,-0.02159397,-0.11137888,0.07454702,0.231
 94953,-0.00652963,-0.00149076,0.,0.00065629,-0.03527223,0.,-0.00002821
 ,-0.00220944,0.,0.00006569,-0.00005025,-0.00030038,0.00006569,-0.00005
 025,0.00030038,-0.08080038,0.00496801,0.,0.00106554,-0.00036703,0.0002
 3335,0.00106554,-0.00036703,-0.00023335,0.57867626,-0.00149076,-0.0000
 6338,0.,-0.00387844,-0.01758443,0.,0.00027066,-0.00022867,0.,-0.000120
 51,-0.00000773,0.00005440,-0.00012051,-0.00000773,-0.00005440,0.002366
 35,-0.20179016,0.,0.00137301,0.00118671,-0.00011104,0.00137301,0.00118
 671,0.00011104,0.00495303,0.47981211,0.,0.,-0.00031694,0.,0.,-0.000592
 81,0.,0.,0.00056034,-0.00009815,0.00028689,0.00027842,0.00009815,-0.00
 028689,0.00027842,0.,0.,-0.08027245,-0.00025545,-0.00107286,0.00024541
 ,0.00025545,0.00107286,0.00024541,0.,0.,0.56976506,0.00106554,0.001373
 01,0.00025545,-0.01811011,0.00929259,0.02714333,0.00023967,0.00016339,
 -0.00044274,0.00033743,-0.00095083,-0.00047859,0.00000491,-0.00010891,
 -0.00008312,-0.10905710,0.04158391,0.09949947,0.00098383,0.00069843,-0
 .00033920,-0.00567305,-0.00270262,-0.00024957,0.00016777,-0.00041168,-
 0.00069389,0.12101011,-0.00036703,0.00118671,0.00107286,-0.00677715,0.
 00299492,0.01065980,0.00018358,0.00011349,-0.00008431,0.00006507,-0.00
 007066,-0.00044668,0.00003844,-0.00000766,0.00003476,0.04146184,-0.074
 68256,-0.06638411,0.00069843,0.00015581,-0.00029765,-0.00270262,-0.000
 69722,0.00007971,0.01662337,-0.01327827,-0.02850538,-0.04322260,0.0853
 0943,-0.00023335,0.00011104,0.00024541,-0.00027735,-0.00014973,-0.0001
 3338,-0.00017682,0.00022430,0.00023494,0.00021503,0.00060461,0.0001154
 5,0.00003603,-0.00007477,-0.00009998,0.10041798,-0.06727151,-0.2166747
 4,0.00033920,0.00029765,0.00088714,-0.00024957,0.00007971,0.00171536,-
 0.00086711,0.00078105,0.00092595,-0.11137888,0.07454702,0.23194953,0.0
 0106554,0.00137301,-0.00025545,-0.01811011,0.00929259,-0.02714333,0.00
 023967,0.00016339,0.00044274,0.00000491,-0.00010891,0.00008312,0.00033
 743,-0.00095083,0.00047859,-0.10905711,0.04158391,-0.09949947,-0.00567
 305,-0.00270262,0.00024957,0.00098383,0.00069843,0.00033920,0.00016777
 ,-0.00041168,0.00069389,0.00801075,-0.00579077,0.01298376,0.12101011,-
 0.00036703,0.00118671,-0.00107286,-0.00677715,0.00299492,-0.01065980,0
 .00018358,0.00011349,0.00008431,0.00003844,-0.00000766,-0.00003476,0.0
 0006507,-0.00007066,0.00044668,0.04146184,-0.07468256,0.06638411,-0.00
 270262,-0.00069722,-0.00007971,0.00069843,0.00015581,0.00029765,0.0166
 2337,-0.01327827,0.02850538,-0.00579077,0.00330355,-0.00855016,-0.0432
 2260,0.08530943,0.00023335,-0.00011104,0.00024541,0.00027735,0.0001497
 3,-0.00013338,0.00017682,-0.00022430,0.00023494,-0.00003603,0.00007477
 ,-0.00009998,-0.00021503,-0.00060461,0.00011545,-0.10041798,0.06727151
 ,-0.21667474,0.00024957,-0.00007971,0.00171536,-0.00033920,-0.00029765
 ,0.00088714,0.00086711,-0.00078105,0.00092595,-0.01298376,0.00855016,-
 0.02159397,0.11137888,-0.07454702,0.23194953,-0.00002821,0.00027066,0.
 ,0.00100180,-0.00042970,0.,-0.00002036,-0.00004791,0.,0.00001696,-0.00
 008198,-0.00003249,0.00001696,-0.00008198,0.00003249,0.00244273,0.0022
 8306,0.,0.00023967,0.00018358,0.00017682,0.00023967,0.00018358,-0.0001
 7682,-0.28173144,-0.08926516,0.,0.00042442,-0.00054616,-0.00032025,0.0
 0042442,-0.00054616,0.00032025,0.30344398,-0.00220944,-0.00022867,0.,0
 .00273308,-0.00678872,0.,-0.00004791,-0.00079169,0.,0.00004375,0.00002
 549,-0.00009558,0.00004375,0.00002549,0.00009558,-0.03326640,-0.010521
 99,0.,0.00016339,0.00011349,-0.00022430,0.00016339,0.00011349,0.000224
 30,-0.08759690,-0.08044501,0.,0.00021052,0.00118696,-0.00060797,0.0002
 1052,0.00118696,0.00060797,0.09759748,0.08893173,0.,0.,0.00056034,0.,0
 .,0.00026783,0.,0.,0.00000681,0.00000739,0.00009476,-0.00001761,-0.000
 00739,-0.00009476,-0.00001761,0.,0.,-0.00146051,0.00044274,0.00008431,
 0.00023494,-0.00044274,-0.00008431,0.00023494,0.,0.,-0.04766398,-0.000
 39811,-0.00005092,0.00001287,0.00039811,0.00005092,0.00001287,0.,0.,0.
 04635257,0.00006569,-0.00012051,0.00009815,0.00079630,-0.00042793,0.00
 102677,0.00001696,0.00004375,-0.00000739,-0.00002742,0.00004105,0.0000
 1105,-0.00011172,-0.00004778,-0.00004417,-0.00091592,0.00022150,0.0000
 0768,0.00033743,0.00006507,-0.00021503,0.00000491,0.00003844,0.0000360
 3,-0.10642045,0.04268134,-0.10064669,-0.00022017,0.00032233,-0.0000611
 6,0.00081600,0.00001327,0.00042751,-0.01323529,0.01097739,-0.02515583,
 0.11107202,-0.00005025,-0.00000773,-0.00028689,0.00143567,0.00149578,0
 .00088458,-0.00008198,0.00002549,-0.00009476,0.00004105,-0.00001365,0.
 00002133,-0.00004778,0.00028640,-0.00017295,0.01634698,-0.01278554,0.0
 2909476,-0.00095083,-0.00007066,-0.00060461,-0.00010891,-0.00000766,-0
 .00007477,0.04211807,-0.07775092,0.07285441,0.00021716,0.00138370,-0.0
 0039087,-0.00035161,-0.00689819,-0.00039963,-0.00475966,0.00359624,-0.
 01034753,-0.04745994,0.08736860,0.00030038,-0.00005440,0.00027842,0.00
 007838,-0.00025066,0.00019093,0.00003249,0.00009558,-0.00001761,-0.000
 01105,-0.00002133,-0.00001908,-0.00004417,-0.00017295,-0.00001650,0.00
 051064,-0.00050287,0.00075750,0.00047859,0.00044668,0.00011545,-0.0000
 8312,0.00003476,-0.00009998,-0.10060558,0.07384269,-0.22218940,0.00020
 045,0.00046450,0.00081412,0.00005083,-0.00036023,0.00160129,0.00097964
 ,-0.00103890,0.00073827,0.11131781,-0.08148297,0.23835698,0.00006569,-
 0.00012051,-0.00009815,0.00079630,-0.00042793,-0.00102677,0.00001696,0
 .00004375,0.00000739,-0.00011172,-0.00004778,0.00004417,-0.00002742,0.
 00004105,-0.00001105,-0.00091592,0.00022150,-0.00000768,0.00000491,0.0
 0003844,-0.00003603,0.00033743,0.00006507,0.00021503,-0.10642045,0.042
 68134,0.10064669,0.00081600,0.00001327,-0.00042751,-0.00022017,0.00032
 233,0.00006116,-0.01323529,0.01097739,0.02515583,0.00782167,-0.0063479
 7,-0.01320528,0.11107202,-0.00005025,-0.00000773,0.00028689,0.00143567
 ,0.00149578,-0.00088458,-0.00008198,0.00002549,0.00009476,-0.00004778,
 0.00028640,0.00017295,0.00004105,-0.00001365,-0.00002133,0.01634698,-0
 .01278554,-0.02909476,-0.00010891,-0.00000766,0.00007477,-0.00095083,-
 0.00007066,0.00060461,0.04211807,-0.07775092,-0.07285441,-0.00035161,-
 0.00689819,0.00039963,0.00021716,0.00138370,0.00039087,-0.00475966,0.0
 0359624,0.01034753,-0.00634797,0.00337814,0.00900010,-0.04745994,0.087
 36860,-0.00030038,0.00005440,0.00027842,-0.00007838,0.00025066,0.00019
 093,-0.00003249,-0.00009558,-0.00001761,0.00004417,0.00017295,-0.00001
 650,0.00001105,0.00002133,-0.00001908,-0.00051064,0.00050287,0.0007575
 0,0.00008312,-0.00003476,-0.00009998,-0.00047859,-0.00044668,0.0001154
 5,0.10060558,-0.07384269,-0.22218940,-0.00005083,0.00036023,0.00160129
 ,-0.00020045,-0.00046450,0.00081412,-0.00097964,0.00103890,0.00073827,
 0.01320528,-0.00900010,-0.02051038,-0.11131781,0.08148297,0.23835698\\
 -0.00000165,0.00001881,0.,0.00000959,-0.00001689,0.,-0.00000049,-0.000
 00206,0.,0.00000105,-0.00000239,-0.00000038,0.00000105,-0.00000239,0.0
 0000038,-0.00000959,0.00001689,0.,-0.00000242,0.00000248,-0.00000013,-
 0.00000242,0.00000248,0.00000013,0.00000165,-0.00001881,0.,0.00000242,
 -0.00000248,-0.00000013,0.00000242,-0.00000248,0.00000013,0.00000049,0
 .00000206,0.,-0.00000105,0.00000239,-0.00000038,-0.00000105,0.00000239
 ,0.00000038\\\@


 CHINESE FORTUNE COOKIE OF JAN 1 1967 SAY....
 ALL THINGS ARE DIFFICULT BEFORE THEY ARE EASY.
 WE LEARN SO LITTLE AND FORGET SO MUCH.
 YOU WILL OVERCOME OBSTACLES TO ACHIEVE SUCCESS.
 AH SO.
 Job cpu time:       0 days  0 hours 30 minutes 43.5 seconds.
 File lengths (MBytes):  RWF=     26 Int=      0 D2E=      0 Chk=      4 Scr=      1
 Normal termination of Gaussian 09 at Fri Jul  9 19:30:56 2021.
