 Entering Gaussian System, Link 0=g09
 Initial command:
 /home/minenky/programs//g09/l1.exe "/local/scratch/minenky/m1_00_115-11-70_C4H8_wB97XD/Gau-178552.inp" -scrdir="/local/scratch/minenky/m1_00_115-11-70_C4H8_wB97XD/"
 Entering Link 1 = /home/minenky/programs//g09/l1.exe PID=    178553.
  
 Copyright (c) 1988,1990,1992,1993,1995,1998,2003,2009,2013,
            Gaussian, Inc.  All Rights Reserved.
  
 This is part of the Gaussian(R) 09 program.  It is based on
 the Gaussian(R) 03 system (copyright 2003, Gaussian, Inc.),
 the Gaussian(R) 98 system (copyright 1998, Gaussian, Inc.),
 the Gaussian(R) 94 system (copyright 1995, Gaussian, Inc.),
 the Gaussian 92(TM) system (copyright 1992, Gaussian, Inc.),
 the Gaussian 90(TM) system (copyright 1990, Gaussian, Inc.),
 the Gaussian 88(TM) system (copyright 1988, Gaussian, Inc.),
 the Gaussian 86(TM) system (copyright 1986, Carnegie Mellon
 University), and the Gaussian 82(TM) system (copyright 1983,
 Carnegie Mellon University). Gaussian is a federally registered
 trademark of Gaussian, Inc.
  
 This software contains proprietary and confidential information,
 including trade secrets, belonging to Gaussian, Inc.
  
 This software is provided under written license and may be
 used, copied, transmitted, or stored only in accord with that
 written license.
  
 The following legend is applicable only to US Government
 contracts under FAR:
  
                    RESTRICTED RIGHTS LEGEND
  
 Use, reproduction and disclosure by the US Government is
 subject to restrictions as set forth in subparagraphs (a)
 and (c) of the Commercial Computer Software - Restricted
 Rights clause in FAR 52.227-19.
  
 Gaussian, Inc.
 340 Quinnipiac St., Bldg. 40, Wallingford CT 06492
  
  
 ---------------------------------------------------------------
 Warning -- This program may not be used in any manner that
 competes with the business of Gaussian, Inc. or will provide
 assistance to any competitor of Gaussian, Inc.  The licensee
 of this program is prohibited from giving any competitor of
 Gaussian, Inc. access to this program.  By using this program,
 the user acknowledges that Gaussian, Inc. is engaged in the
 business of creating and licensing software in the field of
 computational chemistry and represents and warrants to the
 licensee that it is not a competitor of Gaussian, Inc. and that
 it will not use this program in any manner prohibited above.
 ---------------------------------------------------------------
  

 Cite this work as:
 Gaussian 09, Revision D.01,
 M. J. Frisch, G. W. Trucks, H. B. Schlegel, G. E. Scuseria, 
 M. A. Robb, J. R. Cheeseman, G. Scalmani, V. Barone, B. Mennucci, 
 G. A. Petersson, H. Nakatsuji, M. Caricato, X. Li, H. P. Hratchian, 
 A. F. Izmaylov, J. Bloino, G. Zheng, J. L. Sonnenberg, M. Hada, 
 M. Ehara, K. Toyota, R. Fukuda, J. Hasegawa, M. Ishida, T. Nakajima, 
 Y. Honda, O. Kitao, H. Nakai, T. Vreven, J. A. Montgomery, Jr., 
 J. E. Peralta, F. Ogliaro, M. Bearpark, J. J. Heyd, E. Brothers, 
 K. N. Kudin, V. N. Staroverov, T. Keith, R. Kobayashi, J. Normand, 
 K. Raghavachari, A. Rendell, J. C. Burant, S. S. Iyengar, J. Tomasi, 
 M. Cossi, N. Rega, J. M. Millam, M. Klene, J. E. Knox, J. B. Cross, 
 V. Bakken, C. Adamo, J. Jaramillo, R. Gomperts, R. E. Stratmann, 
 O. Yazyev, A. J. Austin, R. Cammi, C. Pomelli, J. W. Ochterski, 
 R. L. Martin, K. Morokuma, V. G. Zakrzewski, G. A. Voth, 
 P. Salvador, J. J. Dannenberg, S. Dapprich, A. D. Daniels, 
 O. Farkas, J. B. Foresman, J. V. Ortiz, J. Cioslowski, 
 and D. J. Fox, Gaussian, Inc., Wallingford CT, 2013.
 
 ******************************************
 Gaussian 09:  AM64L-G09RevD.01 24-Apr-2013
                 9-Jul-2021 
 ******************************************
 %Mem=32000MB
 %NProcShared=16
 Will use up to   16 processors via shared memory.
 %Chk=m1_00_115-11-70_C4H8_wB97XD
 ----------------------------------------------------------------------
 #P wB97XD/def2tzvp opt=(tight) freq integral(Grid=ultrafine) # SCF(Max
 Cycle=380) 5d 7f GFPrint
 ----------------------------------------------------------------------
 1/7=10,14=-1,18=20,19=15,26=4,38=1/1,3;
 2/9=110,12=2,17=6,18=5,40=1/2;
 3/5=44,7=101,8=11,11=2,16=1,24=100,25=1,30=1,71=1,74=-58,75=-5/1,2,3;
 4//1;
 5/5=2,7=380,38=5/2;
 6/7=2,8=2,9=2,10=2,28=1/1;
 7//1,2,3,16;
 1/7=10,14=-1,18=20,19=15,26=4/3(2);
 2/9=110/2;
 99//99;
 2/9=110/2;
 3/5=44,7=101,8=11,11=2,16=1,25=1,30=1,71=1,74=-58,75=-5/1,2,3;
 4/5=5,16=3,69=1/1;
 5/5=2,7=380,38=5/2;
 7//1,2,3,16;
 1/7=10,14=-1,18=20,19=15,26=4/3(-5);
 2/9=110/2;
 6/7=2,8=2,9=2,10=2,19=2,28=1/1;
 99/9=1/99;
 Leave Link    1 at Fri Jul  9 19:19:35 2021, MaxMem=  4194304000 cpu:         1.1
 (Enter /home/minenky/programs//g09/l101.exe)
 ---------------------------------------
 The PBEPBE optimization and frequencies
 ---------------------------------------
 Symbolic Z-matrix:
 Charge =  0 Multiplicity = 1
 C                     0.        0.        1.4541 
 C                     0.        0.        0.12395 
 H                     0.        0.92309   2.02062 
 H                     0.       -0.92309   2.02062 
 C                     0.       -1.27065  -0.67659 
 H                     0.       -2.15248  -0.0366 
 H                    -0.87716  -1.31794  -1.32931 
 H                     0.87716  -1.31794  -1.32931 
 C                     0.        1.27065  -0.67659 
 H                     0.        2.15248  -0.0366 
 H                     0.87716   1.31794  -1.32931 
 H                    -0.87716   1.31794  -1.32931 
 
 NAtoms=     12 NQM=       12 NQMF=       0 NMMI=      0 NMMIF=      0
                NMic=       0 NMicF=      0.
                    Isotopes and Nuclear Properties:
 (Nuclear quadrupole moments (NQMom) in fm**2, nuclear magnetic moments (NMagM)
  in nuclear magnetons)

  Atom         1           2           3           4           5           6           7           8           9          10
 IAtWgt=          12          12           1           1          12           1           1           1          12           1
 AtmWgt=  12.0000000  12.0000000   1.0078250   1.0078250  12.0000000   1.0078250   1.0078250   1.0078250  12.0000000   1.0078250
 NucSpn=           0           0           1           1           0           1           1           1           0           1
 AtZEff=   0.0000000   0.0000000   0.0000000   0.0000000   0.0000000   0.0000000   0.0000000   0.0000000   0.0000000   0.0000000
 NQMom=    0.0000000   0.0000000   0.0000000   0.0000000   0.0000000   0.0000000   0.0000000   0.0000000   0.0000000   0.0000000
 NMagM=    0.0000000   0.0000000   2.7928460   2.7928460   0.0000000   2.7928460   2.7928460   2.7928460   0.0000000   2.7928460
 AtZNuc=   6.0000000   6.0000000   1.0000000   1.0000000   6.0000000   1.0000000   1.0000000   1.0000000   6.0000000   1.0000000

  Atom        11          12
 IAtWgt=           1           1
 AtmWgt=   1.0078250   1.0078250
 NucSpn=           1           1
 AtZEff=   0.0000000   0.0000000
 NQMom=    0.0000000   0.0000000
 NMagM=    2.7928460   2.7928460
 AtZNuc=   1.0000000   1.0000000
 Leave Link  101 at Fri Jul  9 19:19:36 2021, MaxMem=  4194304000 cpu:         1.6
 (Enter /home/minenky/programs//g09/l103.exe)

 GradGradGradGradGradGradGradGradGradGradGradGradGradGradGradGradGradGrad
 Berny optimization.
 Initialization pass.
                           ----------------------------
                           !    Initial Parameters    !
                           ! (Angstroms and Degrees)  !
 --------------------------                            --------------------------
 ! Name  Definition              Value          Derivative Info.                !
 --------------------------------------------------------------------------------
 ! R1    R(1,2)                  1.3301         estimate D2E/DX2                !
 ! R2    R(1,3)                  1.0831         estimate D2E/DX2                !
 ! R3    R(1,4)                  1.0831         estimate D2E/DX2                !
 ! R4    R(2,5)                  1.5018         estimate D2E/DX2                !
 ! R5    R(2,9)                  1.5018         estimate D2E/DX2                !
 ! R6    R(5,6)                  1.0896         estimate D2E/DX2                !
 ! R7    R(5,7)                  1.0944         estimate D2E/DX2                !
 ! R8    R(5,8)                  1.0944         estimate D2E/DX2                !
 ! R9    R(9,10)                 1.0896         estimate D2E/DX2                !
 ! R10   R(9,11)                 1.0944         estimate D2E/DX2                !
 ! R11   R(9,12)                 1.0944         estimate D2E/DX2                !
 ! A1    A(2,1,3)              121.5385         estimate D2E/DX2                !
 ! A2    A(2,1,4)              121.5385         estimate D2E/DX2                !
 ! A3    A(3,1,4)              116.923          estimate D2E/DX2                !
 ! A4    A(1,2,5)              122.2118         estimate D2E/DX2                !
 ! A5    A(1,2,9)              122.2118         estimate D2E/DX2                !
 ! A6    A(5,2,9)              115.5765         estimate D2E/DX2                !
 ! A7    A(2,5,6)              111.8182         estimate D2E/DX2                !
 ! A8    A(2,5,7)              110.7618         estimate D2E/DX2                !
 ! A9    A(2,5,8)              110.7618         estimate D2E/DX2                !
 ! A10   A(6,5,7)              108.3818         estimate D2E/DX2                !
 ! A11   A(6,5,8)              108.3818         estimate D2E/DX2                !
 ! A12   A(7,5,8)              106.548          estimate D2E/DX2                !
 ! A13   A(2,9,10)             111.8182         estimate D2E/DX2                !
 ! A14   A(2,9,11)             110.7618         estimate D2E/DX2                !
 ! A15   A(2,9,12)             110.7618         estimate D2E/DX2                !
 ! A16   A(10,9,11)            108.3818         estimate D2E/DX2                !
 ! A17   A(10,9,12)            108.3818         estimate D2E/DX2                !
 ! A18   A(11,9,12)            106.548          estimate D2E/DX2                !
 ! D1    D(3,1,2,5)            180.0            estimate D2E/DX2                !
 ! D2    D(3,1,2,9)              0.0            estimate D2E/DX2                !
 ! D3    D(4,1,2,5)              0.0            estimate D2E/DX2                !
 ! D4    D(4,1,2,9)            180.0            estimate D2E/DX2                !
 ! D5    D(1,2,5,6)              0.0            estimate D2E/DX2                !
 ! D6    D(1,2,5,7)            121.0001         estimate D2E/DX2                !
 ! D7    D(1,2,5,8)           -121.0001         estimate D2E/DX2                !
 ! D8    D(9,2,5,6)            180.0            estimate D2E/DX2                !
 ! D9    D(9,2,5,7)            -58.9999         estimate D2E/DX2                !
 ! D10   D(9,2,5,8)             58.9999         estimate D2E/DX2                !
 ! D11   D(1,2,9,10)             0.0            estimate D2E/DX2                !
 ! D12   D(1,2,9,11)           121.0001         estimate D2E/DX2                !
 ! D13   D(1,2,9,12)          -121.0001         estimate D2E/DX2                !
 ! D14   D(5,2,9,10)           180.0            estimate D2E/DX2                !
 ! D15   D(5,2,9,11)           -58.9999         estimate D2E/DX2                !
 ! D16   D(5,2,9,12)            58.9999         estimate D2E/DX2                !
 --------------------------------------------------------------------------------
 Trust Radius=3.00D-01 FncErr=1.00D-07 GrdErr=1.00D-06
 Number of steps in this run=     55 maximum allowed number of steps=    100.
 GradGradGradGradGradGradGradGradGradGradGradGradGradGradGradGradGradGrad

 Leave Link  103 at Fri Jul  9 19:19:36 2021, MaxMem=  4194304000 cpu:         0.0
 (Enter /home/minenky/programs//g09/l202.exe)
                          Input orientation:                          
 ---------------------------------------------------------------------
 Center     Atomic      Atomic             Coordinates (Angstroms)
 Number     Number       Type             X           Y           Z
 ---------------------------------------------------------------------
      1          6           0        0.000000    0.000000    1.454095
      2          6           0        0.000000    0.000000    0.123947
      3          1           0        0.000000    0.923087    2.020617
      4          1           0        0.000000   -0.923087    2.020617
      5          6           0        0.000000   -1.270648   -0.676587
      6          1           0        0.000000   -2.152479   -0.036603
      7          1           0       -0.877159   -1.317936   -1.329310
      8          1           0        0.877159   -1.317936   -1.329310
      9          6           0        0.000000    1.270648   -0.676587
     10          1           0        0.000000    2.152479   -0.036603
     11          1           0        0.877159    1.317936   -1.329310
     12          1           0       -0.877159    1.317936   -1.329310
 ---------------------------------------------------------------------
                    Distance matrix (angstroms):
                    1          2          3          4          5
     1  C    0.000000
     2  C    1.330148   0.000000
     3  H    1.083068   2.109371   0.000000
     4  H    1.083068   2.109371   1.846174   0.000000
     5  C    2.480797   1.501799   3.476691   2.719505   0.000000
     6  H    2.618272   2.158458   3.700170   2.396572   1.089590
     7  H    3.202141   2.149027   4.124755   3.485301   1.094391
     8  H    3.202141   2.149027   4.124755   3.485301   1.094391
     9  C    2.480797   1.501799   2.719505   3.476691   2.541296
    10  H    2.618272   2.158458   2.396572   3.700170   3.482439
    11  H    3.202141   2.149027   3.485301   4.124755   2.810022
    12  H    3.202141   2.149027   3.485301   4.124755   2.810022
                    6          7          8          9         10
     6  H    0.000000
     7  H    1.771147   0.000000
     8  H    1.771147   1.754318   0.000000
     9  C    3.482439   2.810022   2.810022   0.000000
    10  H    4.304958   3.805822   3.805822   1.089590   0.000000
    11  H    3.805822   3.166300   2.635872   1.094391   1.771147
    12  H    3.805822   2.635872   3.166300   1.094391   1.771147
                   11         12
    11  H    0.000000
    12  H    1.754318   0.000000
 Stoichiometry    C4H8
 Framework group  C2V[C2(CC),SGV(C2H4),X(H4)]
 Deg. of freedom    10
 Full point group                 C2V     NOp   4
 Largest Abelian subgroup         C2V     NOp   4
 Largest concise Abelian subgroup C2V     NOp   4
                         Standard orientation:                         
 ---------------------------------------------------------------------
 Center     Atomic      Atomic             Coordinates (Angstroms)
 Number     Number       Type             X           Y           Z
 ---------------------------------------------------------------------
      1          6           0        0.000000    0.000000    1.454095
      2          6           0        0.000000    0.000000    0.123947
      3          1           0        0.000000    0.923087    2.020617
      4          1           0        0.000000   -0.923087    2.020617
      5          6           0        0.000000   -1.270648   -0.676587
      6          1           0        0.000000   -2.152479   -0.036603
      7          1           0       -0.877159   -1.317936   -1.329310
      8          1           0        0.877159   -1.317936   -1.329310
      9          6           0        0.000000    1.270648   -0.676587
     10          1           0        0.000000    2.152479   -0.036603
     11          1           0        0.877159    1.317936   -1.329310
     12          1           0       -0.877159    1.317936   -1.329310
 ---------------------------------------------------------------------
 Rotational constants (GHZ):      9.1938502      8.4357256      4.6503624
 Leave Link  202 at Fri Jul  9 19:19:36 2021, MaxMem=  4194304000 cpu:         1.2
 (Enter /home/minenky/programs//g09/l301.exe)
 Standard basis: def2TZVP (5D, 7F)
 ======================================================================================================
                                       Pseudopotential Parameters
 ======================================================================================================
  Center     Atomic      Valence      Angular      Power
  Number     Number     Electrons     Momentum     of R      Exponent        Coefficient   SO-Coeffient
 ======================================================================================================
    1          6
                                   No pseudopotential on this center.
    2          6
                                   No pseudopotential on this center.
    3          1
                                   No pseudopotential on this center.
    4          1
                                   No pseudopotential on this center.
    5          6
                                   No pseudopotential on this center.
    6          1
                                   No pseudopotential on this center.
    7          1
                                   No pseudopotential on this center.
    8          1
                                   No pseudopotential on this center.
    9          6
                                   No pseudopotential on this center.
   10          1
                                   No pseudopotential on this center.
   11          1
                                   No pseudopotential on this center.
   12          1
                                   No pseudopotential on this center.
 ======================================================================================================
 Ernie: Thresh=  0.10000D-02 Tol=  0.10000D-05 Strict=F.
 AO basis set (Overlap normalization):
 Atom C1       Shell     1 S   6     bf    1 -     1          0.000000000000          0.000000000000          2.747841557414
      0.1357534968D+05  0.6064550360D-03
      0.2035233368D+04  0.4697908888D-02
      0.4632256236D+03  0.2433247765D-01
      0.1312001960D+03  0.9739996831D-01
      0.4285301589D+02  0.3019558425D+00
      0.1558418577D+02  0.6623360914D+00
 Atom C1       Shell     2 S   2     bf    2 -     2          0.000000000000          0.000000000000          2.747841557414
      0.6206713851D+01  0.6559530854D+00
      0.2576489653D+01  0.3758563329D+00
 Atom C1       Shell     3 S   1     bf    3 -     3          0.000000000000          0.000000000000          2.747841557414
      0.5769633942D+00  0.1000000000D+01
 Atom C1       Shell     4 S   1     bf    4 -     4          0.000000000000          0.000000000000          2.747841557414
      0.2297283136D+00  0.1000000000D+01
 Atom C1       Shell     5 S   1     bf    5 -     5          0.000000000000          0.000000000000          2.747841557414
      0.9516444003D-01  0.1000000000D+01
 Atom C1       Shell     6 P   4     bf    6 -     8          0.000000000000          0.000000000000          2.747841557414
      0.3469723224D+02  0.1132722000D-01
      0.7958262283D+01  0.7616965920D-01
      0.2378082688D+01  0.3019225220D+00
      0.8143320818D+00  0.7278502735D+00
 Atom C1       Shell     7 P   1     bf    9 -    11          0.000000000000          0.000000000000          2.747841557414
      0.2888754725D+00  0.1000000000D+01
 Atom C1       Shell     8 P   1     bf   12 -    14          0.000000000000          0.000000000000          2.747841557414
      0.1005682367D+00  0.1000000000D+01
 Atom C1       Shell     9 D   1     bf   15 -    19          0.000000000000          0.000000000000          2.747841557414
      0.1097000000D+01  0.1000000000D+01
 Atom C1       Shell    10 D   1     bf   20 -    24          0.000000000000          0.000000000000          2.747841557414
      0.3180000000D+00  0.1000000000D+01
 Atom C1       Shell    11 F   1     bf   25 -    31          0.000000000000          0.000000000000          2.747841557414
      0.7610000000D+00  0.1000000000D+01
 Atom C2       Shell    12 S   6     bf   32 -    32          0.000000000000          0.000000000000          0.234226121209
      0.1357534968D+05  0.6064550360D-03
      0.2035233368D+04  0.4697908888D-02
      0.4632256236D+03  0.2433247765D-01
      0.1312001960D+03  0.9739996831D-01
      0.4285301589D+02  0.3019558425D+00
      0.1558418577D+02  0.6623360914D+00
 Atom C2       Shell    13 S   2     bf   33 -    33          0.000000000000          0.000000000000          0.234226121209
      0.6206713851D+01  0.6559530854D+00
      0.2576489653D+01  0.3758563329D+00
 Atom C2       Shell    14 S   1     bf   34 -    34          0.000000000000          0.000000000000          0.234226121209
      0.5769633942D+00  0.1000000000D+01
 Atom C2       Shell    15 S   1     bf   35 -    35          0.000000000000          0.000000000000          0.234226121209
      0.2297283136D+00  0.1000000000D+01
 Atom C2       Shell    16 S   1     bf   36 -    36          0.000000000000          0.000000000000          0.234226121209
      0.9516444003D-01  0.1000000000D+01
 Atom C2       Shell    17 P   4     bf   37 -    39          0.000000000000          0.000000000000          0.234226121209
      0.3469723224D+02  0.1132722000D-01
      0.7958262283D+01  0.7616965920D-01
      0.2378082688D+01  0.3019225220D+00
      0.8143320818D+00  0.7278502735D+00
 Atom C2       Shell    18 P   1     bf   40 -    42          0.000000000000          0.000000000000          0.234226121209
      0.2888754725D+00  0.1000000000D+01
 Atom C2       Shell    19 P   1     bf   43 -    45          0.000000000000          0.000000000000          0.234226121209
      0.1005682367D+00  0.1000000000D+01
 Atom C2       Shell    20 D   1     bf   46 -    50          0.000000000000          0.000000000000          0.234226121209
      0.1097000000D+01  0.1000000000D+01
 Atom C2       Shell    21 D   1     bf   51 -    55          0.000000000000          0.000000000000          0.234226121209
      0.3180000000D+00  0.1000000000D+01
 Atom C2       Shell    22 F   1     bf   56 -    62          0.000000000000          0.000000000000          0.234226121209
      0.7610000000D+00  0.1000000000D+01
 Atom H3       Shell    23 S   3     bf   63 -    63          0.000000000000          1.744381626827          3.818412985669
      0.3406134100D+02  0.2543930721D-01
      0.5123574600D+01  0.1900859489D+00
      0.1164662600D+01  0.8524411301D+00
 Atom H3       Shell    24 S   1     bf   64 -    64          0.000000000000          1.744381626827          3.818412985669
      0.3272304100D+00  0.1000000000D+01
 Atom H3       Shell    25 S   1     bf   65 -    65          0.000000000000          1.744381626827          3.818412985669
      0.1030724100D+00  0.1000000000D+01
 Atom H3       Shell    26 P   1     bf   66 -    68          0.000000000000          1.744381626827          3.818412985669
      0.8000000000D+00  0.1000000000D+01
 Atom H4       Shell    27 S   3     bf   69 -    69          0.000000000000         -1.744381626827          3.818412985669
      0.3406134100D+02  0.2543930721D-01
      0.5123574600D+01  0.1900859489D+00
      0.1164662600D+01  0.8524411301D+00
 Atom H4       Shell    28 S   1     bf   70 -    70          0.000000000000         -1.744381626827          3.818412985669
      0.3272304100D+00  0.1000000000D+01
 Atom H4       Shell    29 S   1     bf   71 -    71          0.000000000000         -1.744381626827          3.818412985669
      0.1030724100D+00  0.1000000000D+01
 Atom H4       Shell    30 P   1     bf   72 -    74          0.000000000000         -1.744381626827          3.818412985669
      0.8000000000D+00  0.1000000000D+01
 Atom C5       Shell    31 S   6     bf   75 -    75          0.000000000000         -2.401176731299         -1.278563898855
      0.1357534968D+05  0.6064550360D-03
      0.2035233368D+04  0.4697908888D-02
      0.4632256236D+03  0.2433247765D-01
      0.1312001960D+03  0.9739996831D-01
      0.4285301589D+02  0.3019558425D+00
      0.1558418577D+02  0.6623360914D+00
 Atom C5       Shell    32 S   2     bf   76 -    76          0.000000000000         -2.401176731299         -1.278563898855
      0.6206713851D+01  0.6559530854D+00
      0.2576489653D+01  0.3758563329D+00
 Atom C5       Shell    33 S   1     bf   77 -    77          0.000000000000         -2.401176731299         -1.278563898855
      0.5769633942D+00  0.1000000000D+01
 Atom C5       Shell    34 S   1     bf   78 -    78          0.000000000000         -2.401176731299         -1.278563898855
      0.2297283136D+00  0.1000000000D+01
 Atom C5       Shell    35 S   1     bf   79 -    79          0.000000000000         -2.401176731299         -1.278563898855
      0.9516444003D-01  0.1000000000D+01
 Atom C5       Shell    36 P   4     bf   80 -    82          0.000000000000         -2.401176731299         -1.278563898855
      0.3469723224D+02  0.1132722000D-01
      0.7958262283D+01  0.7616965920D-01
      0.2378082688D+01  0.3019225220D+00
      0.8143320818D+00  0.7278502735D+00
 Atom C5       Shell    37 P   1     bf   83 -    85          0.000000000000         -2.401176731299         -1.278563898855
      0.2888754725D+00  0.1000000000D+01
 Atom C5       Shell    38 P   1     bf   86 -    88          0.000000000000         -2.401176731299         -1.278563898855
      0.1005682367D+00  0.1000000000D+01
 Atom C5       Shell    39 D   1     bf   89 -    93          0.000000000000         -2.401176731299         -1.278563898855
      0.1097000000D+01  0.1000000000D+01
 Atom C5       Shell    40 D   1     bf   94 -    98          0.000000000000         -2.401176731299         -1.278563898855
      0.3180000000D+00  0.1000000000D+01
 Atom C5       Shell    41 F   1     bf   99 -   105          0.000000000000         -2.401176731299         -1.278563898855
      0.7610000000D+00  0.1000000000D+01
 Atom H6       Shell    42 S   3     bf  106 -   106          0.000000000000         -4.067595816788         -0.069169409426
      0.3406134100D+02  0.2543930721D-01
      0.5123574600D+01  0.1900859489D+00
      0.1164662600D+01  0.8524411301D+00
 Atom H6       Shell    43 S   1     bf  107 -   107          0.000000000000         -4.067595816788         -0.069169409426
      0.3272304100D+00  0.1000000000D+01
 Atom H6       Shell    44 S   1     bf  108 -   108          0.000000000000         -4.067595816788         -0.069169409426
      0.1030724100D+00  0.1000000000D+01
 Atom H6       Shell    45 P   1     bf  109 -   111          0.000000000000         -4.067595816788         -0.069169409426
      0.8000000000D+00  0.1000000000D+01
 Atom H7       Shell    46 S   3     bf  112 -   112         -1.657590284996         -2.490538100671         -2.512031609490
      0.3406134100D+02  0.2543930721D-01
      0.5123574600D+01  0.1900859489D+00
      0.1164662600D+01  0.8524411301D+00
 Atom H7       Shell    47 S   1     bf  113 -   113         -1.657590284996         -2.490538100671         -2.512031609490
      0.3272304100D+00  0.1000000000D+01
 Atom H7       Shell    48 S   1     bf  114 -   114         -1.657590284996         -2.490538100671         -2.512031609490
      0.1030724100D+00  0.1000000000D+01
 Atom H7       Shell    49 P   1     bf  115 -   117         -1.657590284996         -2.490538100671         -2.512031609490
      0.8000000000D+00  0.1000000000D+01
 Atom H8       Shell    50 S   3     bf  118 -   118          1.657590284996         -2.490538100671         -2.512031609490
      0.3406134100D+02  0.2543930721D-01
      0.5123574600D+01  0.1900859489D+00
      0.1164662600D+01  0.8524411301D+00
 Atom H8       Shell    51 S   1     bf  119 -   119          1.657590284996         -2.490538100671         -2.512031609490
      0.3272304100D+00  0.1000000000D+01
 Atom H8       Shell    52 S   1     bf  120 -   120          1.657590284996         -2.490538100671         -2.512031609490
      0.1030724100D+00  0.1000000000D+01
 Atom H8       Shell    53 P   1     bf  121 -   123          1.657590284996         -2.490538100671         -2.512031609490
      0.8000000000D+00  0.1000000000D+01
 Atom C9       Shell    54 S   6     bf  124 -   124          0.000000000000          2.401176731299         -1.278563898855
      0.1357534968D+05  0.6064550360D-03
      0.2035233368D+04  0.4697908888D-02
      0.4632256236D+03  0.2433247765D-01
      0.1312001960D+03  0.9739996831D-01
      0.4285301589D+02  0.3019558425D+00
      0.1558418577D+02  0.6623360914D+00
 Atom C9       Shell    55 S   2     bf  125 -   125          0.000000000000          2.401176731299         -1.278563898855
      0.6206713851D+01  0.6559530854D+00
      0.2576489653D+01  0.3758563329D+00
 Atom C9       Shell    56 S   1     bf  126 -   126          0.000000000000          2.401176731299         -1.278563898855
      0.5769633942D+00  0.1000000000D+01
 Atom C9       Shell    57 S   1     bf  127 -   127          0.000000000000          2.401176731299         -1.278563898855
      0.2297283136D+00  0.1000000000D+01
 Atom C9       Shell    58 S   1     bf  128 -   128          0.000000000000          2.401176731299         -1.278563898855
      0.9516444003D-01  0.1000000000D+01
 Atom C9       Shell    59 P   4     bf  129 -   131          0.000000000000          2.401176731299         -1.278563898855
      0.3469723224D+02  0.1132722000D-01
      0.7958262283D+01  0.7616965920D-01
      0.2378082688D+01  0.3019225220D+00
      0.8143320818D+00  0.7278502735D+00
 Atom C9       Shell    60 P   1     bf  132 -   134          0.000000000000          2.401176731299         -1.278563898855
      0.2888754725D+00  0.1000000000D+01
 Atom C9       Shell    61 P   1     bf  135 -   137          0.000000000000          2.401176731299         -1.278563898855
      0.1005682367D+00  0.1000000000D+01
 Atom C9       Shell    62 D   1     bf  138 -   142          0.000000000000          2.401176731299         -1.278563898855
      0.1097000000D+01  0.1000000000D+01
 Atom C9       Shell    63 D   1     bf  143 -   147          0.000000000000          2.401176731299         -1.278563898855
      0.3180000000D+00  0.1000000000D+01
 Atom C9       Shell    64 F   1     bf  148 -   154          0.000000000000          2.401176731299         -1.278563898855
      0.7610000000D+00  0.1000000000D+01
 Atom H10      Shell    65 S   3     bf  155 -   155          0.000000000000          4.067595816788         -0.069169409426
      0.3406134100D+02  0.2543930721D-01
      0.5123574600D+01  0.1900859489D+00
      0.1164662600D+01  0.8524411301D+00
 Atom H10      Shell    66 S   1     bf  156 -   156          0.000000000000          4.067595816788         -0.069169409426
      0.3272304100D+00  0.1000000000D+01
 Atom H10      Shell    67 S   1     bf  157 -   157          0.000000000000          4.067595816788         -0.069169409426
      0.1030724100D+00  0.1000000000D+01
 Atom H10      Shell    68 P   1     bf  158 -   160          0.000000000000          4.067595816788         -0.069169409426
      0.8000000000D+00  0.1000000000D+01
 Atom H11      Shell    69 S   3     bf  161 -   161          1.657590284996          2.490538100671         -2.512031609490
      0.3406134100D+02  0.2543930721D-01
      0.5123574600D+01  0.1900859489D+00
      0.1164662600D+01  0.8524411301D+00
 Atom H11      Shell    70 S   1     bf  162 -   162          1.657590284996          2.490538100671         -2.512031609490
      0.3272304100D+00  0.1000000000D+01
 Atom H11      Shell    71 S   1     bf  163 -   163          1.657590284996          2.490538100671         -2.512031609490
      0.1030724100D+00  0.1000000000D+01
 Atom H11      Shell    72 P   1     bf  164 -   166          1.657590284996          2.490538100671         -2.512031609490
      0.8000000000D+00  0.1000000000D+01
 Atom H12      Shell    73 S   3     bf  167 -   167         -1.657590284996          2.490538100671         -2.512031609490
      0.3406134100D+02  0.2543930721D-01
      0.5123574600D+01  0.1900859489D+00
      0.1164662600D+01  0.8524411301D+00
 Atom H12      Shell    74 S   1     bf  168 -   168         -1.657590284996          2.490538100671         -2.512031609490
      0.3272304100D+00  0.1000000000D+01
 Atom H12      Shell    75 S   1     bf  169 -   169         -1.657590284996          2.490538100671         -2.512031609490
      0.1030724100D+00  0.1000000000D+01
 Atom H12      Shell    76 P   1     bf  170 -   172         -1.657590284996          2.490538100671         -2.512031609490
      0.8000000000D+00  0.1000000000D+01
 There are    75 symmetry adapted cartesian basis functions of A1  symmetry.
 There are    25 symmetry adapted cartesian basis functions of A2  symmetry.
 There are    35 symmetry adapted cartesian basis functions of B1  symmetry.
 There are    57 symmetry adapted cartesian basis functions of B2  symmetry.
 There are    65 symmetry adapted basis functions of A1  symmetry.
 There are    24 symmetry adapted basis functions of A2  symmetry.
 There are    32 symmetry adapted basis functions of B1  symmetry.
 There are    51 symmetry adapted basis functions of B2  symmetry.
   172 basis functions,   268 primitive gaussians,   192 cartesian basis functions
    16 alpha electrons       16 beta electrons
       nuclear repulsion energy       119.9489405688 Hartrees.
 IExCor= 4639 DFT=T Ex+Corr=wB97XD ExCW=0 ScaHFX=  1.000000
 ScaDFX=  1.000000  1.000000  1.000000  1.000000 ScalE2=  1.000000  1.000000
 IRadAn=      5 IRanWt=     -1 IRanGd=            0 ICorTp=0 IEmpDi=121
  HFx wShort=  0.000000 wLong=  0.200000 cFull=  0.222036 cShort=  0.000000 cLong=  0.777964
  DFx wShort=  0.000000 wLong=  0.200000 cFull=  0.000000 cShort=  0.000000 cLong=  1.000000
 NAtoms=   12 NActive=   12 NUniq=    6 SFac= 4.00D+00 NAtFMM=   60 NAOKFM=F Big=F
 Integral buffers will be    131072 words long.
 Raffenetti 2 integral format.
 Two-electron integral symmetry is turned on.
 R6Disp:  Grimme-D2 Dispersion energy=       -0.0044751251 Hartrees.
 Nuclear repulsion after empirical dispersion term =      119.9444654437 Hartrees.
 Leave Link  301 at Fri Jul  9 19:19:36 2021, MaxMem=  4194304000 cpu:         0.4
 (Enter /home/minenky/programs//g09/l302.exe)
 NPDir=0 NMtPBC=     1 NCelOv=     1 NCel=       1 NClECP=     1 NCelD=      1
         NCelK=      1 NCelE2=     1 NClLst=     1 CellRange=     0.0.
 One-electron integrals computed using PRISM.
 One-electron integral symmetry used in STVInt
   4 Symmetry operations used in ECPInt.
 ECPInt:  NShTT=    2926 NPrTT=    8368 LenC2=    2922 LenP2D=    7274.
 LDataN:  DoStor=T MaxTD1= 6 Len=  172
 NBasis=   172 RedAO= T EigKep=  2.44D-04  NBF=    65    24    32    51
 NBsUse=   172 1.00D-06 EigRej= -1.00D+00 NBFU=    65    24    32    51
 Precomputing XC quadrature grid using
 IXCGrd= 4 IRadAn=           5 IRanWt=          -1 IRanGd=           0 AccXCQ= 0.00D+00.
 Generated NRdTot=       0 NPtTot=           0 NUsed=           0 NTot=          32
 NSgBfM=   192   192   192   192   192 MxSgAt=    12 MxSgA2=    12.
 Leave Link  302 at Fri Jul  9 19:19:43 2021, MaxMem=  4194304000 cpu:        83.7
 (Enter /home/minenky/programs//g09/l303.exe)
 DipDrv:  MaxL=1.
 Leave Link  303 at Fri Jul  9 19:19:44 2021, MaxMem=  4194304000 cpu:         6.5
 (Enter /home/minenky/programs//g09/l401.exe)
 ExpMin= 9.52D-02 ExpMax= 1.36D+04 ExpMxC= 4.63D+02 IAcc=3 IRadAn=         5 AccDes= 0.00D+00
 Harris functional with IExCor= 4639 and IRadAn=       5 diagonalized for initial guess.
 HarFok:  IExCor= 4639 AccDes= 0.00D+00 IRadAn=         5 IDoV= 1 UseB2=F ITyADJ=14
 ICtDFT=  3500011 ScaDFX=  1.000000  1.000000  1.000000  1.000000
 FoFCou: FMM=F IPFlag=           0 FMFlag=      100000 FMFlg1=           0
         NFxFlg=           0 DoJE=T BraDBF=F KetDBF=T FulRan=T
         wScrn=  0.000000 ICntrl=     500 IOpCl=  0 I1Cent=   200000004 NGrid=           0
         NMat0=    1 NMatS0=      1 NMatT0=    0 NMatD0=    1 NMtDS0=    0 NMtDT0=    0
 Petite list used in FoFCou.
 Harris En= -149.433312239430    
 JPrj=0 DoOrth=F DoCkMO=F.
 Initial guess orbital symmetries:
       Occupied  (B2) (A1) (A1) (A1) (A1) (B2) (A1) (A1) (B2) (A1)
                 (B1) (A2) (A1) (B2) (B2) (B1)
       Virtual   (B1) (A1) (A1) (B2) (B2) (B1) (A1) (A1) (A2) (B2)
                 (A1) (B2) (B1) (A2) (A1) (A1) (B2) (B1) (B2) (A1)
                 (B1) (A1) (B2) (A1) (A1) (B1) (B2) (A2) (B2) (A1)
                 (A1) (B2) (A1) (A2) (A1) (B1) (B2) (B2) (A2) (A1)
                 (B2) (A1) (B1) (A2) (A1) (B1) (A1) (B2) (B2) (A1)
                 (B2) (A2) (A1) (B1) (A1) (B2) (A1) (B1) (A1) (A2)
                 (B2) (B1) (B2) (A2) (B1) (A1) (B1) (B2) (A1) (B2)
                 (B1) (A1) (A2) (A1) (A1) (B2) (B1) (B2) (A2) (B2)
                 (A1) (A1) (A2) (B2) (B1) (A1) (B2) (A2) (A1) (B2)
                 (B1) (A1) (B1) (B2) (A2) (B2) (A1) (B2) (A1) (B1)
                 (A1) (A1) (B2) (A1) (A2) (B1) (B2) (A1) (A2) (B1)
                 (A1) (A2) (B2) (B1) (A1) (B1) (A2) (A1) (B2) (B1)
                 (B2) (A2) (B2) (B1) (A1) (B2) (A1) (A2) (A1) (A2)
                 (B1) (B2) (A1) (A1) (B2) (B2) (A2) (B1) (B2) (A1)
                 (B1) (B2) (A1) (A1) (B1) (B2) (A2) (A1) (B2) (A1)
                 (B2) (A1) (A1) (B2) (A1) (A1)
 The electronic state of the initial guess is 1-A1.
 Leave Link  401 at Fri Jul  9 19:19:46 2021, MaxMem=  4194304000 cpu:        23.2
 (Enter /home/minenky/programs//g09/l502.exe)
 Closed shell SCF:
 Using DIIS extrapolation, IDIIS=  1040.
 Integral symmetry usage will be decided dynamically.
 Keep R1 ints in memory in symmetry-blocked form, NReq=277939876.
 IVT=      263670 IEndB=      263670 NGot=  4194304000 MDV=  4165870283
 LenX=  4165870283 LenY=  4165832978
 Requested convergence on RMS density matrix=1.00D-08 within 380 cycles.
 Requested convergence on MAX density matrix=1.00D-06.
 Requested convergence on             energy=1.00D-06.
 No special actions if energy rises.
 FoFCou: FMM=F IPFlag=           0 FMFlag=           0 FMFlg1=           0
         NFxFlg=           0 DoJE=F BraDBF=F KetDBF=F FulRan=T
         wScrn=  0.000000 ICntrl=     600 IOpCl=  0 I1Cent=           0 NGrid=           0
         NMat0=    1 NMatS0=  14878 NMatT0=    0 NMatD0=    1 NMtDS0=    0 NMtDT0=    0
 Petite list used in FoFCou.
 Integral accuracy reduced to 1.0D-05 until final iterations.

 Cycle   1  Pass 0  IDiag  1:
 E= -157.171680356693    
 DIIS: error= 6.48D-02 at cycle   1 NSaved=   1.
 NSaved= 1 IEnMin= 1 EnMin= -157.171680356693     IErMin= 1 ErrMin= 6.48D-02
 ErrMax= 6.48D-02  0.00D+00 EMaxC= 1.00D-01 BMatC= 3.41D-01 BMatP= 3.41D-01
 IDIUse=3 WtCom= 3.52D-01 WtEn= 6.48D-01
 Coeff-Com:  0.100D+01
 Coeff-En:   0.100D+01
 Coeff:      0.100D+01
 Gap=     0.401 Goal=   None    Shift=    0.000
 GapD=    0.401 DampG=2.000 DampE=0.500 DampFc=1.0000 IDamp=-1.
 RMSDP=1.54D-03 MaxDP=4.85D-02              OVMax= 7.37D-02

 Cycle   2  Pass 0  IDiag  1:
 E= -157.217401963466     Delta-E=       -0.045721606773 Rises=F Damp=F
 DIIS: error= 1.05D-02 at cycle   2 NSaved=   2.
 NSaved= 2 IEnMin= 2 EnMin= -157.217401963466     IErMin= 2 ErrMin= 1.05D-02
 ErrMax= 1.05D-02  0.00D+00 EMaxC= 1.00D-01 BMatC= 1.53D-02 BMatP= 3.41D-01
 IDIUse=3 WtCom= 8.95D-01 WtEn= 1.05D-01
 Coeff-Com:  0.103D+00 0.897D+00
 Coeff-En:   0.000D+00 0.100D+01
 Coeff:      0.918D-01 0.908D+00
 Gap=     0.422 Goal=   None    Shift=    0.000
 RMSDP=7.24D-04 MaxDP=2.28D-02 DE=-4.57D-02 OVMax= 5.12D-02

 Cycle   3  Pass 0  IDiag  1:
 E= -157.226222614030     Delta-E=       -0.008820650565 Rises=F Damp=F
 DIIS: error= 5.97D-03 at cycle   3 NSaved=   3.
 NSaved= 3 IEnMin= 3 EnMin= -157.226222614030     IErMin= 3 ErrMin= 5.97D-03
 ErrMax= 5.97D-03  0.00D+00 EMaxC= 1.00D-01 BMatC= 5.91D-03 BMatP= 1.53D-02
 IDIUse=3 WtCom= 9.40D-01 WtEn= 5.97D-02
 Coeff-Com:  0.235D-01 0.389D+00 0.587D+00
 Coeff-En:   0.000D+00 0.215D+00 0.785D+00
 Coeff:      0.221D-01 0.379D+00 0.599D+00
 Gap=     0.413 Goal=   None    Shift=    0.000
 RMSDP=2.62D-04 MaxDP=9.87D-03 DE=-8.82D-03 OVMax= 2.69D-02

 Cycle   4  Pass 0  IDiag  1:
 E= -157.231388696722     Delta-E=       -0.005166082692 Rises=F Damp=F
 DIIS: error= 1.20D-03 at cycle   4 NSaved=   4.
 NSaved= 4 IEnMin= 4 EnMin= -157.231388696722     IErMin= 4 ErrMin= 1.20D-03
 ErrMax= 1.20D-03  0.00D+00 EMaxC= 1.00D-01 BMatC= 1.02D-04 BMatP= 5.91D-03
 IDIUse=3 WtCom= 9.88D-01 WtEn= 1.20D-02
 Coeff-Com:  0.950D-02 0.154D+00 0.264D+00 0.572D+00
 Coeff-En:   0.000D+00 0.000D+00 0.000D+00 0.100D+01
 Coeff:      0.939D-02 0.153D+00 0.261D+00 0.577D+00
 Gap=     0.414 Goal=   None    Shift=    0.000
 RMSDP=4.39D-05 MaxDP=1.28D-03 DE=-5.17D-03 OVMax= 4.16D-03

 Cycle   5  Pass 0  IDiag  1:
 E= -157.231478855579     Delta-E=       -0.000090158856 Rises=F Damp=F
 DIIS: error= 2.96D-04 at cycle   5 NSaved=   5.
 NSaved= 5 IEnMin= 5 EnMin= -157.231478855579     IErMin= 5 ErrMin= 2.96D-04
 ErrMax= 2.96D-04  0.00D+00 EMaxC= 1.00D-01 BMatC= 5.17D-06 BMatP= 1.02D-04
 IDIUse=3 WtCom= 9.97D-01 WtEn= 2.96D-03
 Coeff-Com: -0.229D-02-0.362D-01-0.427D-01 0.140D+00 0.941D+00
 Coeff-En:   0.000D+00 0.000D+00 0.000D+00 0.000D+00 0.100D+01
 Coeff:     -0.229D-02-0.361D-01-0.426D-01 0.140D+00 0.941D+00
 Gap=     0.414 Goal=   None    Shift=    0.000
 RMSDP=2.59D-05 MaxDP=4.08D-04 DE=-9.02D-05 OVMax= 1.47D-03

 Cycle   6  Pass 0  IDiag  1:
 E= -157.231486048592     Delta-E=       -0.000007193013 Rises=F Damp=F
 DIIS: error= 2.72D-05 at cycle   6 NSaved=   6.
 NSaved= 6 IEnMin= 6 EnMin= -157.231486048592     IErMin= 6 ErrMin= 2.72D-05
 ErrMax= 2.72D-05  0.00D+00 EMaxC= 1.00D-01 BMatC= 1.03D-07 BMatP= 5.17D-06
 IDIUse=1 WtCom= 1.00D+00 WtEn= 0.00D+00
 Coeff-Com: -0.378D-03-0.665D-02-0.906D-02-0.195D-01 0.480D-01 0.988D+00
 Coeff:     -0.378D-03-0.665D-02-0.906D-02-0.195D-01 0.480D-01 0.988D+00
 Gap=     0.414 Goal=   None    Shift=    0.000
 RMSDP=5.29D-06 MaxDP=7.53D-05 DE=-7.19D-06 OVMax= 1.81D-04

 Initial convergence to 1.0D-05 achieved.  Increase integral accuracy.
 Cycle   7  Pass 1  IDiag  1:
 E= -157.231531401158     Delta-E=       -0.000045352566 Rises=F Damp=F
 DIIS: error= 4.09D-05 at cycle   1 NSaved=   1.
 NSaved= 1 IEnMin= 1 EnMin= -157.231531401158     IErMin= 1 ErrMin= 4.09D-05
 ErrMax= 4.09D-05  0.00D+00 EMaxC= 1.00D-01 BMatC= 3.10D-07 BMatP= 3.10D-07
 IDIUse=1 WtCom= 1.00D+00 WtEn= 0.00D+00
 Coeff-Com:  0.100D+01
 Coeff:      0.100D+01
 Gap=     0.414 Goal=   None    Shift=    0.000
 RMSDP=5.29D-06 MaxDP=7.53D-05 DE=-4.54D-05 OVMax= 6.65D-05

 Cycle   8  Pass 1  IDiag  1:
 E= -157.231531590104     Delta-E=       -0.000000188946 Rises=F Damp=F
 DIIS: error= 5.47D-06 at cycle   2 NSaved=   2.
 NSaved= 2 IEnMin= 2 EnMin= -157.231531590104     IErMin= 2 ErrMin= 5.47D-06
 ErrMax= 5.47D-06  0.00D+00 EMaxC= 1.00D-01 BMatC= 3.76D-09 BMatP= 3.10D-07
 IDIUse=1 WtCom= 1.00D+00 WtEn= 0.00D+00
 Coeff-Com: -0.565D-01 0.106D+01
 Coeff:     -0.565D-01 0.106D+01
 Gap=     0.414 Goal=   None    Shift=    0.000
 RMSDP=7.39D-07 MaxDP=2.34D-05 DE=-1.89D-07 OVMax= 4.87D-05

 Cycle   9  Pass 1  IDiag  1:
 E= -157.231531593070     Delta-E=       -0.000000002966 Rises=F Damp=F
 DIIS: error= 3.61D-06 at cycle   3 NSaved=   3.
 NSaved= 3 IEnMin= 3 EnMin= -157.231531593070     IErMin= 3 ErrMin= 3.61D-06
 ErrMax= 3.61D-06  0.00D+00 EMaxC= 1.00D-01 BMatC= 1.83D-09 BMatP= 3.76D-09
 IDIUse=1 WtCom= 1.00D+00 WtEn= 0.00D+00
 Coeff-Com: -0.347D-01 0.459D+00 0.575D+00
 Coeff:     -0.347D-01 0.459D+00 0.575D+00
 Gap=     0.414 Goal=   None    Shift=    0.000
 RMSDP=2.00D-07 MaxDP=5.43D-06 DE=-2.97D-09 OVMax= 1.42D-05

 Cycle  10  Pass 1  IDiag  1:
 E= -157.231531594674     Delta-E=       -0.000000001604 Rises=F Damp=F
 DIIS: error= 1.63D-06 at cycle   4 NSaved=   4.
 NSaved= 4 IEnMin= 4 EnMin= -157.231531594674     IErMin= 4 ErrMin= 1.63D-06
 ErrMax= 1.63D-06  0.00D+00 EMaxC= 1.00D-01 BMatC= 6.83D-11 BMatP= 1.83D-09
 IDIUse=1 WtCom= 1.00D+00 WtEn= 0.00D+00
 Coeff-Com: -0.295D-02 0.134D-01 0.133D+00 0.856D+00
 Coeff:     -0.295D-02 0.134D-01 0.133D+00 0.856D+00
 Gap=     0.414 Goal=   None    Shift=    0.000
 RMSDP=9.69D-08 MaxDP=2.38D-06 DE=-1.60D-09 OVMax= 9.82D-06

 Cycle  11  Pass 1  IDiag  1:
 E= -157.231531594795     Delta-E=       -0.000000000121 Rises=F Damp=F
 DIIS: error= 4.23D-07 at cycle   5 NSaved=   5.
 NSaved= 5 IEnMin= 5 EnMin= -157.231531594795     IErMin= 5 ErrMin= 4.23D-07
 ErrMax= 4.23D-07  0.00D+00 EMaxC= 1.00D-01 BMatC= 2.10D-11 BMatP= 6.83D-11
 IDIUse=1 WtCom= 1.00D+00 WtEn= 0.00D+00
 Coeff-Com:  0.347D-02-0.548D-01-0.496D-01 0.316D+00 0.785D+00
 Coeff:      0.347D-02-0.548D-01-0.496D-01 0.316D+00 0.785D+00
 Gap=     0.414 Goal=   None    Shift=    0.000
 RMSDP=4.67D-08 MaxDP=1.13D-06 DE=-1.21D-10 OVMax= 1.59D-06

 Cycle  12  Pass 1  IDiag  1:
 E= -157.231531594819     Delta-E=       -0.000000000025 Rises=F Damp=F
 DIIS: error= 1.22D-07 at cycle   6 NSaved=   6.
 NSaved= 6 IEnMin= 6 EnMin= -157.231531594819     IErMin= 6 ErrMin= 1.22D-07
 ErrMax= 1.22D-07  0.00D+00 EMaxC= 1.00D-01 BMatC= 1.21D-12 BMatP= 2.10D-11
 IDIUse=1 WtCom= 1.00D+00 WtEn= 0.00D+00
 Coeff-Com:  0.140D-02-0.171D-01-0.373D-01 0.719D-02 0.173D+00 0.873D+00
 Coeff:      0.140D-02-0.171D-01-0.373D-01 0.719D-02 0.173D+00 0.873D+00
 Gap=     0.414 Goal=   None    Shift=    0.000
 RMSDP=1.68D-08 MaxDP=4.00D-07 DE=-2.46D-11 OVMax= 9.88D-07

 Cycle  13  Pass 1  IDiag  1:
 E= -157.231531594821     Delta-E=       -0.000000000002 Rises=F Damp=F
 DIIS: error= 3.77D-08 at cycle   7 NSaved=   7.
 NSaved= 7 IEnMin= 7 EnMin= -157.231531594821     IErMin= 7 ErrMin= 3.77D-08
 ErrMax= 3.77D-08  0.00D+00 EMaxC= 1.00D-01 BMatC= 8.86D-14 BMatP= 1.21D-12
 IDIUse=1 WtCom= 1.00D+00 WtEn= 0.00D+00
 Coeff-Com: -0.130D-03 0.262D-02-0.603D-03-0.192D-01-0.691D-01 0.107D+00
 Coeff-Com:  0.979D+00
 Coeff:     -0.130D-03 0.262D-02-0.603D-03-0.192D-01-0.691D-01 0.107D+00
 Coeff:      0.979D+00
 Gap=     0.414 Goal=   None    Shift=    0.000
 RMSDP=4.12D-09 MaxDP=1.00D-07 DE=-2.16D-12 OVMax= 2.44D-07

 SCF Done:  E(RwB97XD) =  -157.231531595     A.U. after   13 cycles
            NFock= 13  Conv=0.41D-08     -V/T= 2.0057
 KE= 1.563370480290D+02 PE=-6.035758075125D+02 EE= 1.700627624449D+02
 Leave Link  502 at Fri Jul  9 19:20:22 2021, MaxMem=  4194304000 cpu:       522.5
 (Enter /home/minenky/programs//g09/l601.exe)
 Copying SCF densities to generalized density rwf, IOpCl= 0 IROHF=0.

 **********************************************************************

            Population analysis using the SCF density.

 **********************************************************************

 Orbital symmetries:
       Occupied  (A1) (B2) (A1) (A1) (A1) (B2) (A1) (A1) (B2) (A1)
                 (B1) (A2) (B2) (A1) (B2) (B1)
       Virtual   (B1) (A1) (B2) (A1) (B2) (B1) (A1) (A1) (A2) (A1)
                 (B2) (B2) (B1) (A2) (A1) (A1) (B2) (B2) (B1) (A1)
                 (B1) (A1) (B2) (A1) (A1) (B2) (A2) (B1) (A1) (B2)
                 (A1) (B2) (A1) (A2) (A1) (B1) (B2) (B2) (A2) (A1)
                 (B2) (A1) (A2) (B1) (A1) (B1) (A1) (B2) (B2) (A1)
                 (B2) (A2) (A1) (B1) (A1) (B2) (A1) (B1) (A1) (A2)
                 (B1) (B2) (B2) (A2) (B1) (A1) (B1) (B2) (A1) (B2)
                 (B1) (A1) (A2) (A1) (A1) (B2) (B1) (B2) (A2) (B2)
                 (A1) (A1) (A2) (B2) (A1) (B1) (B2) (A2) (A1) (B2)
                 (B1) (A1) (B1) (A2) (B2) (A1) (B2) (B2) (A1) (B1)
                 (A1) (B2) (A1) (A1) (B1) (A2) (B2) (A1) (A2) (B1)
                 (A1) (B2) (A2) (B1) (B1) (A1) (A1) (A2) (B2) (B1)
                 (B2) (A2) (B2) (B1) (A1) (B2) (A2) (A1) (A1) (A2)
                 (B1) (B2) (A1) (B2) (A1) (B2) (A2) (B1) (B2) (A1)
                 (B1) (B2) (A1) (A1) (B1) (B2) (A2) (A1) (A1) (B2)
                 (B2) (A1) (A1) (B2) (A1) (A1)
 The electronic state is 1-A1.
 Alpha  occ. eigenvalues --  -10.29341 -10.27569 -10.27568 -10.26320  -0.90867
 Alpha  occ. eigenvalues --   -0.79132  -0.77736  -0.61494  -0.54184  -0.53247
 Alpha  occ. eigenvalues --   -0.52090  -0.47057  -0.45400  -0.44857  -0.42026
 Alpha  occ. eigenvalues --   -0.32683
 Alpha virt. eigenvalues --    0.08732   0.11341   0.16031   0.16305   0.17518
 Alpha virt. eigenvalues --    0.18877   0.19841   0.21750   0.22313   0.24432
 Alpha virt. eigenvalues --    0.24584   0.27448   0.28457   0.29857   0.30825
 Alpha virt. eigenvalues --    0.33958   0.39251   0.39596   0.39694   0.42460
 Alpha virt. eigenvalues --    0.44008   0.45195   0.47516   0.48210   0.52245
 Alpha virt. eigenvalues --    0.53812   0.54719   0.55106   0.56807   0.57322
 Alpha virt. eigenvalues --    0.57325   0.60375   0.67345   0.69407   0.70029
 Alpha virt. eigenvalues --    0.71064   0.73423   0.77103   0.84604   0.85742
 Alpha virt. eigenvalues --    0.91725   1.01570   1.02720   1.02940   1.05269
 Alpha virt. eigenvalues --    1.08138   1.10251   1.10958   1.14013   1.16941
 Alpha virt. eigenvalues --    1.21294   1.30167   1.33205   1.34406   1.36423
 Alpha virt. eigenvalues --    1.46087   1.51195   1.55745   1.58023   1.60618
 Alpha virt. eigenvalues --    1.62498   1.62525   1.65598   1.66301   1.67188
 Alpha virt. eigenvalues --    1.69917   1.70386   1.70847   1.79089   1.84173
 Alpha virt. eigenvalues --    1.91823   1.95021   1.97598   2.00363   2.03088
 Alpha virt. eigenvalues --    2.04980   2.05271   2.10542   2.16773   2.19801
 Alpha virt. eigenvalues --    2.25013   2.29902   2.35597   2.37784   2.41210
 Alpha virt. eigenvalues --    2.41766   2.44357   2.46484   2.50582   2.51172
 Alpha virt. eigenvalues --    2.51921   2.58232   2.59937   2.63071   2.63721
 Alpha virt. eigenvalues --    2.69272   2.69936   2.72770   2.73534   2.84367
 Alpha virt. eigenvalues --    2.87271   2.91136   2.91652   2.98716   3.02127
 Alpha virt. eigenvalues --    3.02229   3.03311   3.10659   3.12422   3.15674
 Alpha virt. eigenvalues --    3.19297   3.21507   3.22252   3.28711   3.29266
 Alpha virt. eigenvalues --    3.30121   3.35189   3.35465   3.36273   3.39670
 Alpha virt. eigenvalues --    3.40642   3.42645   3.45771   3.50666   3.55253
 Alpha virt. eigenvalues --    3.56418   3.63121   3.63351   3.78159   3.81800
 Alpha virt. eigenvalues --    3.82781   3.85340   3.91911   4.04752   4.05073
 Alpha virt. eigenvalues --    4.09413   4.11614   4.15397   4.22912   4.34072
 Alpha virt. eigenvalues --    4.42155   4.47484   4.51168   4.53460   4.58542
 Alpha virt. eigenvalues --    4.59769   4.63247   4.79116   4.90205   4.90932
 Alpha virt. eigenvalues --    5.23006   5.24620  22.24504  22.48933  22.52184
 Alpha virt. eigenvalues --   22.99660
          Condensed to atoms (all electrons):
               1          2          3          4          5          6
     1  C    4.917531   0.663612   0.417056   0.417056  -0.049562  -0.002962
     2  C    0.663612   5.020405  -0.041403  -0.041403   0.310279  -0.042125
     3  H    0.417056  -0.041403   0.541020  -0.028351   0.008855   0.000210
     4  H    0.417056  -0.041403  -0.028351   0.541020  -0.012594   0.002456
     5  C   -0.049562   0.310279   0.008855  -0.012594   4.893927   0.411823
     6  H   -0.002962  -0.042125   0.000210   0.002456   0.411823   0.551224
     7  H   -0.001638  -0.038388  -0.000344   0.000226   0.409021  -0.020823
     8  H   -0.001638  -0.038388  -0.000344   0.000226   0.409021  -0.020823
     9  C   -0.049562   0.310279  -0.012594   0.008855  -0.066259   0.008236
    10  H   -0.002962  -0.042125   0.002456   0.000210   0.008236  -0.000322
    11  H   -0.001638  -0.038388   0.000226  -0.000344  -0.002921  -0.000094
    12  H   -0.001638  -0.038388   0.000226  -0.000344  -0.002921  -0.000094
               7          8          9         10         11         12
     1  C   -0.001638  -0.001638  -0.049562  -0.002962  -0.001638  -0.001638
     2  C   -0.038388  -0.038388   0.310279  -0.042125  -0.038388  -0.038388
     3  H   -0.000344  -0.000344  -0.012594   0.002456   0.000226   0.000226
     4  H    0.000226   0.000226   0.008855   0.000210  -0.000344  -0.000344
     5  C    0.409021   0.409021  -0.066259   0.008236  -0.002921  -0.002921
     6  H   -0.020823  -0.020823   0.008236  -0.000322  -0.000094  -0.000094
     7  H    0.572255  -0.037698  -0.002921  -0.000094  -0.001122   0.004309
     8  H   -0.037698   0.572255  -0.002921  -0.000094   0.004309  -0.001122
     9  C   -0.002921  -0.002921   4.893927   0.411823   0.409021   0.409021
    10  H   -0.000094  -0.000094   0.411823   0.551224  -0.020823  -0.020823
    11  H   -0.001122   0.004309   0.409021  -0.020823   0.572255  -0.037698
    12  H    0.004309  -0.001122   0.409021  -0.020823  -0.037698   0.572255
 Mulliken charges:
               1
     1  C   -0.303657
     2  C    0.016031
     3  H    0.112988
     4  H    0.112988
     5  C   -0.316904
     6  H    0.113296
     7  H    0.117217
     8  H    0.117217
     9  C   -0.316904
    10  H    0.113296
    11  H    0.117217
    12  H    0.117217
 Sum of Mulliken charges =   0.00000
 Mulliken charges with hydrogens summed into heavy atoms:
               1
     1  C   -0.077680
     2  C    0.016031
     5  C    0.030825
     9  C    0.030825
 Electronic spatial extent (au):  <R**2>=            323.2711
 Charge=              0.0000 electrons
 Dipole moment (field-independent basis, Debye):
    X=              0.0000    Y=              0.0000    Z=             -0.5745  Tot=              0.5745
 Quadrupole moment (field-independent basis, Debye-Ang):
   XX=            -28.1484   YY=            -25.6264   ZZ=            -26.1798
   XY=              0.0000   XZ=              0.0000   YZ=              0.0000
 Traceless Quadrupole moment (field-independent basis, Debye-Ang):
   XX=             -1.4969   YY=              1.0251   ZZ=              0.4717
   XY=              0.0000   XZ=              0.0000   YZ=              0.0000
 Octapole moment (field-independent basis, Debye-Ang**2):
  XXX=              0.0000  YYY=              0.0000  ZZZ=              0.6002  XYY=              0.0000
  XXY=              0.0000  XXZ=             -3.9305  XZZ=              0.0000  YZZ=              0.0000
  YYZ=              2.3131  XYZ=              0.0000
 Hexadecapole moment (field-independent basis, Debye-Ang**3):
 XXXX=            -45.6644 YYYY=           -209.7759 ZZZZ=           -194.2443 XXXY=              0.0000
 XXXZ=              0.0000 YYYX=              0.0000 YYYZ=              0.0000 ZZZX=              0.0000
 ZZZY=              0.0000 XXYY=            -43.8719 XXZZ=            -40.6431 YYZZ=            -65.3989
 XXYZ=              0.0000 YYXZ=              0.0000 ZZXY=              0.0000
 N-N= 1.199444654437D+02 E-N=-6.035758064855D+02  KE= 1.563370480290D+02
 Symmetry A1   KE= 1.089022922890D+02
 Symmetry A2   KE= 2.043713981214D+00
 Symmetry B1   KE= 3.997012624625D+00
 Symmetry B2   KE= 4.139402913421D+01
 No NMR shielding tensors so no spin-rotation constants.
 Leave Link  601 at Fri Jul  9 19:20:24 2021, MaxMem=  4194304000 cpu:        35.5
 (Enter /home/minenky/programs//g09/l701.exe)
 Compute integral first derivatives.
 ... and contract with generalized density number  0.
 R6Disp: Adding Grimme-D2 dispersion energy 1st derivatives to the gradient.
   4 Symmetry operations used in ECPInt.
 ECPInt:  NShTT=    2926 NPrTT=    8368 LenC2=    2922 LenP2D=    7274.
 LDataN:  DoStor=T MaxTD1= 7 Len=  274
 Leave Link  701 at Fri Jul  9 19:20:26 2021, MaxMem=  4194304000 cpu:        28.5
 (Enter /home/minenky/programs//g09/l702.exe)
 L702 exits ... SP integral derivatives will be done elsewhere.
 Leave Link  702 at Fri Jul  9 19:20:26 2021, MaxMem=  4194304000 cpu:         0.1
 (Enter /home/minenky/programs//g09/l703.exe)
 Compute integral first derivatives, UseDBF=F ICtDFT=           0.
 Integral derivatives from FoFJK, PRISM(SPDF).
 Calling FoFJK, ICntrl=      2127 FMM=F ISym2X=1 I1Cent= 0 IOpClX= 0 NMat=1 NMatS=1 NMatT=0.
 FoFJK:  IHMeth= 1 ICntrl=    2127 DoSepK=T KAlg= 0 I1Cent=   0 FoldK=F
 IRaf=         1 NMat=   1 IRICut=       1 DoRegI=T DoRafI=F ISym2E= 1.
 FoFCou: FMM=F IPFlag=           0 FMFlag=      100000 FMFlg1=         800
         NFxFlg=           0 DoJE=F BraDBF=F KetDBF=F FulRan=T
         wScrn=  0.000000 ICntrl=    2527 IOpCl=  0 I1Cent=           0 NGrid=           0
         NMat0=    1 NMatS0=      1 NMatT0=    0 NMatD0=    1 NMtDS0=    0 NMtDT0=    0
 Petite list used in FoFCou.
 Leave Link  703 at Fri Jul  9 19:20:28 2021, MaxMem=  4194304000 cpu:        30.3
 (Enter /home/minenky/programs//g09/l716.exe)
 Dipole        = 0.00000000D+00-2.66453526D-15-2.26007736D-01
 ***** Axes restored to original set *****
 -------------------------------------------------------------------
 Center     Atomic                   Forces (Hartrees/Bohr)
 Number     Number              X              Y              Z
 -------------------------------------------------------------------
      1        6           0.000000000    0.000000000   -0.003754824
      2        6           0.000000000    0.000000000    0.002636736
      3        1           0.000000000    0.000444650   -0.000038168
      4        1           0.000000000   -0.000444650   -0.000038168
      5        6           0.000000000    0.000205371   -0.000288885
      6        1           0.000000000    0.000016521    0.000039978
      7        1           0.000119382    0.000270185    0.000423059
      8        1          -0.000119382    0.000270185    0.000423059
      9        6           0.000000000   -0.000205371   -0.000288885
     10        1           0.000000000   -0.000016521    0.000039978
     11        1          -0.000119382   -0.000270185    0.000423059
     12        1           0.000119382   -0.000270185    0.000423059
 -------------------------------------------------------------------
 Cartesian Forces:  Max     0.003754824 RMS     0.000795287
 Leave Link  716 at Fri Jul  9 19:20:29 2021, MaxMem=  4194304000 cpu:         0.4
 (Enter /home/minenky/programs//g09/l103.exe)

 GradGradGradGradGradGradGradGradGradGradGradGradGradGradGradGradGradGrad
 Berny optimization.
 FormGI is forming the generalized inverse of G from B-inverse, IUseBI=4.
 Internal  Forces:  Max     0.003831159 RMS     0.000644975
 Search for a local minimum.
 Step number   1 out of a maximum of   55
 All quantities printed in internal units (Hartrees-Bohrs-Radians)
 RMS Force = .64498D-03 SwitMx=.10000D-02 MixMth= 2
 Mixed Optimization -- En-DIIS/RFO-DIIS
 Second derivative matrix not updated -- first step.
 ITU=  0
     Eigenvalues ---    0.00742   0.00742   0.01366   0.03013   0.03013
     Eigenvalues ---    0.07083   0.07083   0.07312   0.07312   0.16000
     Eigenvalues ---    0.16000   0.16000   0.16000   0.16000   0.16000
     Eigenvalues ---    0.16000   0.16000   0.25000   0.25000   0.32189
     Eigenvalues ---    0.32189   0.34310   0.34310   0.34310   0.34310
     Eigenvalues ---    0.34860   0.34860   0.35626   0.35626   0.59471
 RFO step:  Lambda=-4.14288036D-05 EMin= 7.42146644D-03
 Linear search not attempted -- first point.
 Iteration  1 RMS(Cart)=  0.00334051 RMS(Int)=  0.00000267
 Iteration  2 RMS(Cart)=  0.00000242 RMS(Int)=  0.00000085
 Iteration  3 RMS(Cart)=  0.00000000 RMS(Int)=  0.00000085
 ITry= 1 IFail=0 DXMaxC= 7.96D-03 DCOld= 1.00D+10 DXMaxT= 3.00D-01 DXLimC= 3.00D+00 Rises=F
 ClnCor:  largest displacement from symmetrization is 2.86D-12 for atom     1.
 Variable       Old X    -DE/DX   Delta X   Delta X   Delta X     New X
                                 (Linear)    (Quad)   (Total)
    R1        2.51362  -0.00383   0.00000  -0.00644  -0.00644   2.50717
    R2        2.04670   0.00036   0.00000   0.00101   0.00101   2.04771
    R3        2.04670   0.00036   0.00000   0.00101   0.00101   2.04771
    R4        2.83799  -0.00096   0.00000  -0.00299  -0.00299   2.83500
    R5        2.83799  -0.00096   0.00000  -0.00299  -0.00299   2.83500
    R6        2.05903   0.00001   0.00000   0.00003   0.00003   2.05905
    R7        2.06810  -0.00036   0.00000  -0.00105  -0.00105   2.06705
    R8        2.06810  -0.00036   0.00000  -0.00105  -0.00105   2.06705
    R9        2.05903   0.00001   0.00000   0.00003   0.00003   2.05905
   R10        2.06810  -0.00036   0.00000  -0.00105  -0.00105   2.06705
   R11        2.06810  -0.00036   0.00000  -0.00105  -0.00105   2.06705
    A1        2.12125  -0.00018   0.00000  -0.00113  -0.00113   2.12012
    A2        2.12125  -0.00018   0.00000  -0.00113  -0.00113   2.12012
    A3        2.04069   0.00036   0.00000   0.00226   0.00226   2.04295
    A4        2.13300   0.00007   0.00000   0.00030   0.00030   2.13330
    A5        2.13300   0.00007   0.00000   0.00030   0.00030   2.13330
    A6        2.01719  -0.00015   0.00000  -0.00060  -0.00060   2.01659
    A7        1.95160   0.00009   0.00000   0.00053   0.00053   1.95213
    A8        1.93316  -0.00041   0.00000  -0.00255  -0.00255   1.93061
    A9        1.93316  -0.00041   0.00000  -0.00255  -0.00255   1.93061
   A10        1.89162   0.00017   0.00000   0.00100   0.00100   1.89262
   A11        1.89162   0.00017   0.00000   0.00100   0.00100   1.89262
   A12        1.85961   0.00043   0.00000   0.00279   0.00279   1.86240
   A13        1.95160   0.00009   0.00000   0.00053   0.00053   1.95213
   A14        1.93316  -0.00041   0.00000  -0.00255  -0.00255   1.93061
   A15        1.93316  -0.00041   0.00000  -0.00255  -0.00255   1.93061
   A16        1.89162   0.00017   0.00000   0.00100   0.00100   1.89262
   A17        1.89162   0.00017   0.00000   0.00100   0.00100   1.89262
   A18        1.85961   0.00043   0.00000   0.00279   0.00279   1.86240
    D1        3.14159   0.00000   0.00000   0.00000   0.00000   3.14159
    D2        0.00000   0.00000   0.00000   0.00000   0.00000   0.00000
    D3        0.00000   0.00000   0.00000   0.00000   0.00000   0.00000
    D4        3.14159   0.00000   0.00000   0.00000   0.00000   3.14159
    D5        0.00000   0.00000   0.00000   0.00000   0.00000   0.00000
    D6        2.11185  -0.00001   0.00000  -0.00013  -0.00013   2.11172
    D7       -2.11185   0.00001   0.00000   0.00013   0.00013  -2.11172
    D8        3.14159   0.00000   0.00000   0.00000   0.00000   3.14159
    D9       -1.02974  -0.00001   0.00000  -0.00013  -0.00013  -1.02987
   D10        1.02974   0.00001   0.00000   0.00013   0.00013   1.02987
   D11        0.00000   0.00000   0.00000   0.00000   0.00000   0.00000
   D12        2.11185  -0.00001   0.00000  -0.00013  -0.00013   2.11172
   D13       -2.11185   0.00001   0.00000   0.00013   0.00013  -2.11172
   D14        3.14159   0.00000   0.00000   0.00000   0.00000   3.14159
   D15       -1.02974  -0.00001   0.00000  -0.00013  -0.00013  -1.02987
   D16        1.02974   0.00001   0.00000   0.00013   0.00013   1.02987
         Item               Value     Threshold  Converged?
 Maximum Force            0.003831     0.000015     NO 
 RMS     Force            0.000645     0.000010     NO 
 Maximum Displacement     0.007964     0.000060     NO 
 RMS     Displacement     0.003341     0.000040     NO 
 Predicted change in Energy=-2.071457D-05
 Lowest energy point so far.  Saving SCF results.
 GradGradGradGradGradGradGradGradGradGradGradGradGradGradGradGradGradGrad

 Leave Link  103 at Fri Jul  9 19:20:32 2021, MaxMem=  4194304000 cpu:        33.4
 (Enter /home/minenky/programs//g09/l202.exe)
                          Input orientation:                          
 ---------------------------------------------------------------------
 Center     Atomic      Atomic             Coordinates (Angstroms)
 Number     Number       Type             X           Y           Z
 ---------------------------------------------------------------------
      1          6           0        0.000000    0.000000    1.451019
      2          6           0        0.000000    0.000000    0.124279
      3          1           0        0.000000    0.924181    2.016775
      4          1           0        0.000000   -0.924181    2.016775
      5          6           0        0.000000   -1.269070   -0.675789
      6          1           0        0.000000   -2.151446   -0.036530
      7          1           0       -0.877626   -1.313721   -1.327139
      8          1           0        0.877626   -1.313721   -1.327139
      9          6           0        0.000000    1.269070   -0.675789
     10          1           0        0.000000    2.151446   -0.036530
     11          1           0        0.877626    1.313721   -1.327139
     12          1           0       -0.877626    1.313721   -1.327139
 ---------------------------------------------------------------------
                    Distance matrix (angstroms):
                    1          2          3          4          5
     1  C    0.000000
     2  C    1.326739   0.000000
     3  H    1.083601   2.106099   0.000000
     4  H    1.083601   2.106099   1.848363   0.000000
     5  C    2.476661   1.500216   3.472788   2.714562   0.000000
     6  H    2.615629   2.157447   3.698046   2.392120   1.089605
     7  H    3.195974   2.145392   4.118276   3.479042   1.093836
     8  H    3.195974   2.145392   4.118276   3.479042   1.093836
     9  C    2.476661   1.500216   2.714562   3.472788   2.538140
    10  H    2.615629   2.157447   2.392120   3.698046   3.479738
    11  H    3.195974   2.145392   3.479042   4.118276   2.804513
    12  H    3.195974   2.145392   3.479042   4.118276   2.804513
                    6          7          8          9         10
     6  H    0.000000
     7  H    1.771350   0.000000
     8  H    1.771350   1.755251   0.000000
     9  C    3.479738   2.804513   2.804513   0.000000
    10  H    4.302891   3.800432   3.800432   1.089605   0.000000
    11  H    3.800432   3.159804   2.627443   1.093836   1.771350
    12  H    3.800432   2.627443   3.159804   1.093836   1.771350
                   11         12
    11  H    0.000000
    12  H    1.755251   0.000000
 Stoichiometry    C4H8
 Framework group  C2V[C2(CC),SGV(C2H4),X(H4)]
 Deg. of freedom    10
 Full point group                 C2V     NOp   4
 RotChk:  IX=0 Diff= 5.55D-16
 Largest Abelian subgroup         C2V     NOp   4
 Largest concise Abelian subgroup C2V     NOp   4
                         Standard orientation:                         
 ---------------------------------------------------------------------
 Center     Atomic      Atomic             Coordinates (Angstroms)
 Number     Number       Type             X           Y           Z
 ---------------------------------------------------------------------
      1          6           0        0.000000    0.000000    1.451198
      2          6           0        0.000000    0.000000    0.124459
      3          1           0        0.000000    0.924181    2.016955
      4          1           0        0.000000   -0.924181    2.016955
      5          6           0        0.000000   -1.269070   -0.675609
      6          1           0        0.000000   -2.151446   -0.036350
      7          1           0       -0.877626   -1.313721   -1.326959
      8          1           0        0.877626   -1.313721   -1.326959
      9          6           0        0.000000    1.269070   -0.675609
     10          1           0        0.000000    2.151446   -0.036350
     11          1           0        0.877626    1.313721   -1.326959
     12          1           0       -0.877626    1.313721   -1.326959
 ---------------------------------------------------------------------
 Rotational constants (GHZ):      9.2245251      8.4558361      4.6646074
 Leave Link  202 at Fri Jul  9 19:20:32 2021, MaxMem=  4194304000 cpu:         2.6
 (Enter /home/minenky/programs//g09/l301.exe)
 Standard basis: def2TZVP (5D, 7F)
 Ernie: Thresh=  0.10000D-02 Tol=  0.10000D-05 Strict=F.
 There are    75 symmetry adapted cartesian basis functions of A1  symmetry.
 There are    25 symmetry adapted cartesian basis functions of A2  symmetry.
 There are    35 symmetry adapted cartesian basis functions of B1  symmetry.
 There are    57 symmetry adapted cartesian basis functions of B2  symmetry.
 There are    65 symmetry adapted basis functions of A1  symmetry.
 There are    24 symmetry adapted basis functions of A2  symmetry.
 There are    32 symmetry adapted basis functions of B1  symmetry.
 There are    51 symmetry adapted basis functions of B2  symmetry.
   172 basis functions,   268 primitive gaussians,   192 cartesian basis functions
    16 alpha electrons       16 beta electrons
       nuclear repulsion energy       120.0980848478 Hartrees.
 IExCor= 4639 DFT=T Ex+Corr=wB97XD ExCW=0 ScaHFX=  1.000000
 ScaDFX=  1.000000  1.000000  1.000000  1.000000 ScalE2=  1.000000  1.000000
 IRadAn=      5 IRanWt=     -1 IRanGd=            0 ICorTp=0 IEmpDi=121
  HFx wShort=  0.000000 wLong=  0.200000 cFull=  0.222036 cShort=  0.000000 cLong=  0.777964
  DFx wShort=  0.000000 wLong=  0.200000 cFull=  0.000000 cShort=  0.000000 cLong=  1.000000
 NAtoms=   12 NActive=   12 NUniq=    6 SFac= 4.00D+00 NAtFMM=   60 NAOKFM=F Big=F
 Integral buffers will be    131072 words long.
 Raffenetti 2 integral format.
 Two-electron integral symmetry is turned on.
 R6Disp:  Grimme-D2 Dispersion energy=       -0.0044811114 Hartrees.
 Nuclear repulsion after empirical dispersion term =      120.0936037364 Hartrees.
 Leave Link  301 at Fri Jul  9 19:20:32 2021, MaxMem=  4194304000 cpu:         0.3
 (Enter /home/minenky/programs//g09/l302.exe)
 NPDir=0 NMtPBC=     1 NCelOv=     1 NCel=       1 NClECP=     1 NCelD=      1
         NCelK=      1 NCelE2=     1 NClLst=     1 CellRange=     0.0.
 One-electron integrals computed using PRISM.
 One-electron integral symmetry used in STVInt
   4 Symmetry operations used in ECPInt.
 ECPInt:  NShTT=    2926 NPrTT=    8368 LenC2=    2922 LenP2D=    7274.
 LDataN:  DoStor=T MaxTD1= 6 Len=  172
 NBasis=   172 RedAO= T EigKep=  2.39D-04  NBF=    65    24    32    51
 NBsUse=   172 1.00D-06 EigRej= -1.00D+00 NBFU=    65    24    32    51
 Precomputing XC quadrature grid using
 IXCGrd= 4 IRadAn=           5 IRanWt=          -1 IRanGd=           0 AccXCQ= 0.00D+00.
 Generated NRdTot=       0 NPtTot=           0 NUsed=           0 NTot=          32
 NSgBfM=   192   192   192   192   192 MxSgAt=    12 MxSgA2=    12.
 Leave Link  302 at Fri Jul  9 19:20:39 2021, MaxMem=  4194304000 cpu:        88.7
 (Enter /home/minenky/programs//g09/l303.exe)
 DipDrv:  MaxL=1.
 Leave Link  303 at Fri Jul  9 19:20:40 2021, MaxMem=  4194304000 cpu:         4.3
 (Enter /home/minenky/programs//g09/l401.exe)
 Initial guess from the checkpoint file:  "m1_00_115-11-70_C4H8_wB97XD.chk"
 B after Tr=     0.000000    0.000000    0.000000
         Rot=    1.000000    0.000000    0.000000    0.000000 Ang=   0.00 deg.
 Guess basis will be translated and rotated to current coordinates.
 JPrj=2 DoOrth=T DoCkMO=T.
 Initial guess orbital symmetries:
       Occupied  (A1) (B2) (A1) (A1) (A1) (B2) (A1) (A1) (B2) (A1)
                 (B1) (A2) (B2) (A1) (B2) (B1)
       Virtual   (A1) (A1) (A1) (A1) (A1) (A1) (A1) (A1) (A1) (A1)
                 (A1) (A1) (A1) (A1) (A1) (A1) (A1) (A1) (A1) (A1)
                 (A1) (A1) (A1) (A1) (A1) (A1) (A1) (A1) (A1) (A1)
                 (A1) (A1) (A1) (A1) (A1) (A1) (A1) (A1) (A1) (A1)
                 (A1) (A1) (A1) (A1) (A1) (A1) (A1) (A1) (A1) (A1)
                 (A1) (A1) (A1) (A1) (A1) (A1) (A1) (A2) (A2) (A2)
                 (A2) (A2) (A2) (A2) (A2) (A2) (A2) (A2) (A2) (A2)
                 (A2) (A2) (A2) (A2) (A2) (A2) (A2) (A2) (A2) (A2)
                 (B1) (B1) (B1) (B1) (B1) (B1) (B1) (B1) (B1) (B1)
                 (B1) (B1) (B1) (B1) (B1) (B1) (B1) (B1) (B1) (B1)
                 (B1) (B1) (B1) (B1) (B1) (B1) (B1) (B1) (B1) (B1)
                 (B2) (B2) (B2) (B2) (B2) (B2) (B2) (B2) (B2) (B2)
                 (B2) (B2) (B2) (B2) (B2) (B2) (B2) (B2) (B2) (B2)
                 (B2) (B2) (B2) (B2) (B2) (B2) (B2) (B2) (B2) (B2)
                 (B2) (B2) (B2) (B2) (B2) (B2) (B2) (B2) (B2) (B2)
                 (B2) (B2) (B2) (B2) (B2) (B2)
 The electronic state of the initial guess is 1-A1.
 Leave Link  401 at Fri Jul  9 19:20:43 2021, MaxMem=  4194304000 cpu:        25.3
 (Enter /home/minenky/programs//g09/l502.exe)
 Closed shell SCF:
 Using DIIS extrapolation, IDIIS=  1040.
 Integral symmetry usage will be decided dynamically.
 Keep R1 ints in memory in symmetry-blocked form, NReq=277939876.
 IVT=      263670 IEndB=      263670 NGot=  4194304000 MDV=  4165870283
 LenX=  4165870283 LenY=  4165832978
 Requested convergence on RMS density matrix=1.00D-08 within 380 cycles.
 Requested convergence on MAX density matrix=1.00D-06.
 Requested convergence on             energy=1.00D-06.
 No special actions if energy rises.
 FoFCou: FMM=F IPFlag=           0 FMFlag=           0 FMFlg1=           0
         NFxFlg=           0 DoJE=F BraDBF=F KetDBF=F FulRan=T
         wScrn=  0.000000 ICntrl=     600 IOpCl=  0 I1Cent=           0 NGrid=           0
         NMat0=    1 NMatS0=  14878 NMatT0=    0 NMatD0=    1 NMtDS0=    0 NMtDT0=    0
 Petite list used in FoFCou.

 Cycle   1  Pass 1  IDiag  1:
 E= -157.231544227289    
 DIIS: error= 2.10D-04 at cycle   1 NSaved=   1.
 NSaved= 1 IEnMin= 1 EnMin= -157.231544227289     IErMin= 1 ErrMin= 2.10D-04
 ErrMax= 2.10D-04  0.00D+00 EMaxC= 1.00D-01 BMatC= 7.74D-06 BMatP= 7.74D-06
 IDIUse=3 WtCom= 9.98D-01 WtEn= 2.10D-03
 Coeff-Com:  0.100D+01
 Coeff-En:   0.100D+01
 Coeff:      0.100D+01
 Gap=     0.857 Goal=   None    Shift=    0.000
 RMSDP=2.04D-05 MaxDP=5.81D-04              OVMax= 6.53D-04

 Cycle   2  Pass 1  IDiag  1:
 E= -157.231549440959     Delta-E=       -0.000005213670 Rises=F Damp=F
 DIIS: error= 1.28D-04 at cycle   2 NSaved=   2.
 NSaved= 2 IEnMin= 2 EnMin= -157.231549440959     IErMin= 2 ErrMin= 1.28D-04
 ErrMax= 1.28D-04  0.00D+00 EMaxC= 1.00D-01 BMatC= 8.23D-07 BMatP= 7.74D-06
 IDIUse=3 WtCom= 9.99D-01 WtEn= 1.28D-03
 Coeff-Com:  0.131D+00 0.869D+00
 Coeff-En:   0.000D+00 0.100D+01
 Coeff:      0.131D+00 0.869D+00
 Gap=     0.415 Goal=   None    Shift=    0.000
 RMSDP=5.67D-06 MaxDP=1.87D-04 DE=-5.21D-06 OVMax= 5.03D-04

 Cycle   3  Pass 1  IDiag  1:
 E= -157.231549862562     Delta-E=       -0.000000421603 Rises=F Damp=F
 DIIS: error= 9.78D-05 at cycle   3 NSaved=   3.
 NSaved= 3 IEnMin= 3 EnMin= -157.231549862562     IErMin= 3 ErrMin= 9.78D-05
 ErrMax= 9.78D-05  0.00D+00 EMaxC= 1.00D-01 BMatC= 4.32D-07 BMatP= 8.23D-07
 IDIUse=1 WtCom= 1.00D+00 WtEn= 0.00D+00
 Coeff-Com: -0.290D-01 0.413D+00 0.616D+00
 Coeff:     -0.290D-01 0.413D+00 0.616D+00
 Gap=     0.415 Goal=   None    Shift=    0.000
 RMSDP=2.37D-06 MaxDP=8.81D-05 DE=-4.22D-07 OVMax= 2.54D-04

 Cycle   4  Pass 1  IDiag  1:
 E= -157.231550271334     Delta-E=       -0.000000408772 Rises=F Damp=F
 DIIS: error= 1.17D-05 at cycle   4 NSaved=   4.
 NSaved= 4 IEnMin= 4 EnMin= -157.231550271334     IErMin= 4 ErrMin= 1.17D-05
 ErrMax= 1.17D-05  0.00D+00 EMaxC= 1.00D-01 BMatC= 1.03D-08 BMatP= 4.32D-07
 IDIUse=1 WtCom= 1.00D+00 WtEn= 0.00D+00
 Coeff-Com: -0.128D-01 0.878D-01 0.193D+00 0.732D+00
 Coeff:     -0.128D-01 0.878D-01 0.193D+00 0.732D+00
 Gap=     0.415 Goal=   None    Shift=    0.000
 RMSDP=5.12D-07 MaxDP=2.07D-05 DE=-4.09D-07 OVMax= 5.95D-05

 Cycle   5  Pass 1  IDiag  1:
 E= -157.231550281327     Delta-E=       -0.000000009993 Rises=F Damp=F
 DIIS: error= 3.80D-06 at cycle   5 NSaved=   5.
 NSaved= 5 IEnMin= 5 EnMin= -157.231550281327     IErMin= 5 ErrMin= 3.80D-06
 ErrMax= 3.80D-06  0.00D+00 EMaxC= 1.00D-01 BMatC= 1.28D-09 BMatP= 1.03D-08
 IDIUse=1 WtCom= 1.00D+00 WtEn= 0.00D+00
 Coeff-Com:  0.382D-03-0.336D-01-0.261D-01 0.240D+00 0.819D+00
 Coeff:      0.382D-03-0.336D-01-0.261D-01 0.240D+00 0.819D+00
 Gap=     0.415 Goal=   None    Shift=    0.000
 RMSDP=2.72D-07 MaxDP=5.38D-06 DE=-9.99D-09 OVMax= 1.24D-05

 Cycle   6  Pass 1  IDiag  1:
 E= -157.231550282821     Delta-E=       -0.000000001494 Rises=F Damp=F
 DIIS: error= 5.00D-07 at cycle   6 NSaved=   6.
 NSaved= 6 IEnMin= 6 EnMin= -157.231550282821     IErMin= 6 ErrMin= 5.00D-07
 ErrMax= 5.00D-07  0.00D+00 EMaxC= 1.00D-01 BMatC= 1.82D-11 BMatP= 1.28D-09
 IDIUse=1 WtCom= 1.00D+00 WtEn= 0.00D+00
 Coeff-Com:  0.594D-03-0.762D-02-0.116D-01-0.308D-02 0.798D-01 0.942D+00
 Coeff:      0.594D-03-0.762D-02-0.116D-01-0.308D-02 0.798D-01 0.942D+00
 Gap=     0.415 Goal=   None    Shift=    0.000
 RMSDP=6.91D-08 MaxDP=1.05D-06 DE=-1.49D-09 OVMax= 3.09D-06

 Cycle   7  Pass 1  IDiag  1:
 E= -157.231550282857     Delta-E=       -0.000000000037 Rises=F Damp=F
 DIIS: error= 1.89D-07 at cycle   7 NSaved=   7.
 NSaved= 7 IEnMin= 7 EnMin= -157.231550282857     IErMin= 7 ErrMin= 1.89D-07
 ErrMax= 1.89D-07  0.00D+00 EMaxC= 1.00D-01 BMatC= 2.78D-12 BMatP= 1.82D-11
 IDIUse=1 WtCom= 1.00D+00 WtEn= 0.00D+00
 Coeff-Com:  0.135D-03 0.749D-04-0.181D-02-0.149D-01-0.344D-01 0.242D+00
 Coeff-Com:  0.809D+00
 Coeff:      0.135D-03 0.749D-04-0.181D-02-0.149D-01-0.344D-01 0.242D+00
 Coeff:      0.809D+00
 Gap=     0.415 Goal=   None    Shift=    0.000
 RMSDP=2.14D-08 MaxDP=3.18D-07 DE=-3.66D-11 OVMax= 5.98D-07

 Cycle   8  Pass 1  IDiag  1:
 E= -157.231550282862     Delta-E=       -0.000000000005 Rises=F Damp=F
 DIIS: error= 3.21D-08 at cycle   8 NSaved=   8.
 NSaved= 8 IEnMin= 8 EnMin= -157.231550282862     IErMin= 8 ErrMin= 3.21D-08
 ErrMax= 3.21D-08  0.00D+00 EMaxC= 1.00D-01 BMatC= 2.10D-13 BMatP= 2.78D-12
 IDIUse=1 WtCom= 1.00D+00 WtEn= 0.00D+00
 Coeff-Com: -0.334D-04 0.911D-03 0.820D-03-0.294D-02-0.180D-01-0.381D-01
 Coeff-Com:  0.192D+00 0.866D+00
 Coeff:     -0.334D-04 0.911D-03 0.820D-03-0.294D-02-0.180D-01-0.381D-01
 Coeff:      0.192D+00 0.866D+00
 Gap=     0.415 Goal=   None    Shift=    0.000
 RMSDP=7.43D-09 MaxDP=1.31D-07 DE=-4.95D-12 OVMax= 1.83D-07

 SCF Done:  E(RwB97XD) =  -157.231550283     A.U. after    8 cycles
            NFock=  8  Conv=0.74D-08     -V/T= 2.0056
 KE= 1.563555140298D+02 PE=-6.038902111863D+02 EE= 1.702095431371D+02
 Leave Link  502 at Fri Jul  9 19:21:29 2021, MaxMem=  4194304000 cpu:       669.6
 (Enter /home/minenky/programs//g09/l701.exe)
 Compute integral first derivatives.
 ... and contract with generalized density number  0.
 R6Disp: Adding Grimme-D2 dispersion energy 1st derivatives to the gradient.
   4 Symmetry operations used in ECPInt.
 ECPInt:  NShTT=    2926 NPrTT=    8368 LenC2=    2922 LenP2D=    7274.
 LDataN:  DoStor=T MaxTD1= 7 Len=  274
 Leave Link  701 at Fri Jul  9 19:21:31 2021, MaxMem=  4194304000 cpu:        20.3
 (Enter /home/minenky/programs//g09/l702.exe)
 L702 exits ... SP integral derivatives will be done elsewhere.
 Leave Link  702 at Fri Jul  9 19:21:31 2021, MaxMem=  4194304000 cpu:         0.1
 (Enter /home/minenky/programs//g09/l703.exe)
 Compute integral first derivatives, UseDBF=F ICtDFT=           0.
 Integral derivatives from FoFJK, PRISM(SPDF).
 Calling FoFJK, ICntrl=      2127 FMM=F ISym2X=1 I1Cent= 0 IOpClX= 0 NMat=1 NMatS=1 NMatT=0.
 FoFJK:  IHMeth= 1 ICntrl=    2127 DoSepK=T KAlg= 0 I1Cent=   0 FoldK=F
 IRaf=         1 NMat=   1 IRICut=       1 DoRegI=T DoRafI=F ISym2E= 1.
 FoFCou: FMM=F IPFlag=           0 FMFlag=      100000 FMFlg1=         800
         NFxFlg=           0 DoJE=F BraDBF=F KetDBF=F FulRan=T
         wScrn=  0.000000 ICntrl=    2527 IOpCl=  0 I1Cent=           0 NGrid=           0
         NMat0=    1 NMatS0=      1 NMatT0=    0 NMatD0=    1 NMtDS0=    0 NMtDT0=    0
 Petite list used in FoFCou.
 Leave Link  703 at Fri Jul  9 19:21:33 2021, MaxMem=  4194304000 cpu:        31.2
 (Enter /home/minenky/programs//g09/l716.exe)
 Dipole        =-2.22044605D-16-1.77635684D-15-2.25863564D-01
 ***** Axes restored to original set *****
 -------------------------------------------------------------------
 Center     Atomic                   Forces (Hartrees/Bohr)
 Number     Number              X              Y              Z
 -------------------------------------------------------------------
      1        6           0.000000000    0.000000000    0.000350499
      2        6           0.000000000    0.000000000    0.000112143
[...]
     26  0.534652D+00
     27  0.517036D-01  0.552295D+00
     28  0.000000D+00  0.000000D+00  0.453739D-01
     29 -0.222210D+00 -0.128175D+00  0.000000D+00  0.242530D+00
     30 -0.131908D+00 -0.145129D+00  0.000000D+00  0.139713D+00  0.155155D+00
     31 -0.672268D-02  0.125527D+00  0.113125D-02  0.368226D-03 -0.177111D-02
     32 -0.487972D-01  0.367751D-02  0.217142D-01  0.175168D-02 -0.139122D-01
     33  0.238132D-02 -0.134953D+00  0.149171D-01  0.184010D-02 -0.106483D-01
     34  0.672268D-02 -0.125527D+00  0.113125D-02 -0.368225D-03  0.177111D-02
     35 -0.487972D-01  0.367751D-02 -0.217142D-01  0.175168D-02 -0.139122D-01
     36  0.238132D-02 -0.134953D+00 -0.149171D-01  0.184010D-02 -0.106483D-01
               31            32            33            34            35 
     31  0.233511D+00
     32  0.741134D-02  0.500752D-01
     33 -0.138081D+00 -0.792649D-02  0.147815D+00
     34 -0.217593D-01  0.592240D-03 -0.160684D-01  0.233511D+00
     35 -0.592240D-03 -0.638073D-03 -0.830663D-03 -0.741134D-02  0.500752D-01
     36  0.160684D-01 -0.830663D-03  0.121012D-01  0.138081D+00 -0.792649D-02
               36 
     36  0.147815D+00
 FormGI is forming the generalized inverse of G from B-inverse, IUseBI=4.
 Leave Link  716 at Fri Jul  9 19:25:43 2021, MaxMem=  4194304000 cpu:        30.9
 (Enter /home/minenky/programs//g09/l103.exe)

 GradGradGradGradGradGradGradGradGradGradGradGradGradGradGradGradGradGrad
 Berny optimization.
 Red2BG is reusing G-inverse.
 Internal  Forces:  Max     0.000001604 RMS     0.000000611
 Search for a local minimum.
 Step number   1 out of a maximum of    2
 All quantities printed in internal units (Hartrees-Bohrs-Radians)
 Second derivative matrix not updated -- analytic derivatives used.
 ITU=  0
     Eigenvalues ---    0.00190   0.00281   0.01699   0.03120   0.03833
     Eigenvalues ---    0.05610   0.05664   0.05798   0.05939   0.10594
     Eigenvalues ---    0.12131   0.12431   0.12774   0.14037   0.14278
     Eigenvalues ---    0.14340   0.14534   0.18837   0.21058   0.32337
     Eigenvalues ---    0.32573   0.33333   0.33417   0.34163   0.34239
     Eigenvalues ---    0.34745   0.34949   0.36232   0.36251   0.64458
 Angle between quadratic step and forces=  26.83 degrees.
 Linear search not attempted -- first point.
 Iteration  1 RMS(Cart)=  0.00000560 RMS(Int)=  0.00000000
 Iteration  2 RMS(Cart)=  0.00000000 RMS(Int)=  0.00000000
 ITry= 1 IFail=0 DXMaxC= 1.56D-05 DCOld= 1.00D+10 DXMaxT= 3.00D-01 DXLimC= 3.00D+00 Rises=F
 ClnCor:  largest displacement from symmetrization is 2.00D-12 for atom     8.
 Variable       Old X    -DE/DX   Delta X   Delta X   Delta X     New X
                                 (Linear)    (Quad)   (Total)
    R1        2.50768   0.00000   0.00000   0.00000   0.00000   2.50768
    R2        2.04774   0.00000   0.00000   0.00000   0.00000   2.04774
    R3        2.04774   0.00000   0.00000   0.00000   0.00000   2.04774
    R4        2.83590   0.00000   0.00000   0.00000   0.00000   2.83590
    R5        2.83590   0.00000   0.00000   0.00000   0.00000   2.83590
    R6        2.05904   0.00000   0.00000   0.00000   0.00000   2.05904
    R7        2.06697   0.00000   0.00000   0.00000   0.00000   2.06697
    R8        2.06697   0.00000   0.00000   0.00000   0.00000   2.06697
    R9        2.05904   0.00000   0.00000   0.00000   0.00000   2.05904
   R10        2.06697   0.00000   0.00000   0.00000   0.00000   2.06697
   R11        2.06697   0.00000   0.00000   0.00000   0.00000   2.06697
    A1        2.12026   0.00000   0.00000   0.00000   0.00000   2.12025
    A2        2.12026   0.00000   0.00000   0.00000   0.00000   2.12025
    A3        2.04267   0.00000   0.00000   0.00001   0.00001   2.04268
    A4        2.13404   0.00000   0.00000   0.00000   0.00000   2.13405
    A5        2.13404   0.00000   0.00000   0.00000   0.00000   2.13405
    A6        2.01510   0.00000   0.00000  -0.00001  -0.00001   2.01509
    A7        1.95225   0.00000   0.00000  -0.00001  -0.00001   1.95224
    A8        1.93045   0.00000   0.00000   0.00000   0.00000   1.93045
    A9        1.93045   0.00000   0.00000   0.00000   0.00000   1.93045
   A10        1.89252   0.00000   0.00000   0.00000   0.00000   1.89252
   A11        1.89252   0.00000   0.00000   0.00000   0.00000   1.89252
   A12        1.86282   0.00000   0.00000   0.00001   0.00001   1.86283
   A13        1.95225   0.00000   0.00000  -0.00001  -0.00001   1.95224
   A14        1.93045   0.00000   0.00000   0.00000   0.00000   1.93045
   A15        1.93045   0.00000   0.00000   0.00000   0.00000   1.93045
   A16        1.89252   0.00000   0.00000   0.00000   0.00000   1.89252
   A17        1.89252   0.00000   0.00000   0.00000   0.00000   1.89252
   A18        1.86282   0.00000   0.00000   0.00001   0.00001   1.86283
    D1        3.14159   0.00000   0.00000   0.00000   0.00000   3.14159
    D2        0.00000   0.00000   0.00000   0.00000   0.00000   0.00000
    D3        0.00000   0.00000   0.00000   0.00000   0.00000   0.00000
    D4        3.14159   0.00000   0.00000   0.00000   0.00000   3.14159
    D5        0.00000   0.00000   0.00000   0.00000   0.00000   0.00000
    D6        2.11156   0.00000   0.00000   0.00000   0.00000   2.11156
    D7       -2.11156   0.00000   0.00000   0.00000   0.00000  -2.11156
    D8        3.14159   0.00000   0.00000   0.00000   0.00000   3.14159
    D9       -1.03003   0.00000   0.00000   0.00000   0.00000  -1.03003
   D10        1.03003   0.00000   0.00000   0.00000   0.00000   1.03003
   D11        0.00000   0.00000   0.00000   0.00000   0.00000   0.00000
   D12        2.11156   0.00000   0.00000   0.00000   0.00000   2.11156
   D13       -2.11156   0.00000   0.00000   0.00000   0.00000  -2.11156
   D14        3.14159   0.00000   0.00000   0.00000   0.00000   3.14159
   D15       -1.03003   0.00000   0.00000   0.00000   0.00000  -1.03003
   D16        1.03003   0.00000   0.00000   0.00000   0.00000   1.03003
         Item               Value     Threshold  Converged?
 Maximum Force            0.000002     0.000015     YES
 RMS     Force            0.000001     0.000010     YES
 Maximum Displacement     0.000016     0.000060     YES
 RMS     Displacement     0.000006     0.000040     YES
 Predicted change in Energy=-4.757906D-11
 Optimization completed.
    -- Stationary point found.
                           ----------------------------
                           !   Optimized Parameters   !
                           ! (Angstroms and Degrees)  !
 --------------------------                            --------------------------
 ! Name  Definition              Value          Derivative Info.                !
 --------------------------------------------------------------------------------
 ! R1    R(1,2)                  1.327          -DE/DX =    0.0                 !
 ! R2    R(1,3)                  1.0836         -DE/DX =    0.0                 !
 ! R3    R(1,4)                  1.0836         -DE/DX =    0.0                 !
 ! R4    R(2,5)                  1.5007         -DE/DX =    0.0                 !
 ! R5    R(2,9)                  1.5007         -DE/DX =    0.0                 !
 ! R6    R(5,6)                  1.0896         -DE/DX =    0.0                 !
 ! R7    R(5,7)                  1.0938         -DE/DX =    0.0                 !
 ! R8    R(5,8)                  1.0938         -DE/DX =    0.0                 !
 ! R9    R(9,10)                 1.0896         -DE/DX =    0.0                 !
 ! R10   R(9,11)                 1.0938         -DE/DX =    0.0                 !
 ! R11   R(9,12)                 1.0938         -DE/DX =    0.0                 !
 ! A1    A(2,1,3)              121.4817         -DE/DX =    0.0                 !
 ! A2    A(2,1,4)              121.4817         -DE/DX =    0.0                 !
 ! A3    A(3,1,4)              117.0366         -DE/DX =    0.0                 !
 ! A4    A(1,2,5)              122.2717         -DE/DX =    0.0                 !
 ! A5    A(1,2,9)              122.2717         -DE/DX =    0.0                 !
 ! A6    A(5,2,9)              115.4565         -DE/DX =    0.0                 !
 ! A7    A(2,5,6)              111.8556         -DE/DX =    0.0                 !
 ! A8    A(2,5,7)              110.6066         -DE/DX =    0.0                 !
 ! A9    A(2,5,8)              110.6066         -DE/DX =    0.0                 !
 ! A10   A(6,5,7)              108.4334         -DE/DX =    0.0                 !
 ! A11   A(6,5,8)              108.4334         -DE/DX =    0.0                 !
 ! A12   A(7,5,8)              106.732          -DE/DX =    0.0                 !
 ! A13   A(2,9,10)             111.8556         -DE/DX =    0.0                 !
 ! A14   A(2,9,11)             110.6066         -DE/DX =    0.0                 !
 ! A15   A(2,9,12)             110.6066         -DE/DX =    0.0                 !
 ! A16   A(10,9,11)            108.4334         -DE/DX =    0.0                 !
 ! A17   A(10,9,12)            108.4334         -DE/DX =    0.0                 !
 ! A18   A(11,9,12)            106.732          -DE/DX =    0.0                 !
 ! D1    D(3,1,2,5)            180.0            -DE/DX =    0.0                 !
 ! D2    D(3,1,2,9)              0.0            -DE/DX =    0.0                 !
 ! D3    D(4,1,2,5)              0.0            -DE/DX =    0.0                 !
 ! D4    D(4,1,2,9)            180.0            -DE/DX =    0.0                 !
 ! D5    D(1,2,5,6)              0.0            -DE/DX =    0.0                 !
 ! D6    D(1,2,5,7)            120.9836         -DE/DX =    0.0                 !
 ! D7    D(1,2,5,8)           -120.9836         -DE/DX =    0.0                 !
 ! D8    D(9,2,5,6)            180.0            -DE/DX =    0.0                 !
 ! D9    D(9,2,5,7)            -59.0164         -DE/DX =    0.0                 !
 ! D10   D(9,2,5,8)             59.0164         -DE/DX =    0.0                 !
 ! D11   D(1,2,9,10)             0.0            -DE/DX =    0.0                 !
 ! D12   D(1,2,9,11)           120.9836         -DE/DX =    0.0                 !
 ! D13   D(1,2,9,12)          -120.9836         -DE/DX =    0.0                 !
 ! D14   D(5,2,9,10)           180.0            -DE/DX =    0.0                 !
 ! D15   D(5,2,9,11)           -59.0164         -DE/DX =    0.0                 !
 ! D16   D(5,2,9,12)            59.0164         -DE/DX =    0.0                 !
 --------------------------------------------------------------------------------
 GradGradGradGradGradGradGradGradGradGradGradGradGradGradGradGradGradGrad

 Leave Link  103 at Fri Jul  9 19:25:49 2021, MaxMem=  4194304000 cpu:        50.8
 (Enter /home/minenky/programs//g09/l9999.exe)
 1\1\GINC-CN506-06-R\Freq\RwB97XD\def2TZVP\C4H8\MINENKY\09-Jul-2021\0\\
 #P Geom=AllCheck Guess=TCheck SCRF=Check GenChk RwB97XD/def2TZVP Freq\
 \The PBEPBE optimization and frequencies\\0,1\C,0.,0.,1.4520687255\C,0
 .,0.,0.125063508\H,0.,0.9241171858,2.0179630648\H,0.,-0.9241171858,2.0
 179630648\C,0.,-1.2688729629,-0.6762087401\H,0.,-2.1517969248,-0.03772
 11365\H,-0.8777280117,-1.3129555925,-1.3273856525\H,0.8777280117,-1.31
 29555925,-1.3273856525\C,0.,1.2688729629,-0.6762087401\H,0.,2.15179692
 48,-0.0377211365\H,0.8777280117,1.3129555925,-1.3273856525\H,-0.877728
 0117,1.3129555925,-1.3273856525\\Version=AM64L-G09RevD.01\State=1-A1\H
 F=-157.231551\RMSD=1.662e-09\RMSF=6.609e-07\ZeroPoint=0.1084201\Therma
 l=0.113703\Dipole=0.,0.,-0.2258119\DipoleDeriv=-0.3471144,0.,0.,0.,0.0
 166241,0.,0.,0.,-0.27534,-0.2031163,0.,0.,0.,0.2704852,0.,0.,0.,0.3814
 052,0.1542538,0.,0.,0.,-0.0816119,-0.0970285,0.,-0.0395846,0.013184,0.
 1542538,0.,0.,0.,-0.0816119,0.0970285,0.,0.0395846,0.013184,0.1555826,
 0.,0.,0.,-0.0479406,-0.0242234,0.,-0.0537871,0.003833,0.0751955,0.,0.,
 0.,-0.0917686,0.0367507,0.,0.1215047,-0.0181499,-0.0549583,-0.0192672,
 -0.1258133,0.0352914,0.0388832,-0.0351218,-0.0818771,-0.0329575,-0.025
 9498,-0.0549583,0.0192672,0.1258133,-0.0352914,0.0388832,-0.0351218,0.
 0818771,-0.0329575,-0.0259498,0.1555826,0.,0.,0.,-0.0479406,0.0242234,
 0.,0.0537871,0.003833,0.0751955,0.,0.,0.,-0.0917686,-0.0367507,0.,-0.1
 215047,-0.0181499,-0.0549583,-0.0192672,0.1258133,0.0352914,0.0388832,
 0.0351218,0.0818771,0.0329575,-0.0259498,-0.0549583,0.0192672,-0.12581
 33,-0.0352914,0.0388832,0.0351218,-0.0818771,0.0329575,-0.0259498\Pola
 r=38.0192832,0.,49.3719446,0.,0.,61.9450398\PG=C02V [C2(C1C1),SGV(C2H4
 ),X(H4)]\NImag=0\\0.10700179,0.,0.65646265,0.,0.,0.86411426,-0.0567035
 1,0.,0.,0.19550761,0.,-0.11183997,0.,0.,0.52586188,0.,0.,-0.56061176,0
 .,0.,0.86676397,-0.03380947,0.,0.,0.00419297,0.,0.,0.02333215,0.,-0.26
 647013,-0.12644206,0.,0.00067841,0.00228178,0.,0.27741970,0.,-0.120555
 12,-0.13018273,0.,-0.02930102,-0.01307015,0.,0.13616133,0.13743003,-0.
 03380947,0.,0.,0.00419298,0.,0.,0.00167489,0.,0.,0.02333215,0.,-0.2664
 7013,0.12644206,0.,0.00067841,-0.00228178,0.,-0.01527511,0.01355689,0.
 ,0.27741970,0.,0.12055512,-0.13018273,0.,0.02930102,-0.01307015,0.,-0.
 01355689,0.00968041,0.,-0.13616133,0.13743003,0.00916164,0.,0.,-0.0768
 0869,0.,0.,0.01289194,0.,0.,-0.00818309,0.,0.,0.53716277,0.,-0.0011050
 8,-0.00654145,0.,-0.18493450,-0.05957158,0.,0.00104344,0.00196712,0.,0
 .00123874,0.00198464,0.,0.53465182,0.,-0.03291154,-0.02278673,0.,-0.05
 462103,-0.12163055,0.,0.00040902,-0.00385471,0.,-0.00146964,0.00089562
 ,0.,-0.05170359,0.55229510,-0.00051506,0.,0.,-0.00165795,0.,0.,-0.0002
 0085,0.,0.,0.00037517,0.,0.,-0.04768136,0.,0.,0.04537390,0.,0.00160340
 ,0.00150872,0.,-0.02225404,0.01911313,0.,0.00053350,0.00001804,0.,0.00
 047701,-0.00126993,0.,-0.22220969,0.12817541,0.,0.24253010,0.,-0.00136
 180,0.00109710,0.,-0.01513448,0.01138384,0.,0.00017650,0.00024286,0.,0
 .00010609,-0.00032865,0.,0.13190793,-0.14512939,0.,-0.13971333,0.15515
 540,0.00000688,-0.00023046,0.00078396,0.00243581,0.00018957,0.00058590
 ,-0.00030537,0.00001311,0.00005245,0.00016851,0.00000652,0.00007183,-0
 .21559750,-0.00672268,-0.12552691,0.00113125,0.00036823,0.00177111,0.2
 3351117,0.00053635,-0.00316976,-0.00077946,-0.02427581,-0.00025041,-0.
 01753592,0.00179704,0.00009996,-0.00073256,-0.00062839,0.00007726,-0.0
 0016629,-0.00778073,-0.04879719,-0.00367751,0.02171421,0.00175168,0.01
 391224,0.00741134,0.05007517,0.00015820,-0.00291513,0.00006056,-0.0143
 3090,-0.00187302,-0.01487962,0.00170288,-0.00030125,-0.00059377,-0.001
 16198,-0.00010463,0.00018743,-0.12641176,-0.00238132,-0.13495333,-0.01
 491707,-0.00184010,-0.01064832,0.13808099,0.00792649,0.14781531,0.0000
 0688,0.00023046,-0.00078396,0.00243581,-0.00018957,-0.00058590,-0.0003
 0537,-0.00001311,-0.00005245,0.00016851,-0.00000652,-0.00007183,-0.215
 59750,0.00672268,0.12552691,0.00113125,-0.00036823,-0.00177111,-0.0217
 5930,0.00059224,0.01606837,0.23351117,-0.00053635,-0.00316976,-0.00077
 946,0.02427581,-0.00025041,-0.01753592,-0.00179704,0.00009996,-0.00073
 256,0.00062839,0.00007726,-0.00016629,0.00778073,-0.04879718,-0.003677
 51,-0.02171421,0.00175168,0.01391224,-0.00059224,-0.00063807,0.0008306
 6,-0.00741134,0.05007517,-0.00015820,-0.00291513,0.00006056,0.01433090
 ,-0.00187302,-0.01487963,-0.00170288,-0.00030125,-0.00059377,0.0011619
 8,-0.00010463,0.00018743,0.12641176,-0.00238132,-0.13495333,0.01491707
 ,-0.00184010,-0.01064832,-0.01606837,0.00083066,0.01210116,-0.13808099
 ,0.00792649,0.14781531,0.00916164,0.,0.,-0.07680869,0.,0.,-0.00818309,
 0.,0.,0.01289194,0.,0.,0.00323401,0.,0.,0.00101924,0.,0.,0.00019928,-0
 .00019136,0.00029366,0.00019928,0.00019136,-0.00029366,0.53716277,0.,-
 0.00110508,0.00654145,0.,-0.18493450,0.05957158,0.,0.00123874,-0.00198
 464,0.,0.00104344,-0.00196712,0.,-0.02986718,0.01427360,0.,-0.00342166
 ,-0.00282483,-0.00000172,0.00109924,0.00091583,0.00000172,0.00109924,0
 .00091583,0.,0.53465182,0.,0.03291154,-0.02278673,0.,0.05462103,-0.121
 63055,0.,0.00146964,0.00089562,0.,-0.00040902,-0.00385471,0.,-0.014273
 60,0.01131560,0.,-0.00477158,-0.00170581,0.00010066,-0.00021561,0.0002
 5375,-0.00010066,-0.00021561,0.00025375,0.,0.05170359,0.55229510,-0.00
 051506,0.,0.,-0.00165795,0.,0.,0.00037517,0.,0.,-0.00020085,0.,0.,0.00
 101924,0.,0.,0.00056314,0.,0.,0.00023063,0.00036246,0.00034860,0.00023
 063,-0.00036246,-0.00034860,-0.04768136,0.,0.,0.04537390,0.,0.00160340
 ,-0.00150872,0.,-0.02225404,-0.01911313,0.,0.00047701,0.00126993,0.,0.
 00053350,-0.00001804,0.,-0.00342166,0.00477158,0.,-0.00148862,-0.00081
 572,-0.00007171,0.00036333,0.00009799,0.00007171,0.00036333,0.00009799
 ,0.,-0.22220969,-0.12817541,0.,0.24253010,0.,0.00136180,0.00109710,0.,
 0.01513448,0.01138384,0.,-0.00010609,-0.00032865,0.,-0.00017650,0.0002
 4286,0.,0.00282483,-0.00170581,0.,0.00081572,0.00066461,0.00015220,0.0
 0008243,-0.00004166,-0.00015220,0.00008243,-0.00004166,0.,-0.13190793,
 -0.14512939,0.,0.13971333,0.15515540,0.00000687,-0.00023046,-0.0007839
 6,0.00243581,0.00018957,-0.00058590,0.00016851,0.00000652,-0.00007183,
 -0.00030537,0.00001311,-0.00005245,0.00019928,-0.00000172,-0.00010066,
 0.00023063,-0.00007171,-0.00015220,-0.00016969,0.00004635,0.00008642,0
 .00014834,-0.00041632,-0.00008260,-0.21559750,-0.00672268,0.12552691,0
 .00113125,0.00036823,-0.00177111,0.23351117,0.00053635,-0.00316976,0.0
 0077946,-0.02427581,-0.00025041,0.01753592,-0.00062839,0.00007726,0.00
 016629,0.00179704,0.00009996,0.00073256,-0.00019136,0.00109924,0.00021
 561,0.00036246,0.00036333,-0.00008243,0.00004635,-0.00001090,0.0000135
 2,0.00041632,-0.00060032,-0.00036904,-0.00778073,-0.04879719,0.0036775
 1,0.02171421,0.00175168,-0.01391224,0.00741134,0.05007517,-0.00015820,
 0.00291513,0.00006056,0.01433090,0.00187302,-0.01487962,0.00116198,0.0
 0010463,0.00018743,-0.00170288,0.00030125,-0.00059377,-0.00029366,-0.0
 0091583,0.00025375,-0.00034860,-0.00009799,-0.00004166,-0.00008642,-0.
 00001352,0.00012686,-0.00008260,0.00036904,0.00057162,0.12641176,0.002
 38132,-0.13495333,0.01491707,0.00184010,-0.01064832,-0.13808099,-0.007
 92649,0.14781531,0.00000687,0.00023046,0.00078396,0.00243581,-0.000189
 57,0.00058590,0.00016851,-0.00000652,0.00007183,-0.00030537,-0.0000131
 1,0.00005245,0.00019928,0.00000172,0.00010066,0.00023063,0.00007171,0.
 00015220,0.00014834,0.00041632,0.00008260,-0.00016969,-0.00004635,-0.0
 0008642,-0.21559750,0.00672268,-0.12552691,0.00113125,-0.00036823,0.00
 177111,-0.02175930,0.00059224,-0.01606837,0.23351117,-0.00053635,-0.00
 316976,0.00077946,0.02427581,-0.00025041,0.01753592,0.00062839,0.00007
 726,0.00016629,-0.00179704,0.00009996,0.00073256,0.00019136,0.00109924
 ,0.00021561,-0.00036246,0.00036333,-0.00008243,-0.00041632,-0.00060032
 ,-0.00036904,-0.00004635,-0.00001090,0.00001352,0.00778073,-0.04879718
 ,0.00367751,-0.02171421,0.00175168,-0.01391224,-0.00059224,-0.00063807
 ,-0.00083066,-0.00741134,0.05007517,0.00015820,0.00291513,0.00006056,-
 0.01433090,0.00187302,-0.01487962,-0.00116198,0.00010463,0.00018743,0.
 00170288,0.00030125,-0.00059377,0.00029366,-0.00091583,0.00025375,0.00
 034860,-0.00009799,-0.00004166,0.00008260,0.00036904,0.00057162,0.0000
 8642,-0.00001352,0.00012686,-0.12641176,0.00238132,-0.13495333,-0.0149
 1707,0.00184010,-0.01064832,0.01606837,-0.00083066,0.01210116,0.138080
 99,-0.00792649,0.14781531\\0.,0.,-0.00000052,0.,0.,-0.00000152,0.,-0.0
 0000060,0.00000032,0.,0.00000060,0.00000032,0.,0.00000054,0.00000182,0
 .,-0.00000130,-0.00000051,0.00000023,-0.00000037,-0.00000030,-0.000000
 23,-0.00000037,-0.00000030,0.,-0.00000054,0.00000182,0.,0.00000130,-0.
 00000051,-0.00000023,0.00000037,-0.00000030,0.00000023,0.00000037,-0.0
 0000030\\\@


 POCKETA-POCKETA
 BARON VON RICHTOFEN
 SLAUGHTERED THE ALLIES WITH
 HARDLY A CARE.
 KILLED EIGHTY-ONE WITH HIS
 BLOOD-COLORED TRIPLANE, THEN
 UN-AEROBATICALLY
 PLUNGED FROM THE AIR.
   -- TONY HOFFMAN
 Job cpu time:       0 days  0 hours 23 minutes 47.7 seconds.
 File lengths (MBytes):  RWF=     24 Int=      0 D2E=      0 Chk=      3 Scr=      1
 Normal termination of Gaussian 09 at Fri Jul  9 19:25:49 2021.
