 Entering Gaussian System, Link 0=g09
 Initial command:
 /home/minenky/programs//g09/l1.exe "/local/scratch/minenky/m1_00_120836-14-8-C32H16_wB97XD/Gau-398874.inp" -scrdir="/local/scratch/minenky/m1_00_120836-14-8-C32H16_wB97XD/"
 Entering Link 1 = /home/minenky/programs//g09/l1.exe PID=    398875.
  
 Copyright (c) 1988,1990,1992,1993,1995,1998,2003,2009,2013,
            Gaussian, Inc.  All Rights Reserved.
  
 This is part of the Gaussian(R) 09 program.  It is based on
 the Gaussian(R) 03 system (copyright 2003, Gaussian, Inc.),
 the Gaussian(R) 98 system (copyright 1998, Gaussian, Inc.),
 the Gaussian(R) 94 system (copyright 1995, Gaussian, Inc.),
 the Gaussian 92(TM) system (copyright 1992, Gaussian, Inc.),
 the Gaussian 90(TM) system (copyright 1990, Gaussian, Inc.),
 the Gaussian 88(TM) system (copyright 1988, Gaussian, Inc.),
 the Gaussian 86(TM) system (copyright 1986, Carnegie Mellon
 University), and the Gaussian 82(TM) system (copyright 1983,
 Carnegie Mellon University). Gaussian is a federally registered
 trademark of Gaussian, Inc.
  
 This software contains proprietary and confidential information,
 including trade secrets, belonging to Gaussian, Inc.
  
 This software is provided under written license and may be
 used, copied, transmitted, or stored only in accord with that
 written license.
  
 The following legend is applicable only to US Government
 contracts under FAR:
  
                    RESTRICTED RIGHTS LEGEND
  
 Use, reproduction and disclosure by the US Government is
 subject to restrictions as set forth in subparagraphs (a)
 and (c) of the Commercial Computer Software - Restricted
 Rights clause in FAR 52.227-19.
  
 Gaussian, Inc.
 340 Quinnipiac St., Bldg. 40, Wallingford CT 06492
  
  
 ---------------------------------------------------------------
 Warning -- This program may not be used in any manner that
 competes with the business of Gaussian, Inc. or will provide
 assistance to any competitor of Gaussian, Inc.  The licensee
 of this program is prohibited from giving any competitor of
 Gaussian, Inc. access to this program.  By using this program,
 the user acknowledges that Gaussian, Inc. is engaged in the
 business of creating and licensing software in the field of
 computational chemistry and represents and warrants to the
 licensee that it is not a competitor of Gaussian, Inc. and that
 it will not use this program in any manner prohibited above.
 ---------------------------------------------------------------
  

 Cite this work as:
 Gaussian 09, Revision D.01,
 M. J. Frisch, G. W. Trucks, H. B. Schlegel, G. E. Scuseria, 
 M. A. Robb, J. R. Cheeseman, G. Scalmani, V. Barone, B. Mennucci, 
 G. A. Petersson, H. Nakatsuji, M. Caricato, X. Li, H. P. Hratchian, 
 A. F. Izmaylov, J. Bloino, G. Zheng, J. L. Sonnenberg, M. Hada, 
 M. Ehara, K. Toyota, R. Fukuda, J. Hasegawa, M. Ishida, T. Nakajima, 
 Y. Honda, O. Kitao, H. Nakai, T. Vreven, J. A. Montgomery, Jr., 
 J. E. Peralta, F. Ogliaro, M. Bearpark, J. J. Heyd, E. Brothers, 
 K. N. Kudin, V. N. Staroverov, T. Keith, R. Kobayashi, J. Normand, 
 K. Raghavachari, A. Rendell, J. C. Burant, S. S. Iyengar, J. Tomasi, 
 M. Cossi, N. Rega, J. M. Millam, M. Klene, J. E. Knox, J. B. Cross, 
 V. Bakken, C. Adamo, J. Jaramillo, R. Gomperts, R. E. Stratmann, 
 O. Yazyev, A. J. Austin, R. Cammi, C. Pomelli, J. W. Ochterski, 
 R. L. Martin, K. Morokuma, V. G. Zakrzewski, G. A. Voth, 
 P. Salvador, J. J. Dannenberg, S. Dapprich, A. D. Daniels, 
 O. Farkas, J. B. Foresman, J. V. Ortiz, J. Cioslowski, 
 and D. J. Fox, Gaussian, Inc., Wallingford CT, 2013.
 
 ******************************************
 Gaussian 09:  AM64L-G09RevD.01 24-Apr-2013
                27-Jul-2019 
 ******************************************
 %Mem=32000MB
 %NProcShared=16
 Will use up to   16 processors via shared memory.
 %Chk=m1_00_120836-14-8-C32H16_wB97XD
 ----------------------------------------------------------------------
 #P wB97XD/def2tzvp opt=(tight) freq integral(Grid=ultrafine) # SCF(Max
 Cycle=380) 5d 7f GFPrint
 ----------------------------------------------------------------------
 1/7=10,14=-1,18=20,19=15,26=4,38=1/1,3;
 2/9=110,12=2,17=6,18=5,40=1/2;
 3/5=44,7=101,8=11,11=2,16=1,24=100,25=1,30=1,71=1,74=-58,75=-5/1,2,3;
 4//1;
 5/5=2,7=380,38=5/2;
 6/7=2,8=2,9=2,10=2,28=1/1;
 7//1,2,3,16;
 1/7=10,14=-1,18=20,19=15,26=4/3(2);
 2/9=110/2;
 99//99;
 2/9=110/2;
 3/5=44,7=101,8=11,11=2,16=1,25=1,30=1,71=1,74=-58,75=-5/1,2,3;
 4/5=5,16=3,69=1/1;
 5/5=2,7=380,38=5/2;
 7//1,2,3,16;
 1/7=10,14=-1,18=20,19=15,26=4/3(-5);
 2/9=110/2;
 6/7=2,8=2,9=2,10=2,19=2,28=1/1;
 99/9=1/99;
 Leave Link    1 at Sat Jul 27 13:55:29 2019, MaxMem=  4194304000 cpu:         1.5
 (Enter /home/minenky/programs//g09/l101.exe)
 ---------------------------------------
 The PBEPBE optimization and frequencies
 ---------------------------------------
 Symbolic Z-matrix:
 Charge =  0 Multiplicity = 1
 C                     6.19925  -0.99748   0. 
 C                     6.59442   0.35286   0. 
 C                     5.66142   1.36099   0. 
 C                     4.27698   1.05686   0. 
 C                     3.29473   2.07861   0. 
 C                     1.94953   1.76577   0. 
 C                     0.93626   2.78921   0. 
 C                    -0.38895   2.4731    0. 
 C                    -1.41499   3.50113   0. 
 C                    -2.72294   3.18935   0. 
 C                    -3.17846   1.81005   0. 
 C                    -4.50715   1.50007   0. 
 C                    -2.18624   0.76299   0. 
 C                    -2.58665  -0.59389   0. 
 C                    -1.6168   -1.60217   0. 
 C                    -0.81864   1.09079   0. 
 C                     0.1493    0.06782   0. 
 C                    -0.25519  -1.29394   0. 
 C                     0.74355  -2.31878   0. 
 C                     1.53763   0.39515   0. 
 C                     2.4945   -0.62623   0. 
 C                     2.07606  -2.00346   0. 
 C                     3.1035   -3.02677   0. 
 C                     4.41305  -2.71016   0. 
 C                     4.85796  -1.33123   0. 
 C                     3.87594  -0.29883   0. 
 C                    -4.00011  -0.90871   0. 
 C                    -4.9434    0.13496   0. 
 C                    -6.32192  -0.17274   0. 
 C                    -6.74263  -1.48317   0. 
 C                    -5.80238  -2.52647   0. 
 C                    -4.45524  -2.24405   0. 
 H                     6.96321  -1.78309   0. 
 H                     7.66303   0.5929    0. 
 H                     5.97462   2.41116   0. 
 H                     3.61873   3.12664   0. 
 H                     1.26193   3.83692   0. 
 H                    -1.08333   4.54609   0. 
 H                    -3.48968   3.97305   0. 
 H                    -5.26766   2.29087   0. 
 H                    -1.94643  -2.65379   0. 
 H                     0.41767  -3.36621   0. 
 H                     2.77598  -4.07295   0. 
 H                     5.18287  -3.49058   0. 
 H                    -7.05173   0.64495   0. 
 H                    -7.81143  -1.72082   0. 
 H                    -6.14856  -3.56516   0. 
 H                    -3.70706  -3.05158   0. 
 
 NAtoms=     48 NQM=       48 NQMF=       0 NMMI=      0 NMMIF=      0
                NMic=       0 NMicF=      0.
                    Isotopes and Nuclear Properties:
 (Nuclear quadrupole moments (NQMom) in fm**2, nuclear magnetic moments (NMagM)
  in nuclear magnetons)

  Atom         1           2           3           4           5           6           7           8           9          10
 IAtWgt=          12          12          12          12          12          12          12          12          12          12
 AtmWgt=  12.0000000  12.0000000  12.0000000  12.0000000  12.0000000  12.0000000  12.0000000  12.0000000  12.0000000  12.0000000
 NucSpn=           0           0           0           0           0           0           0           0           0           0
 AtZEff=   0.0000000   0.0000000   0.0000000   0.0000000   0.0000000   0.0000000   0.0000000   0.0000000   0.0000000   0.0000000
 NQMom=    0.0000000   0.0000000   0.0000000   0.0000000   0.0000000   0.0000000   0.0000000   0.0000000   0.0000000   0.0000000
 NMagM=    0.0000000   0.0000000   0.0000000   0.0000000   0.0000000   0.0000000   0.0000000   0.0000000   0.0000000   0.0000000
 AtZNuc=   6.0000000   6.0000000   6.0000000   6.0000000   6.0000000   6.0000000   6.0000000   6.0000000   6.0000000   6.0000000

  Atom        11          12          13          14          15          16          17          18          19          20
 IAtWgt=          12          12          12          12          12          12          12          12          12          12
 AtmWgt=  12.0000000  12.0000000  12.0000000  12.0000000  12.0000000  12.0000000  12.0000000  12.0000000  12.0000000  12.0000000
 NucSpn=           0           0           0           0           0           0           0           0           0           0
 AtZEff=   0.0000000   0.0000000   0.0000000   0.0000000   0.0000000   0.0000000   0.0000000   0.0000000   0.0000000   0.0000000
 NQMom=    0.0000000   0.0000000   0.0000000   0.0000000   0.0000000   0.0000000   0.0000000   0.0000000   0.0000000   0.0000000
 NMagM=    0.0000000   0.0000000   0.0000000   0.0000000   0.0000000   0.0000000   0.0000000   0.0000000   0.0000000   0.0000000
 AtZNuc=   6.0000000   6.0000000   6.0000000   6.0000000   6.0000000   6.0000000   6.0000000   6.0000000   6.0000000   6.0000000

  Atom        21          22          23          24          25          26          27          28          29          30
 IAtWgt=          12          12          12          12          12          12          12          12          12          12
 AtmWgt=  12.0000000  12.0000000  12.0000000  12.0000000  12.0000000  12.0000000  12.0000000  12.0000000  12.0000000  12.0000000
 NucSpn=           0           0           0           0           0           0           0           0           0           0
 AtZEff=   0.0000000   0.0000000   0.0000000   0.0000000   0.0000000   0.0000000   0.0000000   0.0000000   0.0000000   0.0000000
 NQMom=    0.0000000   0.0000000   0.0000000   0.0000000   0.0000000   0.0000000   0.0000000   0.0000000   0.0000000   0.0000000
 NMagM=    0.0000000   0.0000000   0.0000000   0.0000000   0.0000000   0.0000000   0.0000000   0.0000000   0.0000000   0.0000000
 AtZNuc=   6.0000000   6.0000000   6.0000000   6.0000000   6.0000000   6.0000000   6.0000000   6.0000000   6.0000000   6.0000000

  Atom        31          32          33          34          35          36          37          38          39          40
 IAtWgt=          12          12           1           1           1           1           1           1           1           1
 AtmWgt=  12.0000000  12.0000000   1.0078250   1.0078250   1.0078250   1.0078250   1.0078250   1.0078250   1.0078250   1.0078250
 NucSpn=           0           0           1           1           1           1           1           1           1           1
 AtZEff=   0.0000000   0.0000000   0.0000000   0.0000000   0.0000000   0.0000000   0.0000000   0.0000000   0.0000000   0.0000000
 NQMom=    0.0000000   0.0000000   0.0000000   0.0000000   0.0000000   0.0000000   0.0000000   0.0000000   0.0000000   0.0000000
 NMagM=    0.0000000   0.0000000   2.7928460   2.7928460   2.7928460   2.7928460   2.7928460   2.7928460   2.7928460   2.7928460
 AtZNuc=   6.0000000   6.0000000   1.0000000   1.0000000   1.0000000   1.0000000   1.0000000   1.0000000   1.0000000   1.0000000

  Atom        41          42          43          44          45          46          47          48
 IAtWgt=           1           1           1           1           1           1           1           1
 AtmWgt=   1.0078250   1.0078250   1.0078250   1.0078250   1.0078250   1.0078250   1.0078250   1.0078250
 NucSpn=           1           1           1           1           1           1           1           1
 AtZEff=   0.0000000   0.0000000   0.0000000   0.0000000   0.0000000   0.0000000   0.0000000   0.0000000
 NQMom=    0.0000000   0.0000000   0.0000000   0.0000000   0.0000000   0.0000000   0.0000000   0.0000000
 NMagM=    2.7928460   2.7928460   2.7928460   2.7928460   2.7928460   2.7928460   2.7928460   2.7928460
 AtZNuc=   1.0000000   1.0000000   1.0000000   1.0000000   1.0000000   1.0000000   1.0000000   1.0000000
 Leave Link  101 at Sat Jul 27 13:55:29 2019, MaxMem=  4194304000 cpu:         4.3
 (Enter /home/minenky/programs//g09/l103.exe)

 GradGradGradGradGradGradGradGradGradGradGradGradGradGradGradGradGradGrad
 Berny optimization.
 Initialization pass.
                           ----------------------------
                           !    Initial Parameters    !
                           ! (Angstroms and Degrees)  !
 --------------------------                            --------------------------
 ! Name  Definition              Value          Derivative Info.                !
 --------------------------------------------------------------------------------
 ! R1    R(1,2)                  1.407          estimate D2E/DX2                !
 ! R2    R(1,25)                 1.3822         estimate D2E/DX2                !
 ! R3    R(1,33)                 1.0958         estimate D2E/DX2                !
 ! R4    R(2,3)                  1.3736         estimate D2E/DX2                !
 ! R5    R(2,34)                 1.0952         estimate D2E/DX2                !
 ! R6    R(3,4)                  1.4174         estimate D2E/DX2                !
 ! R7    R(3,35)                 1.0959         estimate D2E/DX2                !
 ! R8    R(4,5)                  1.4173         estimate D2E/DX2                !
 ! R9    R(4,26)                 1.4138         estimate D2E/DX2                !
 ! R10   R(5,6)                  1.3811         estimate D2E/DX2                !
 ! R11   R(5,36)                 1.097          estimate D2E/DX2                !
 ! R12   R(6,7)                  1.4402         estimate D2E/DX2                !
 ! R13   R(6,20)                 1.4312         estimate D2E/DX2                !
 ! R14   R(7,8)                  1.3624         estimate D2E/DX2                !
 ! R15   R(7,37)                 1.0972         estimate D2E/DX2                !
 ! R16   R(8,9)                  1.4525         estimate D2E/DX2                !
 ! R17   R(8,16)                 1.4475         estimate D2E/DX2                !
 ! R18   R(9,10)                 1.3446         estimate D2E/DX2                !
 ! R19   R(9,38)                 1.0963         estimate D2E/DX2                !
 ! R20   R(10,11)                1.4526         estimate D2E/DX2                !
 ! R21   R(10,39)                1.0964         estimate D2E/DX2                !
 ! R22   R(11,12)                1.3644         estimate D2E/DX2                !
 ! R23   R(11,13)                1.4425         estimate D2E/DX2                !
 ! R24   R(12,28)                1.4331         estimate D2E/DX2                !
 ! R25   R(12,40)                1.0972         estimate D2E/DX2                !
 ! R26   R(13,14)                1.4147         estimate D2E/DX2                !
 ! R27   R(13,16)                1.4063         estimate D2E/DX2                !
 ! R28   R(14,15)                1.399          estimate D2E/DX2                !
 ! R29   R(14,27)                1.4481         estimate D2E/DX2                !
 ! R30   R(15,18)                1.3961         estimate D2E/DX2                !
 ! R31   R(15,41)                1.1021         estimate D2E/DX2                !
 ! R32   R(16,17)                1.4083         estimate D2E/DX2                !
 ! R33   R(17,18)                1.4206         estimate D2E/DX2                !
 ! R34   R(17,20)                1.4264         estimate D2E/DX2                !
 ! R35   R(18,19)                1.431          estimate D2E/DX2                !
 ! R36   R(19,22)                1.3693         estimate D2E/DX2                !
 ! R37   R(19,42)                1.0969         estimate D2E/DX2                !
 ! R38   R(20,21)                1.3996         estimate D2E/DX2                !
 ! R39   R(21,22)                1.4394         estimate D2E/DX2                !
 ! R40   R(21,26)                1.4197         estimate D2E/DX2                !
 ! R41   R(22,23)                1.4501         estimate D2E/DX2                !
 ! R42   R(23,24)                1.3473         estimate D2E/DX2                !
 ! R43   R(23,43)                1.0962         estimate D2E/DX2                !
 ! R44   R(24,25)                1.4489         estimate D2E/DX2                !
 ! R45   R(24,44)                1.0962         estimate D2E/DX2                !
 ! R46   R(25,26)                1.4249         estimate D2E/DX2                !
 ! R47   R(27,28)                1.4068         estimate D2E/DX2                !
 ! R48   R(27,32)                1.4108         estimate D2E/DX2                !
 ! R49   R(28,29)                1.4124         estimate D2E/DX2                !
 ! R50   R(29,30)                1.3763         estimate D2E/DX2                !
 ! R51   R(29,45)                1.096          estimate D2E/DX2                !
 ! R52   R(30,31)                1.4045         estimate D2E/DX2                !
 ! R53   R(30,46)                1.0949         estimate D2E/DX2                !
 ! R54   R(31,32)                1.3764         estimate D2E/DX2                !
 ! R55   R(31,47)                1.0949         estimate D2E/DX2                !
 ! R56   R(32,48)                1.1009         estimate D2E/DX2                !
 ! A1    A(2,1,25)             120.2851         estimate D2E/DX2                !
 ! A2    A(2,1,33)             119.4884         estimate D2E/DX2                !
 ! A3    A(25,1,33)            120.2265         estimate D2E/DX2                !
 ! A4    A(1,2,3)              120.9043         estimate D2E/DX2                !
 ! A5    A(1,2,34)             118.9717         estimate D2E/DX2                !
 ! A6    A(3,2,34)             120.124          estimate D2E/DX2                !
 ! A7    A(2,3,4)              120.3941         estimate D2E/DX2                !
 ! A8    A(2,3,35)             120.6096         estimate D2E/DX2                !
 ! A9    A(4,3,35)             118.9963         estimate D2E/DX2                !
 ! A10   A(3,4,5)              121.4811         estimate D2E/DX2                !
 ! A11   A(3,4,26)             118.869          estimate D2E/DX2                !
 ! A12   A(5,4,26)             119.6499         estimate D2E/DX2                !
 ! A13   A(4,5,6)              120.7787         estimate D2E/DX2                !
 ! A14   A(4,5,36)             118.9501         estimate D2E/DX2                !
 ! A15   A(6,5,36)             120.2711         estimate D2E/DX2                !
 ! A16   A(5,6,7)              121.6217         estimate D2E/DX2                !
 ! A17   A(5,6,20)             119.8189         estimate D2E/DX2                !
 ! A18   A(7,6,20)             118.5594         estimate D2E/DX2                !
 ! A19   A(6,7,8)              121.2971         estimate D2E/DX2                !
 ! A20   A(6,7,37)             118.0191         estimate D2E/DX2                !
 ! A21   A(8,7,37)             120.6839         estimate D2E/DX2                !
 ! A22   A(7,8,9)              121.5276         estimate D2E/DX2                !
 ! A23   A(7,8,16)             120.6846         estimate D2E/DX2                !
 ! A24   A(9,8,16)             117.7878         estimate D2E/DX2                !
 ! A25   A(8,9,10)             121.5368         estimate D2E/DX2                !
 ! A26   A(8,9,38)             117.4468         estimate D2E/DX2                !
 ! A27   A(10,9,38)            121.0165         estimate D2E/DX2                !
 ! A28   A(9,10,11)            121.6836         estimate D2E/DX2                !
 ! A29   A(9,10,39)            120.966          estimate D2E/DX2                !
 ! A30   A(11,10,39)           117.3504         estimate D2E/DX2                !
 ! A31   A(10,11,12)           121.4083         estimate D2E/DX2                !
 ! A32   A(10,11,13)           118.2646         estimate D2E/DX2                !
 ! A33   A(12,11,13)           120.3271         estimate D2E/DX2                !
 ! A34   A(11,12,28)           120.855          estimate D2E/DX2                !
 ! A35   A(11,12,40)           120.7491         estimate D2E/DX2                !
 ! A36   A(28,12,40)           118.3959         estimate D2E/DX2                !
 ! A37   A(11,13,14)           120.0997         estimate D2E/DX2                !
 ! A38   A(11,13,16)           119.9802         estimate D2E/DX2                !
 ! A39   A(14,13,16)           119.9201         estimate D2E/DX2                !
 ! A40   A(13,14,15)           119.6722         estimate D2E/DX2                !
 ! A41   A(13,14,27)           118.9975         estimate D2E/DX2                !
 ! A42   A(15,14,27)           121.3303         estimate D2E/DX2                !
 ! A43   A(14,15,18)           121.1315         estimate D2E/DX2                !
 ! A44   A(14,15,41)           118.709          estimate D2E/DX2                !
 ! A45   A(18,15,41)           120.1595         estimate D2E/DX2                !
 ! A46   A(8,16,13)            120.7471         estimate D2E/DX2                !
 ! A47   A(8,16,17)            119.3156         estimate D2E/DX2                !
 ! A48   A(13,16,17)           119.9374         estimate D2E/DX2                !
 ! A49   A(16,17,18)           120.0403         estimate D2E/DX2                !
 ! A50   A(16,17,20)           120.1502         estimate D2E/DX2                !
 ! A51   A(18,17,20)           119.8095         estimate D2E/DX2                !
 ! A52   A(15,18,17)           119.2986         estimate D2E/DX2                !
 ! A53   A(15,18,19)           121.5054         estimate D2E/DX2                !
 ! A54   A(17,18,19)           119.196          estimate D2E/DX2                !
 ! A55   A(18,19,22)           120.9475         estimate D2E/DX2                !
 ! A56   A(18,19,42)           118.4573         estimate D2E/DX2                !
 ! A57   A(22,19,42)           120.5952         estimate D2E/DX2                !
 ! A58   A(6,20,17)            119.9932         estimate D2E/DX2                !
 ! A59   A(6,20,21)            120.1405         estimate D2E/DX2                !
 ! A60   A(17,20,21)           119.8663         estimate D2E/DX2                !
 ! A61   A(20,21,22)           119.9671         estimate D2E/DX2                !
 ! A62   A(20,21,26)           119.7997         estimate D2E/DX2                !
 ! A63   A(22,21,26)           120.2332         estimate D2E/DX2                !
 ! A64   A(19,22,21)           120.2136         estimate D2E/DX2                !
 ! A65   A(19,22,23)           121.8021         estimate D2E/DX2                !
 ! A66   A(21,22,23)           117.9843         estimate D2E/DX2                !
 ! A67   A(22,23,24)           121.5237         estimate D2E/DX2                !
 ! A68   A(22,23,43)           117.5009         estimate D2E/DX2                !
 ! A69   A(24,23,43)           120.9753         estimate D2E/DX2                !
 ! A70   A(23,24,25)           121.4739         estimate D2E/DX2                !
 ! A71   A(23,24,44)           121.0168         estimate D2E/DX2                !
 ! A72   A(25,24,44)           117.5094         estimate D2E/DX2                !
 ! A73   A(1,25,24)            121.8554         estimate D2E/DX2                !
 ! A74   A(1,25,26)            119.594          estimate D2E/DX2                !
 ! A75   A(24,25,26)           118.5506         estimate D2E/DX2                !
 ! A76   A(4,26,21)            119.8123         estimate D2E/DX2                !
 ! A77   A(4,26,25)            119.9534         estimate D2E/DX2                !
 ! A78   A(21,26,25)           120.2343         estimate D2E/DX2                !
 ! A79   A(14,27,28)           119.5516         estimate D2E/DX2                !
 ! A80   A(14,27,32)           121.3779         estimate D2E/DX2                !
 ! A81   A(28,27,32)           119.0706         estimate D2E/DX2                !
 ! A82   A(12,28,27)           120.1691         estimate D2E/DX2                !
 ! A83   A(12,28,29)           120.3056         estimate D2E/DX2                !
 ! A84   A(27,28,29)           119.5253         estimate D2E/DX2                !
 ! A85   A(28,29,30)           120.3823         estimate D2E/DX2                !
 ! A86   A(28,29,45)           119.1671         estimate D2E/DX2                !
 ! A87   A(30,29,45)           120.4507         estimate D2E/DX2                !
 ! A88   A(29,30,31)           120.1747         estimate D2E/DX2                !
 ! A89   A(29,30,46)           120.3353         estimate D2E/DX2                !
 ! A90   A(31,30,46)           119.4899         estimate D2E/DX2                !
 ! A91   A(30,31,32)           120.1855         estimate D2E/DX2                !
 ! A92   A(30,31,47)           119.5419         estimate D2E/DX2                !
 ! A93   A(32,31,47)           120.2726         estimate D2E/DX2                !
 ! A94   A(27,32,31)           120.6616         estimate D2E/DX2                !
 ! A95   A(27,32,48)           118.3635         estimate D2E/DX2                !
 ! A96   A(31,32,48)           120.975          estimate D2E/DX2                !
 ! D1    D(25,1,2,3)             0.0            estimate D2E/DX2                !
 ! D2    D(25,1,2,34)          180.0            estimate D2E/DX2                !
 ! D3    D(33,1,2,3)           180.0            estimate D2E/DX2                !
 ! D4    D(33,1,2,34)            0.0            estimate D2E/DX2                !
 ! D5    D(2,1,25,24)          180.0            estimate D2E/DX2                !
 ! D6    D(2,1,25,26)            0.0            estimate D2E/DX2                !
 ! D7    D(33,1,25,24)           0.0            estimate D2E/DX2                !
 ! D8    D(33,1,25,26)         180.0            estimate D2E/DX2                !
 ! D9    D(1,2,3,4)              0.0            estimate D2E/DX2                !
 ! D10   D(1,2,3,35)           180.0            estimate D2E/DX2                !
 ! D11   D(34,2,3,4)           180.0            estimate D2E/DX2                !
 ! D12   D(34,2,3,35)            0.0            estimate D2E/DX2                !
 ! D13   D(2,3,4,5)            180.0            estimate D2E/DX2                !
 ! D14   D(2,3,4,26)             0.0            estimate D2E/DX2                !
 ! D15   D(35,3,4,5)             0.0            estimate D2E/DX2                !
 ! D16   D(35,3,4,26)          180.0            estimate D2E/DX2                !
 ! D17   D(3,4,5,6)            180.0            estimate D2E/DX2                !
 ! D18   D(3,4,5,36)             0.0            estimate D2E/DX2                !
 ! D19   D(26,4,5,6)             0.0            estimate D2E/DX2                !
 ! D20   D(26,4,5,36)          180.0            estimate D2E/DX2                !
 ! D21   D(3,4,26,21)          180.0            estimate D2E/DX2                !
 ! D22   D(3,4,26,25)            0.0            estimate D2E/DX2                !
 ! D23   D(5,4,26,21)            0.0            estimate D2E/DX2                !
 ! D24   D(5,4,26,25)          180.0            estimate D2E/DX2                !
 ! D25   D(4,5,6,7)            180.0            estimate D2E/DX2                !
 ! D26   D(4,5,6,20)             0.0            estimate D2E/DX2                !
 ! D27   D(36,5,6,7)             0.0            estimate D2E/DX2                !
 ! D28   D(36,5,6,20)          180.0            estimate D2E/DX2                !
 ! D29   D(5,6,7,8)            180.0            estimate D2E/DX2                !
 ! D30   D(5,6,7,37)             0.0            estimate D2E/DX2                !
 ! D31   D(20,6,7,8)             0.0            estimate D2E/DX2                !
 ! D32   D(20,6,7,37)          180.0            estimate D2E/DX2                !
 ! D33   D(5,6,20,17)          180.0            estimate D2E/DX2                !
 ! D34   D(5,6,20,21)            0.0            estimate D2E/DX2                !
 ! D35   D(7,6,20,17)            0.0            estimate D2E/DX2                !
 ! D36   D(7,6,20,21)          180.0            estimate D2E/DX2                !
 ! D37   D(6,7,8,9)            180.0            estimate D2E/DX2                !
 ! D38   D(6,7,8,16)             0.0            estimate D2E/DX2                !
 ! D39   D(37,7,8,9)             0.0            estimate D2E/DX2                !
 ! D40   D(37,7,8,16)          180.0            estimate D2E/DX2                !
 ! D41   D(7,8,9,10)           180.0            estimate D2E/DX2                !
 ! D42   D(7,8,9,38)             0.0            estimate D2E/DX2                !
 ! D43   D(16,8,9,10)            0.0            estimate D2E/DX2                !
 ! D44   D(16,8,9,38)          180.0            estimate D2E/DX2                !
 ! D45   D(7,8,16,13)          180.0            estimate D2E/DX2                !
 ! D46   D(7,8,16,17)            0.0            estimate D2E/DX2                !
 ! D47   D(9,8,16,13)            0.0            estimate D2E/DX2                !
 ! D48   D(9,8,16,17)          180.0            estimate D2E/DX2                !
 ! D49   D(8,9,10,11)            0.0            estimate D2E/DX2                !
 ! D50   D(8,9,10,39)          180.0            estimate D2E/DX2                !
 ! D51   D(38,9,10,11)         180.0            estimate D2E/DX2                !
 ! D52   D(38,9,10,39)           0.0            estimate D2E/DX2                !
 ! D53   D(9,10,11,12)         180.0            estimate D2E/DX2                !
 ! D54   D(9,10,11,13)           0.0            estimate D2E/DX2                !
 ! D55   D(39,10,11,12)          0.0            estimate D2E/DX2                !
 ! D56   D(39,10,11,13)        180.0            estimate D2E/DX2                !
 ! D57   D(10,11,12,28)        180.0            estimate D2E/DX2                !
 ! D58   D(10,11,12,40)          0.0            estimate D2E/DX2                !
 ! D59   D(13,11,12,28)          0.0            estimate D2E/DX2                !
 ! D60   D(13,11,12,40)        180.0            estimate D2E/DX2                !
 ! D61   D(10,11,13,14)        180.0            estimate D2E/DX2                !
 ! D62   D(10,11,13,16)          0.0            estimate D2E/DX2                !
 ! D63   D(12,11,13,14)          0.0            estimate D2E/DX2                !
 ! D64   D(12,11,13,16)        180.0            estimate D2E/DX2                !
 ! D65   D(11,12,28,27)          0.0            estimate D2E/DX2                !
 ! D66   D(11,12,28,29)        180.0            estimate D2E/DX2                !
 ! D67   D(40,12,28,27)        180.0            estimate D2E/DX2                !
 ! D68   D(40,12,28,29)          0.0            estimate D2E/DX2                !
 ! D69   D(11,13,14,15)        180.0            estimate D2E/DX2                !
 ! D70   D(11,13,14,27)          0.0            estimate D2E/DX2                !
 ! D71   D(16,13,14,15)          0.0            estimate D2E/DX2                !
 ! D72   D(16,13,14,27)        180.0            estimate D2E/DX2                !
 ! D73   D(11,13,16,8)           0.0            estimate D2E/DX2                !
 ! D74   D(11,13,16,17)        180.0            estimate D2E/DX2                !
 ! D75   D(14,13,16,8)         180.0            estimate D2E/DX2                !
 ! D76   D(14,13,16,17)          0.0            estimate D2E/DX2                !
 ! D77   D(13,14,15,18)          0.0            estimate D2E/DX2                !
 ! D78   D(13,14,15,41)        180.0            estimate D2E/DX2                !
 ! D79   D(27,14,15,18)        180.0            estimate D2E/DX2                !
 ! D80   D(27,14,15,41)          0.0            estimate D2E/DX2                !
 ! D81   D(13,14,27,28)          0.0            estimate D2E/DX2                !
 ! D82   D(13,14,27,32)        180.0            estimate D2E/DX2                !
 ! D83   D(15,14,27,28)        180.0            estimate D2E/DX2                !
 ! D84   D(15,14,27,32)          0.0            estimate D2E/DX2                !
 ! D85   D(14,15,18,17)          0.0            estimate D2E/DX2                !
 ! D86   D(14,15,18,19)        180.0            estimate D2E/DX2                !
 ! D87   D(41,15,18,17)        180.0            estimate D2E/DX2                !
 ! D88   D(41,15,18,19)          0.0            estimate D2E/DX2                !
 ! D89   D(8,16,17,18)         180.0            estimate D2E/DX2                !
 ! D90   D(8,16,17,20)           0.0            estimate D2E/DX2                !
 ! D91   D(13,16,17,18)          0.0            estimate D2E/DX2                !
 ! D92   D(13,16,17,20)        180.0            estimate D2E/DX2                !
 ! D93   D(16,17,18,15)          0.0            estimate D2E/DX2                !
 ! D94   D(16,17,18,19)        180.0            estimate D2E/DX2                !
 ! D95   D(20,17,18,15)        180.0            estimate D2E/DX2                !
 ! D96   D(20,17,18,19)          0.0            estimate D2E/DX2                !
 ! D97   D(16,17,20,6)           0.0            estimate D2E/DX2                !
 ! D98   D(16,17,20,21)        180.0            estimate D2E/DX2                !
 ! D99   D(18,17,20,6)         180.0            estimate D2E/DX2                !
 ! D100  D(18,17,20,21)          0.0            estimate D2E/DX2                !
 ! D101  D(15,18,19,22)        180.0            estimate D2E/DX2                !
 ! D102  D(15,18,19,42)          0.0            estimate D2E/DX2                !
 ! D103  D(17,18,19,22)          0.0            estimate D2E/DX2                !
 ! D104  D(17,18,19,42)        180.0            estimate D2E/DX2                !
 ! D105  D(18,19,22,21)          0.0            estimate D2E/DX2                !
 ! D106  D(18,19,22,23)        180.0            estimate D2E/DX2                !
 ! D107  D(42,19,22,21)        180.0            estimate D2E/DX2                !
 ! D108  D(42,19,22,23)          0.0            estimate D2E/DX2                !
 ! D109  D(6,20,21,22)         180.0            estimate D2E/DX2                !
 ! D110  D(6,20,21,26)           0.0            estimate D2E/DX2                !
 ! D111  D(17,20,21,22)          0.0            estimate D2E/DX2                !
 ! D112  D(17,20,21,26)        180.0            estimate D2E/DX2                !
 ! D113  D(20,21,22,19)          0.0            estimate D2E/DX2                !
 ! D114  D(20,21,22,23)        180.0            estimate D2E/DX2                !
 ! D115  D(26,21,22,19)        180.0            estimate D2E/DX2                !
 ! D116  D(26,21,22,23)          0.0            estimate D2E/DX2                !
 ! D117  D(20,21,26,4)           0.0            estimate D2E/DX2                !
 ! D118  D(20,21,26,25)        180.0            estimate D2E/DX2                !
 ! D119  D(22,21,26,4)         180.0            estimate D2E/DX2                !
 ! D120  D(22,21,26,25)          0.0            estimate D2E/DX2                !
 ! D121  D(19,22,23,24)        180.0            estimate D2E/DX2                !
 ! D122  D(19,22,23,43)          0.0            estimate D2E/DX2                !
 ! D123  D(21,22,23,24)          0.0            estimate D2E/DX2                !
 ! D124  D(21,22,23,43)        180.0            estimate D2E/DX2                !
 ! D125  D(22,23,24,25)          0.0            estimate D2E/DX2                !
 ! D126  D(22,23,24,44)        180.0            estimate D2E/DX2                !
 ! D127  D(43,23,24,25)        180.0            estimate D2E/DX2                !
 ! D128  D(43,23,24,44)          0.0            estimate D2E/DX2                !
 ! D129  D(23,24,25,1)         180.0            estimate D2E/DX2                !
 ! D130  D(23,24,25,26)          0.0            estimate D2E/DX2                !
 ! D131  D(44,24,25,1)           0.0            estimate D2E/DX2                !
 ! D132  D(44,24,25,26)        180.0            estimate D2E/DX2                !
 ! D133  D(1,25,26,4)            0.0            estimate D2E/DX2                !
 ! D134  D(1,25,26,21)         180.0            estimate D2E/DX2                !
 ! D135  D(24,25,26,4)         180.0            estimate D2E/DX2                !
 ! D136  D(24,25,26,21)          0.0            estimate D2E/DX2                !
 ! D137  D(14,27,28,12)          0.0            estimate D2E/DX2                !
 ! D138  D(14,27,28,29)        180.0            estimate D2E/DX2                !
 ! D139  D(32,27,28,12)        180.0            estimate D2E/DX2                !
 ! D140  D(32,27,28,29)          0.0            estimate D2E/DX2                !
 ! D141  D(14,27,32,31)        180.0            estimate D2E/DX2                !
 ! D142  D(14,27,32,48)          0.0            estimate D2E/DX2                !
 ! D143  D(28,27,32,31)          0.0            estimate D2E/DX2                !
 ! D144  D(28,27,32,48)        180.0            estimate D2E/DX2                !
 ! D145  D(12,28,29,30)        180.0            estimate D2E/DX2                !
 ! D146  D(12,28,29,45)          0.0            estimate D2E/DX2                !
 ! D147  D(27,28,29,30)          0.0            estimate D2E/DX2                !
 ! D148  D(27,28,29,45)        180.0            estimate D2E/DX2                !
 ! D149  D(28,29,30,31)          0.0            estimate D2E/DX2                !
 ! D150  D(28,29,30,46)        180.0            estimate D2E/DX2                !
 ! D151  D(45,29,30,31)        180.0            estimate D2E/DX2                !
 ! D152  D(45,29,30,46)          0.0            estimate D2E/DX2                !
 ! D153  D(29,30,31,32)          0.0            estimate D2E/DX2                !
 ! D154  D(29,30,31,47)        180.0            estimate D2E/DX2                !
 ! D155  D(46,30,31,32)        180.0            estimate D2E/DX2                !
 ! D156  D(46,30,31,47)          0.0            estimate D2E/DX2                !
 ! D157  D(30,31,32,27)          0.0            estimate D2E/DX2                !
 ! D158  D(30,31,32,48)        180.0            estimate D2E/DX2                !
 ! D159  D(47,31,32,27)        180.0            estimate D2E/DX2                !
 ! D160  D(47,31,32,48)          0.0            estimate D2E/DX2                !
 --------------------------------------------------------------------------------
 Trust Radius=3.00D-01 FncErr=1.00D-07 GrdErr=1.00D-06
 Number of steps in this run=    288 maximum allowed number of steps=    288.
 GradGradGradGradGradGradGradGradGradGradGradGradGradGradGradGradGradGrad

 Leave Link  103 at Sat Jul 27 13:55:29 2019, MaxMem=  4194304000 cpu:         0.1
 (Enter /home/minenky/programs//g09/l202.exe)
                          Input orientation:                          
 ---------------------------------------------------------------------
 Center     Atomic      Atomic             Coordinates (Angstroms)
 Number     Number       Type             X           Y           Z
 ---------------------------------------------------------------------
      1          6           0        6.199246   -0.997479    0.000000
      2          6           0        6.594418    0.352864    0.000000
      3          6           0        5.661416    1.360986    0.000000
      4          6           0        4.276981    1.056860    0.000000
      5          6           0        3.294733    2.078610    0.000000
      6          6           0        1.949532    1.765769    0.000000
      7          6           0        0.936263    2.789214    0.000000
      8          6           0       -0.388953    2.473096    0.000000
      9          6           0       -1.414992    3.501131    0.000000
     10          6           0       -2.722938    3.189352    0.000000
     11          6           0       -3.178458    1.810052    0.000000
     12          6           0       -4.507147    1.500067    0.000000
     13          6           0       -2.186242    0.762988    0.000000
     14          6           0       -2.586645   -0.593889    0.000000
     15          6           0       -1.616795   -1.602173    0.000000
     16          6           0       -0.818643    1.090794    0.000000
     17          6           0        0.149297    0.067818    0.000000
     18          6           0       -0.255189   -1.293937    0.000000
     19          6           0        0.743548   -2.318781    0.000000
     20          6           0        1.537626    0.395145    0.000000
     21          6           0        2.494501   -0.626227    0.000000
     22          6           0        2.076058   -2.003461    0.000000
     23          6           0        3.103502   -3.026773    0.000000
     24          6           0        4.413050   -2.710161    0.000000
     25          6           0        4.857958   -1.331233    0.000000
     26          6           0        3.875939   -0.298830    0.000000
     27          6           0       -4.000106   -0.908712    0.000000
     28          6           0       -4.943404    0.134957    0.000000
     29          6           0       -6.321916   -0.172744    0.000000
     30          6           0       -6.742632   -1.483168    0.000000
     31          6           0       -5.802384   -2.526470    0.000000
     32          6           0       -4.455243   -2.244048    0.000000
     33          1           0        6.963214   -1.783092    0.000000
     34          1           0        7.663030    0.592899    0.000000
     35          1           0        5.974620    2.411162    0.000000
     36          1           0        3.618733    3.126639    0.000000
     37          1           0        1.261929    3.836918    0.000000
     38          1           0       -1.083334    4.546087    0.000000
     39          1           0       -3.489683    3.973048    0.000000
     40          1           0       -5.267662    2.290873    0.000000
     41          1           0       -1.946433   -2.653788    0.000000
     42          1           0        0.417675   -3.366207    0.000000
     43          1           0        2.775978   -4.072951    0.000000
     44          1           0        5.182875   -3.490579    0.000000
     45          1           0       -7.051734    0.644950    0.000000
     46          1           0       -7.811427   -1.720817    0.000000
     47          1           0       -6.148558   -3.565158    0.000000
     48          1           0       -3.707063   -3.051575    0.000000
 ---------------------------------------------------------------------
                    Distance matrix (angstroms):
                    1          2          3          4          5
     1  C    0.000000
     2  C    1.406977   0.000000
     3  C    2.419012   1.373610   0.000000
     4  C    2.813433   2.422008   1.417446   0.000000
     5  C    4.230664   3.723724   2.473090   1.417316   0.000000
     6  C    5.069083   4.855025   3.733889   2.433017   1.381099
     7  C    6.483674   6.160399   4.936285   3.763170   2.463197
     8  C    7.446426   7.298141   6.151728   4.876133   3.704749
     9  C    8.843874   8.605942   7.392955   6.194596   4.919866
    10  C    9.855705   9.739548   8.581394   7.317540   6.119323
    11  C    9.788951   9.880917   8.851274   7.493389   6.478760
    12  C   10.993842  11.160682  10.169514   8.795302   7.823301
    13  C    8.568293   8.790233   7.870409   6.469901   5.636661
    14  C    8.795156   9.229749   8.476559   7.059344   6.460097
    15  C    7.839397   8.440746   7.858287   6.465837   6.137692
    16  C    7.321997   7.449699   6.485690   5.095737   4.230324
    17  C    6.143024   6.451422   5.661779   4.244524   3.733236
    18  C    6.461240   7.044790   6.484970   5.105567   4.896531
    19  C    5.613420   6.431980   6.142159   4.886727   5.083856
    20  C    4.865193   5.056969   4.235386   2.818144   2.433409
    21  C    3.723300   4.215203   3.738765   2.451533   2.820728
    22  C    4.244134   5.095865   4.916736   3.769565   4.260101
    23  C    3.701576   4.858852   5.078913   4.248895   5.108962
    24  C    2.474626   3.760384   4.258245   3.769477   4.917616
    25  C    1.382189   2.418983   2.809553   2.457747   3.751093
    26  C    2.426080   2.795502   2.437810   1.413764   2.447452
    27  C   10.199738  10.669372   9.924542   8.507270   7.882814
    28  C   11.200047  11.539880  10.675456   9.266359   8.464319
    29  C   12.548294  12.927024  12.081083  10.669983   9.876665
    30  C   12.950988  13.462834  12.725942  11.308563  10.650584
    31  C   12.098634  12.726794  12.105001  10.697376  10.196289
    32  C   10.727165  11.350725  10.739789   9.335295   8.873978
    33  H    1.095827   2.167561   3.402926   3.909114   5.326396
    34  H    2.161473   1.095239   2.143925   3.417687   4.614039
    35  H    3.416034   2.149591   1.095886   2.171661   2.700442
    36  H    4.864915   4.067989   2.700016   2.171930   1.096970
    37  H    6.910028   6.369778   5.048339   4.101129   2.687739
    38  H    9.152436   8.748200   7.458989   6.395912   5.025526
    39  H   10.889512  10.714235   9.516590   8.296097   7.043947
    40  H   11.929092  12.019352  10.968566   9.624085   8.565026
    41  H    8.312367   9.054618   8.602197   7.245674   7.061545
    42  H    6.247995   7.209969   7.059970   5.870074   6.158205
    43  H    4.601879   5.845368   6.152514   5.344901   6.173395
    44  H    2.692315   4.094448   4.875109   4.636792   5.880556
    45  H   13.352379  13.649277  12.733298  11.336201  10.445322
    46  H   14.029332  14.554330  13.820818  12.403431  11.738076
    47  H   12.611948  13.331704  12.796187  11.404162  11.001266
    48  H   10.117029  10.849457  10.355632   8.979098   8.680089
                    6          7          8          9         10
     6  C    0.000000
     7  C    1.440193   0.000000
     8  C    2.443118   1.362399   0.000000
     9  C    3.785698   2.456670   1.452451   0.000000
    10  C    4.884524   3.681014   2.441416   1.344593   0.000000
    11  C    5.128182   4.229621   2.867223   2.443269   1.452573
    12  C    6.462144   5.593980   4.231584   3.683161   2.457047
    13  C    4.255608   3.722315   2.480870   2.844688   2.485012
    14  C    5.113208   4.884289   3.773095   4.259338   3.785695
    15  C    4.905275   5.079605   4.256221   5.107293   4.917547
    16  C    2.849278   2.442197   1.447546   2.483013   2.833776
    17  C    2.474648   2.832898   2.464766   3.772882   4.241899
    18  C    3.771286   4.253432   3.769407   4.933337   5.117584
    19  C    4.258867   5.111630   4.923885   6.207308   6.508153
    20  C    1.431180   2.468442   2.833652   4.285452   5.095096
    21  C    2.453290   3.754110   4.233215   5.684999   6.463769
    22  C    3.771352   4.926344   5.110366   6.518279   7.070762
    23  C    4.929513   6.206660   6.515044   7.939164   8.519837
    24  C    5.109096   6.506241   7.065789   8.517407   9.258865
    25  C    4.248571   5.688390   6.480972   7.918437   8.826419
    26  C    2.823758   4.263533   5.086539   6.514112   7.464087
    27  C    6.523116   6.167852   4.947428   5.111705   4.292468
    28  C    7.083228   6.451013   5.119562   4.876558   3.776215
    29  C    8.495569   7.839283   6.496192   6.129866   4.925071
    30  C    9.279510   8.787416   7.484734   7.295682   6.163633
    31  C    8.860899   8.582883   7.368914   7.455279   6.492581
    32  C    7.556439   7.375776   6.227853   6.500016   5.702869
    33  H    6.142591   7.565060   8.495264   9.905421  10.887918
    34  H    5.832639   7.076242   8.268590   9.532487  10.705602
    35  H    4.076501   5.052520   6.363875   7.469565   8.732302
    36  H    2.153648   2.703609   4.060624   5.047637   6.341982
    37  H    2.182305   1.097151   2.141360   2.697899   4.037141
    38  H    4.114420   2.676822   2.186197   1.096326   2.128153
    39  H    5.870021   4.581535   3.444471   2.127686   1.096392
    40  H    7.236272   6.223909   4.882111   4.038291   2.698682
    41  H    5.891607   6.159238   5.358235   6.177820   5.894510
    42  H    5.355723   6.177228   5.894753   7.107672   7.269031
    43  H    5.896920   7.104496   7.271005   8.656267   9.109288
    44  H    6.171199   7.580865   8.161537   9.613317  10.350042
    45  H    9.070779   8.270790   6.909035   6.319068   5.021200
    46  H   10.364970   9.841873   8.525375   8.257307   7.071243
    47  H    9.695249   9.516971   8.344672   8.505239   7.573525
    48  H    7.429931   7.461589   6.444521   6.942014   6.318044
                   11         12         13         14         15
    11  C    0.000000
    12  C    1.364369   0.000000
    13  C    1.442510   2.435135   0.000000
    14  C    2.475717   2.841299   1.414722   0.000000
    15  C    3.752609   4.240050   2.432747   1.399016   0.000000
    16  C    2.466994   3.711141   1.406337   2.442129   2.808758
    17  C    3.756239   4.871735   2.436802   2.814824   2.430628
    18  C    4.263830   5.087789   2.821331   2.434287   1.396059
    19  C    5.694681   6.492564   4.252173   3.750392   2.466727
    20  C    4.923760   6.144927   3.741992   4.241203   3.733584
    21  C    6.173971   7.317390   4.882548   5.081249   4.225545
    22  C    6.492520   7.457432   5.081382   4.871108   3.714592
    23  C    7.928297   8.855182   6.507202   6.188433   4.930587
    24  C    8.835345   9.863869   7.457441   7.312615   6.130796
    25  C    8.628537   9.783733   7.348913   7.481029   6.480419
    26  C    7.362874   8.573923   6.154470   6.469317   5.645249
    27  C    2.840208   2.461566   2.466715   1.448096   2.482148
    28  C    2.433305   1.433124   2.827785   2.466887   3.752859
    29  C    3.716558   2.468133   4.240211   3.758937   4.917462
    30  C    4.852692   3.727879   5.079951   4.250063   5.127218
    31  C    5.068571   4.229733   4.888458   3.751779   4.286430
    32  C    4.250400   3.744474   3.767045   2.492926   2.910119
    33  H   10.759378  11.930981   9.497109   9.623618   8.581916
    34  H   10.909598  12.203940   9.850741  10.318155   9.535906
    35  H    9.172796  10.521289   8.325632   9.073346   8.586993
    36  H    6.923526   8.287078   6.267742   7.235265   7.054957
    37  H    4.881109   6.224396   4.619407   5.868865   6.153922
    38  H    3.446076   4.582656   3.940589   5.355306   6.171360
    39  H    2.185272   2.674111   3.464598   4.655362   5.881394
    40  H    2.143820   1.097159   3.439416   3.938236   5.337100
    41  H    4.630740   4.879730   3.425182   2.157094   1.102069
    42  H    6.302843   6.923474   4.881664   4.087993   2.692746
    43  H    8.370486   9.170738   6.928920   6.392308   5.039960
    44  H    9.899928  10.899682   8.508626   8.291939   7.057024
    45  H    4.044715   2.684427   4.866923   4.633760   5.881166
    46  H    5.825069   4.614365   6.149146   5.344933   6.195768
    47  H    6.141203   5.324541   5.867947   4.638498   4.938642
    48  H    4.890280   4.621427   4.106555   2.701029   2.543617
                   16         17         18         19         20
    16  C    0.000000
    17  C    1.408328   0.000000
    18  C    2.450392   1.420558   0.000000
    19  C    3.750419   2.459470   1.431007   0.000000
    20  C    2.456813   1.426394   2.463165   2.827712   0.000000
    21  C    3.731633   2.445748   2.829599   2.435278   1.399575
    22  C    4.237182   2.828888   2.436829   1.369311   2.458296
    23  C    5.686614   4.278297   3.779355   2.463866   3.763176
    24  C    6.466674   5.088886   4.878334   3.690315   4.232137
    25  C    6.171711   4.912111   5.113283   4.231267   3.742324
    26  C    4.895933   3.744635   4.249289   3.727208   2.439121
    27  C    3.757623   4.262763   3.764678   4.948792   5.689157
    28  C    4.234062   5.093144   4.901133   6.193727   6.486251
    29  C    5.646463   6.475682   6.169461   7.384189   7.880031
    30  C    6.459019   7.064293   6.490202   7.532671   8.490625
    31  C    6.158107   6.492522   5.682474   6.549226   7.900100
    32  C    4.934170   5.152331   4.306177   5.199328   6.548268
    33  H    8.295572   7.060831   7.234958   6.242693   5.846514
    34  H    8.496274   7.532058   8.139923   7.507138   6.128596
    35  H    6.920390   6.278985   7.248329   7.052410   4.873524
    36  H    4.882107   4.625297   5.877820   6.157865   3.433958
    37  H    3.445283   3.929893   5.350450   6.177487   3.452797
    38  H    3.465416   4.644811   5.898449   7.103796   4.909150
    39  H    3.929611   5.337883   6.180864   7.583360   6.170512
    40  H    4.608032   5.855375   6.162447   7.575193   7.064399
    41  H    3.910730   3.435000   2.170139   2.710761   4.629758
    42  H    4.625294   3.444497   2.178773   1.096948   3.924546
    43  H    6.291706   4.903613   4.112286   2.684750   4.636529
    44  H    7.550311   6.164341   5.864962   4.591376   5.327916
    45  H    6.249016   7.224121   7.067694   8.339671   8.592991
    46  H    7.536856   8.159188   7.568286   8.575847   9.585514
    47  H    7.077139   7.270591   6.315873   7.003897   8.646469
    48  H    5.049970   4.960053   3.873594   4.510535   6.275878
                   21         22         23         24         25
    21  C    0.000000
    22  C    1.439398   0.000000
    23  C    2.476591   1.450106   0.000000
    24  C    2.832598   2.441507   1.347278   0.000000
    25  C    2.466366   2.861967   2.439871   1.448925   0.000000
    26  C    1.419704   2.478979   2.835195   2.470425   1.424857
    27  C    6.500747   6.173997   7.412653   8.603860   8.868135
    28  C    7.476753   7.337962   8.645764   9.779465   9.910420
    29  C    8.828072   8.595201   9.848045  11.030774  11.239736
    30  C    9.276797   8.834025   9.966397  11.222956  11.601584
    31  C    8.511711   7.895783   8.919928  10.217086  10.727138
    32  C    7.135565   6.535731   7.599163   8.880534   9.357828
    33  H    4.616030   4.892122   4.055135   2.713447   2.153202
    34  H    5.310363   6.160790   5.821625   4.633851   3.401575
    35  H    4.619194   5.889625   6.149346   5.354106   3.905439
    36  H    3.917640   5.357030   6.174945   5.890600   4.626911
    37  H    4.630215   5.896849   7.106450   7.265934   6.296126
    38  H    6.289176   7.271749   8.653196   9.102932   8.357143
    39  H    7.547435   8.166770   9.616006  10.349805   9.890324
    40  H    8.292204   8.507146   9.917346  10.896170  10.753968
    41  H    4.881896   4.074722   5.063691   6.359733   6.931731
    42  H    3.438125   2.146465   2.707191   4.048879   4.884387
    43  H    3.458199   2.184646   1.096249   2.130071   3.442624
    44  H    3.928342   3.444391   2.130471   1.096213   2.183654
    45  H    9.630498   9.504244  10.798627  11.945628  12.072533
    46  H   10.363893   9.891524  10.992779  12.264446  12.675373
    47  H    9.129063   8.371572   9.267712  10.596159  11.230931
    48  H    6.658957   5.877332   6.810610   8.127287   8.736084
                   26         27         28         29         30
    26  C    0.000000
    27  C    7.899623   0.000000
    28  C    8.830005   1.406790   0.000000
    29  C   10.198634   2.435662   1.412435   0.000000
    30  C   10.684414   2.802043   2.419824   1.376304   0.000000
    31  C    9.931381   2.421849   2.796613   2.410382   1.404473
    32  C    8.555260   1.410770   2.428573   2.788327   2.410619
    33  H    3.425537  10.998133  12.060119  13.382373  13.709127
    34  H    3.890660  11.759403  12.614749  14.005889  14.554489
    35  H    3.427611  10.512693  11.152774  12.565085  13.300161
    36  H    3.435113   8.621529   9.069750  10.473893  11.340556
    37  H    4.892592   7.085902   7.225695   8.578583   9.611259
    38  H    6.933081   6.185660   5.861588   7.050540   8.269194
    39  H    8.514771   4.908372   4.104175   5.020870   6.352320
    40  H    9.503263   3.441518   2.180164   2.679712   4.052026
    41  H    6.280593   2.694970   4.093768   5.029953   4.936990
    42  H    4.622596   5.055301   6.403071   7.457901   7.403771
    43  H    3.931145   7.478483   8.791778   9.898651   9.864629
    44  H    3.448962   9.539034  10.755745  11.973647  12.093279
    45  H   10.968352   3.424368   2.169134   1.096018   2.150448
    46  H   11.773554   3.896882   3.416058   2.148296   1.094898
    47  H   10.543218   3.416512   3.891432   3.396840   2.165088
    48  H    8.067188   2.162808   3.417972   3.889104   3.416808
                   31         32         33         34         35
    31  C    0.000000
    32  C    1.376427   0.000000
    33  H   12.787225  11.427758   0.000000
    34  H   13.822006  12.445915   2.476908   0.000000
    35  H   12.770201  11.421603   4.309186   2.481292   0.000000
    36  H   10.987043   9.697081   5.940624   4.772440   2.462135
    37  H    9.507746   8.346508   8.005571   7.176194   4.923641
    38  H    8.502383   7.581273  10.237453   9.598259   7.373779
    39  H    6.898719   6.291628  11.932988  11.653687   9.592315
    40  H    4.846929   4.607117  12.891529  13.041699  11.242926
    41  H    3.858052   2.542049   8.952091  10.143114   9.401958
    42  H    6.276487   5.000457   6.734266   8.256494   8.016086
    43  H    8.716645   7.458917   4.772463   6.756733   7.230148
    44  H   11.027485   9.718392   2.466804   4.777652   5.954612
    45  H    3.408633   3.884336  14.223718  14.714856  13.145547
    46  H    2.164562   3.396725  14.774772  15.646473  14.391954
    47  H    1.094855   2.147708  13.232322  14.423918  13.516207
    48  H    2.160117   1.100852  10.745411  11.939900  11.116496
                   36         37         38         39         40
    36  H    0.000000
    37  H    2.461508   0.000000
    38  H    4.911646   2.450139   0.000000
    39  H    7.158630   4.753561   2.473639   0.000000
    40  H    8.925611   6.710128   4.753378   2.447637   0.000000
    41  H    8.023990   7.240363   7.251424   6.804159   5.956529
    42  H    7.239049   7.252432   8.053411   8.314572   8.020325
    43  H    7.248748   8.053469   9.443628  10.197872  10.256627
    44  H    6.799568   8.310597  10.190848  11.441983  11.943153
    45  H   10.955257   8.905372   7.130265   4.874879   2.427339
    46  H   12.415571  10.640216   9.194636   7.148257   4.750200
    47  H   11.839769  10.474065   9.562887   7.993383   5.921914
    48  H    9.583195   8.493658   8.037937   7.027986   5.565719
                   41         42         43         44         45
    41  H    0.000000
    42  H    2.469119   0.000000
    43  H    4.931043   2.461926   0.000000
    44  H    7.178248   4.766823   2.476350   0.000000
    45  H    6.078303   8.478292  10.901491  12.914652   0.000000
    46  H    5.938736   8.391986  10.845537  13.114264   2.484751
    47  H    4.299820   6.569247   8.938971  11.331678   4.305895
    48  H    1.805007   4.136720   6.563004   8.900770   4.985090
                   46         47         48
    46  H    0.000000
    47  H    2.483289   0.000000
    48  H    4.314710   2.494928   0.000000
 Stoichiometry    C32H16
 Framework group  CS[SG(C32H16)]
 Deg. of freedom    93
 Full point group                 CS      NOp   2
 Largest Abelian subgroup         CS      NOp   2
 Largest concise Abelian subgroup C1      NOp   1
                         Standard orientation:                         
 ---------------------------------------------------------------------
 Center     Atomic      Atomic             Coordinates (Angstroms)
 Number     Number       Type             X           Y           Z
 ---------------------------------------------------------------------
      1          6           0        3.540765    5.191927    0.000000
      2          6           0        2.487365    6.124629    0.000000
      3          6           0        1.177860    5.709899    0.000000
      4          6           0        0.863327    4.327791    0.000000
      5          6           0       -0.479483    3.874311    0.000000
      6          6           0       -0.769421    2.523989    0.000000
      7          6           0       -2.126978    2.043164    0.000000
      8          6           0       -2.405438    0.709526    0.000000
      9          6           0       -3.772588    0.219103    0.000000
     10          6           0       -4.047617   -1.097061    0.000000
     11          6           0       -2.993722   -2.096697    0.000000
     12          6           0       -3.279210   -3.430863    0.000000
     13          6           0       -1.623763   -1.644980    0.000000
     14          6           0       -0.566678   -2.585198    0.000000
     15          6           0        0.758668   -2.137199    0.000000
     16          6           0       -1.337825   -0.268018    0.000000
     17          6           0        0.000000    0.171995    0.000000
     18          6           0        1.059759   -0.773995    0.000000
     19          6           0        2.412392   -0.306915    0.000000
     20          6           0        0.295201    1.567508    0.000000
     21          6           0        1.626862    1.998193    0.000000
     22          6           0        2.694681    1.032983    0.000000
     23          6           0        4.058156    1.526689    0.000000
     24          6           0        4.329495    2.846360    0.000000
     25          6           0        3.271416    3.836236    0.000000
     26          6           0        1.919066    3.387501    0.000000
     27          6           0       -0.883897   -3.998123    0.000000
     28          6           0       -2.229949   -4.407027    0.000000
     29          6           0       -2.538725   -5.785298    0.000000
     30          6           0       -1.532320   -6.724108    0.000000
     31          6           0       -0.187900   -6.317808    0.000000
     32          6           0        0.130384   -4.978686    0.000000
     33          1           0        4.576957    5.548500    0.000000
     34          1           0        2.725362    7.193697    0.000000
     35          1           0        0.361121    6.440586    0.000000
     36          1           0       -1.289682    4.613852    0.000000
     37          1           0       -2.936172    2.784073    0.000000
     38          1           0       -4.576744    0.964264    0.000000
     39          1           0       -5.083256   -1.456962    0.000000
     40          1           0       -4.318628   -3.782101    0.000000
     41          1           0        1.569709   -2.883368    0.000000
     42          1           0        3.221247   -1.047893    0.000000
     43          1           0        4.865178    0.784748    0.000000
     44          1           0        5.363480    3.210445    0.000000
     45          1           0       -3.589394   -6.097309    0.000000
     46          1           0       -1.772554   -7.792326    0.000000
     47          1           0        0.604401   -7.073431    0.000000
     48          1           0        1.179678   -4.645732    0.000000
 ---------------------------------------------------------------------
 Rotational constants (GHZ):      0.3662606      0.0847829      0.0688462
 Leave Link  202 at Sat Jul 27 13:55:30 2019, MaxMem=  4194304000 cpu:         2.0
 (Enter /home/minenky/programs//g09/l301.exe)
 Standard basis: def2TZVP (5D, 7F)
 ======================================================================================================
                                       Pseudopotential Parameters
 ======================================================================================================
  Center     Atomic      Valence      Angular      Power
  Number     Number     Electrons     Momentum     of R      Exponent        Coefficient   SO-Coeffient
 ======================================================================================================
    1          6
                                   No pseudopotential on this center.
    2          6
                                   No pseudopotential on this center.
    3          6
                                   No pseudopotential on this center.
    4          6
                                   No pseudopotential on this center.
    5          6
                                   No pseudopotential on this center.
    6          6
                                   No pseudopotential on this center.
    7          6
                                   No pseudopotential on this center.
    8          6
                                   No pseudopotential on this center.
    9          6
                                   No pseudopotential on this center.
   10          6
                                   No pseudopotential on this center.
   11          6
                                   No pseudopotential on this center.
   12          6
                                   No pseudopotential on this center.
   13          6
                                   No pseudopotential on this center.
   14          6
                                   No pseudopotential on this center.
   15          6
                                   No pseudopotential on this center.
   16          6
                                   No pseudopotential on this center.
   17          6
                                   No pseudopotential on this center.
   18          6
                                   No pseudopotential on this center.
   19          6
                                   No pseudopotential on this center.
   20          6
                                   No pseudopotential on this center.
   21          6
                                   No pseudopotential on this center.
   22          6
                                   No pseudopotential on this center.
   23          6
                                   No pseudopotential on this center.
   24          6
                                   No pseudopotential on this center.
   25          6
                                   No pseudopotential on this center.
   26          6
                                   No pseudopotential on this center.
   27          6
                                   No pseudopotential on this center.
   28          6
                                   No pseudopotential on this center.
   29          6
                                   No pseudopotential on this center.
   30          6
                                   No pseudopotential on this center.
   31          6
                                   No pseudopotential on this center.
   32          6
                                   No pseudopotential on this center.
   33          1
                                   No pseudopotential on this center.
   34          1
                                   No pseudopotential on this center.
   35          1
                                   No pseudopotential on this center.
   36          1
                                   No pseudopotential on this center.
   37          1
                                   No pseudopotential on this center.
   38          1
                                   No pseudopotential on this center.
   39          1
                                   No pseudopotential on this center.
   40          1
                                   No pseudopotential on this center.
   41          1
                                   No pseudopotential on this center.
   42          1
                                   No pseudopotential on this center.
   43          1
                                   No pseudopotential on this center.
   44          1
                                   No pseudopotential on this center.
   45          1
                                   No pseudopotential on this center.
   46          1
                                   No pseudopotential on this center.
   47          1
                                   No pseudopotential on this center.
   48          1
                                   No pseudopotential on this center.
 ======================================================================================================
 Ernie: Thresh=  0.10000D-02 Tol=  0.10000D-05 Strict=F.
 AO basis set (Overlap normalization):
 Atom C1       Shell     1 S   6     bf    1 -     1          6.691076970046          9.811319794100          0.000000000000
      0.1357534968D+05  0.6064550360D-03
      0.2035233368D+04  0.4697908888D-02
      0.4632256236D+03  0.2433247765D-01
      0.1312001960D+03  0.9739996831D-01
      0.4285301589D+02  0.3019558425D+00
      0.1558418577D+02  0.6623360914D+00
 Atom C1       Shell     2 S   2     bf    2 -     2          6.691076970046          9.811319794100          0.000000000000
      0.6206713851D+01  0.6559530854D+00
      0.2576489653D+01  0.3758563329D+00
 Atom C1       Shell     3 S   1     bf    3 -     3          6.691076970046          9.811319794100          0.000000000000
      0.5769633942D+00  0.1000000000D+01
 Atom C1       Shell     4 S   1     bf    4 -     4          6.691076970046          9.811319794100          0.000000000000
      0.2297283136D+00  0.1000000000D+01
 Atom C1       Shell     5 S   1     bf    5 -     5          6.691076970046          9.811319794100          0.000000000000
      0.9516444003D-01  0.1000000000D+01
 Atom C1       Shell     6 P   4     bf    6 -     8          6.691076970046          9.811319794100          0.000000000000
      0.3469723224D+02  0.1132722000D-01
      0.7958262283D+01  0.7616965920D-01
      0.2378082688D+01  0.3019225220D+00
      0.8143320818D+00  0.7278502735D+00
 Atom C1       Shell     7 P   1     bf    9 -    11          6.691076970046          9.811319794100          0.000000000000
      0.2888754725D+00  0.1000000000D+01
 Atom C1       Shell     8 P   1     bf   12 -    14          6.691076970046          9.811319794100          0.000000000000
      0.1005682367D+00  0.1000000000D+01
 Atom C1       Shell     9 D   1     bf   15 -    19          6.691076970046          9.811319794100          0.000000000000
      0.1097000000D+01  0.1000000000D+01
 Atom C1       Shell    10 D   1     bf   20 -    24          6.691076970046          9.811319794100          0.000000000000
      0.3180000000D+00  0.1000000000D+01
 Atom C1       Shell    11 F   1     bf   25 -    31          6.691076970046          9.811319794100          0.000000000000
      0.7610000000D+00  0.1000000000D+01
 Atom C2       Shell    12 S   6     bf   32 -    32          4.700438633752         11.573871266400          0.000000000000
      0.1357534968D+05  0.6064550360D-03
      0.2035233368D+04  0.4697908888D-02
      0.4632256236D+03  0.2433247765D-01
      0.1312001960D+03  0.9739996831D-01
      0.4285301589D+02  0.3019558425D+00
      0.1558418577D+02  0.6623360914D+00
 Atom C2       Shell    13 S   2     bf   33 -    33          4.700438633752         11.573871266400          0.000000000000
      0.6206713851D+01  0.6559530854D+00
      0.2576489653D+01  0.3758563329D+00
 Atom C2       Shell    14 S   1     bf   34 -    34          4.700438633752         11.573871266400          0.000000000000
      0.5769633942D+00  0.1000000000D+01
 Atom C2       Shell    15 S   1     bf   35 -    35          4.700438633752         11.573871266400          0.000000000000
      0.2297283136D+00  0.1000000000D+01
 Atom C2       Shell    16 S   1     bf   36 -    36          4.700438633752         11.573871266400          0.000000000000
      0.9516444003D-01  0.1000000000D+01
 Atom C2       Shell    17 P   4     bf   37 -    39          4.700438633752         11.573871266400          0.000000000000
      0.3469723224D+02  0.1132722000D-01
      0.7958262283D+01  0.7616965920D-01
      0.2378082688D+01  0.3019225220D+00
      0.8143320818D+00  0.7278502735D+00
 Atom C2       Shell    18 P   1     bf   40 -    42          4.700438633752         11.573871266400          0.000000000000
      0.2888754725D+00  0.1000000000D+01
 Atom C2       Shell    19 P   1     bf   43 -    45          4.700438633752         11.573871266400          0.000000000000
      0.1005682367D+00  0.1000000000D+01
 Atom C2       Shell    20 D   1     bf   46 -    50          4.700438633752         11.573871266400          0.000000000000
      0.1097000000D+01  0.1000000000D+01
 Atom C2       Shell    21 D   1     bf   51 -    55          4.700438633752         11.573871266400          0.000000000000
      0.3180000000D+00  0.1000000000D+01
 Atom C2       Shell    22 F   1     bf   56 -    62          4.700438633752         11.573871266400          0.000000000000
      0.7610000000D+00  0.1000000000D+01
 Atom C3       Shell    23 S   6     bf   63 -    63          2.225833150839         10.790145997074          0.000000000000
      0.1357534968D+05  0.6064550360D-03
      0.2035233368D+04  0.4697908888D-02
      0.4632256236D+03  0.2433247765D-01
      0.1312001960D+03  0.9739996831D-01
      0.4285301589D+02  0.3019558425D+00
      0.1558418577D+02  0.6623360914D+00
 Atom C3       Shell    24 S   2     bf   64 -    64          2.225833150839         10.790145997074          0.000000000000
      0.6206713851D+01  0.6559530854D+00
      0.2576489653D+01  0.3758563329D+00
 Atom C3       Shell    25 S   1     bf   65 -    65          2.225833150839         10.790145997074          0.000000000000
      0.5769633942D+00  0.1000000000D+01
 Atom C3       Shell    26 S   1     bf   66 -    66          2.225833150839         10.790145997074          0.000000000000
      0.2297283136D+00  0.1000000000D+01
 Atom C3       Shell    27 S   1     bf   67 -    67          2.225833150839         10.790145997074          0.000000000000
      0.9516444003D-01  0.1000000000D+01
 Atom C3       Shell    28 P   4     bf   68 -    70          2.225833150839         10.790145997074          0.000000000000
      0.3469723224D+02  0.1132722000D-01
      0.7958262283D+01  0.7616965920D-01
      0.2378082688D+01  0.3019225220D+00
      0.8143320818D+00  0.7278502735D+00
 Atom C3       Shell    29 P   1     bf   71 -    73          2.225833150839         10.790145997074          0.000000000000
      0.2888754725D+00  0.1000000000D+01
 Atom C3       Shell    30 P   1     bf   74 -    76          2.225833150839         10.790145997074          0.000000000000
      0.1005682367D+00  0.1000000000D+01
 Atom C3       Shell    31 D   1     bf   77 -    81          2.225833150839         10.790145997074          0.000000000000
      0.1097000000D+01  0.1000000000D+01
 Atom C3       Shell    32 D   1     bf   82 -    86          2.225833150839         10.790145997074          0.000000000000
      0.3180000000D+00  0.1000000000D+01
 Atom C3       Shell    33 F   1     bf   87 -    93          2.225833150839         10.790145997074          0.000000000000
      0.7610000000D+00  0.1000000000D+01
 Atom C4       Shell    34 S   6     bf   94 -    94          1.631451637735          8.178340398569          0.000000000000
      0.1357534968D+05  0.6064550360D-03
      0.2035233368D+04  0.4697908888D-02
      0.4632256236D+03  0.2433247765D-01
      0.1312001960D+03  0.9739996831D-01
      0.4285301589D+02  0.3019558425D+00
      0.1558418577D+02  0.6623360914D+00
 Atom C4       Shell    35 S   2     bf   95 -    95          1.631451637735          8.178340398569          0.000000000000
      0.6206713851D+01  0.6559530854D+00
      0.2576489653D+01  0.3758563329D+00
 Atom C4       Shell    36 S   1     bf   96 -    96          1.631451637735          8.178340398569          0.000000000000
      0.5769633942D+00  0.1000000000D+01
 Atom C4       Shell    37 S   1     bf   97 -    97          1.631451637735          8.178340398569          0.000000000000
      0.2297283136D+00  0.1000000000D+01
 Atom C4       Shell    38 S   1     bf   98 -    98          1.631451637735          8.178340398569          0.000000000000
      0.9516444003D-01  0.1000000000D+01
 Atom C4       Shell    39 P   4     bf   99 -   101          1.631451637735          8.178340398569          0.000000000000
      0.3469723224D+02  0.1132722000D-01
      0.7958262283D+01  0.7616965920D-01
      0.2378082688D+01  0.3019225220D+00
      0.8143320818D+00  0.7278502735D+00
 Atom C4       Shell    40 P   1     bf  102 -   104          1.631451637735          8.178340398569          0.000000000000
      0.2888754725D+00  0.1000000000D+01
 Atom C4       Shell    41 P   1     bf  105 -   107          1.631451637735          8.178340398569          0.000000000000
      0.1005682367D+00  0.1000000000D+01
 Atom C4       Shell    42 D   1     bf  108 -   112          1.631451637735          8.178340398569          0.000000000000
      0.1097000000D+01  0.1000000000D+01
 Atom C4       Shell    43 D   1     bf  113 -   117          1.631451637735          8.178340398569          0.000000000000
      0.3180000000D+00  0.1000000000D+01
 Atom C4       Shell    44 F   1     bf  118 -   124          1.631451637735          8.178340398569          0.000000000000
      0.7610000000D+00  0.1000000000D+01
 Atom C5       Shell    45 S   6     bf  125 -   125         -0.906092481489          7.321386166607          0.000000000000
      0.1357534968D+05  0.6064550360D-03
      0.2035233368D+04  0.4697908888D-02
      0.4632256236D+03  0.2433247765D-01
      0.1312001960D+03  0.9739996831D-01
      0.4285301589D+02  0.3019558425D+00
      0.1558418577D+02  0.6623360914D+00
 Atom C5       Shell    46 S   2     bf  126 -   126         -0.906092481489          7.321386166607          0.000000000000
      0.6206713851D+01  0.6559530854D+00
      0.2576489653D+01  0.3758563329D+00
 Atom C5       Shell    47 S   1     bf  127 -   127         -0.906092481489          7.321386166607          0.000000000000
      0.5769633942D+00  0.1000000000D+01
 Atom C5       Shell    48 S   1     bf  128 -   128         -0.906092481489          7.321386166607          0.000000000000
      0.2297283136D+00  0.1000000000D+01
 Atom C5       Shell    49 S   1     bf  129 -   129         -0.906092481489          7.321386166607          0.000000000000
      0.9516444003D-01  0.1000000000D+01
 Atom C5       Shell    50 P   4     bf  130 -   132         -0.906092481489          7.321386166607          0.000000000000
      0.3469723224D+02  0.1132722000D-01
      0.7958262283D+01  0.7616965920D-01
      0.2378082688D+01  0.3019225220D+00
      0.8143320818D+00  0.7278502735D+00
 Atom C5       Shell    51 P   1     bf  133 -   135         -0.906092481489          7.321386166607          0.000000000000
      0.2888754725D+00  0.1000000000D+01
 Atom C5       Shell    52 P   1     bf  136 -   138         -0.906092481489          7.321386166607          0.000000000000
      0.1005682367D+00  0.1000000000D+01
 Atom C5       Shell    53 D   1     bf  139 -   143         -0.906092481489          7.321386166607          0.000000000000
      0.1097000000D+01  0.1000000000D+01
 Atom C5       Shell    54 D   1     bf  144 -   148         -0.906092481489          7.321386166607          0.000000000000
      0.3180000000D+00  0.1000000000D+01
 Atom C5       Shell    55 F   1     bf  149 -   155         -0.906092481489          7.321386166607          0.000000000000
      0.7610000000D+00  0.1000000000D+01
 Atom C6       Shell    56 S   6     bf  156 -   156         -1.453994471207          4.769647089378          0.000000000000
      0.1357534968D+05  0.6064550360D-03
      0.2035233368D+04  0.4697908888D-02
      0.4632256236D+03  0.2433247765D-01
      0.1312001960D+03  0.9739996831D-01
      0.4285301589D+02  0.3019558425D+00
      0.1558418577D+02  0.6623360914D+00
[...]
 0114,0.,-0.00003369,0.00000140,0.,-0.00046559,-0.00064298,0.,0.0837081
 0,0.00008577,-0.00034341,0.,-0.00021756,0.00003705,0.,0.00005642,0.000
 04486,0.,-0.00000153,-0.00005596,0.,-0.00005039,0.00000491,0.,0.000382
 86,-0.00009667,0.,-0.00009171,-0.00008390,0.,-0.00000253,0.00000995,0.
 ,-0.00000198,0.00002087,0.,0.00001249,-0.00001456,0.,-0.00001058,0.000
 04221,0.,0.00004084,-0.00001418,0.,0.00009398,0.00000427,0.,0.00004426
 ,-0.00007851,0.,-0.00010607,-0.00006701,0.,-0.00002347,0.00010334,0.,-
 0.00000798,0.00012566,0.,0.00046201,0.00020584,0.,-0.00154901,0.001097
 66,0.,-0.00101703,-0.00082374,0.,0.00385053,-0.00080717,0.,-0.00891411
 ,-0.01765123,0.,-0.07662381,-0.31687267,0.,0.00042514,-0.00334625,0.,-
 0.00073373,0.00173191,0.,0.00041179,0.00044439,0.,-0.00004486,-0.00002
 547,0.,-0.00001492,-0.00004488,0.,0.00000763,0.00002460,0.,0.00000771,
 -0.00001080,0.,-0.00000901,0.00001896,0.,0.00003179,-0.00000129,0.,-0.
 00002306,0.00001244,0.,-0.00000686,-0.00003168,0.,-0.00001591,-0.00001
 611,0.,-0.00001054,-0.00002131,0.,0.00002577,-0.00003997,0.,-0.0000029
 7,-0.00000563,0.,0.00000501,-0.00000219,0.,0.00000405,-0.00000018,0.,0
 .00002896,0.00001435,0.,0.00106842,0.00031883,0.,0.08272322,0.33523234
 ,0.,0.,-0.00000847,0.,0.,-0.00091222,0.,0.,0.00012380,0.,0.,-0.0007170
 9,0.,0.,0.00003662,0.,0.,-0.00001156,0.,0.,-0.00000302,0.,0.,-0.000015
 55,0.,0.,0.00000180,0.,0.,-0.00000148,0.,0.,-0.00000473,0.,0.,0.000001
 15,0.,0.,-0.00000016,0.,0.,0.00001090,0.,0.,0.00006027,0.,0.,0.0000363
 2,0.,0.,-0.00002703,0.,0.,-0.00026222,0.,0.,-0.00154204,0.,0.,0.000189
 32,0.,0.,0.00323224,0.,0.,0.00264616,0.,0.,-0.03707545,0.,0.,0.0046360
 0,0.,0.,0.01090156,0.,0.,-0.00072845,0.,0.,-0.00000775,0.,0.,-0.000000
 37,0.,0.,-0.00000045,0.,0.,-0.00000306,0.,0.,0.00000003,0.,0.,-0.00001
 047,0.,0.,0.00030214,0.,0.,-0.00002257,0.,0.,0.00012490,0.,0.,0.000001
 77,0.,0.,0.00000507,0.,0.,0.00000112,0.,0.,0.00000127,0.,0.,0.00000094
 ,0.,0.,-0.00000202,0.,0.,0.00027075,0.,0.,0.02501972,0.00137282,-0.001
 17729,0.,0.00000633,0.00034904,0.,0.00021348,-0.00007426,0.,0.00032911
 ,-0.00038349,0.,-0.00008773,-0.00009726,0.,-0.00000493,0.00000584,0.,0
 .00000251,0.00001589,0.,0.00000350,-0.00000245,0.,0.00000589,-0.000006
 35,0.,-0.00000724,0.00000737,0.,0.00000666,-0.00002035,0.,-0.00001472,
 0.00000254,0.,-0.00002985,-0.00002183,0.,-0.00006412,0.00001789,0.,0.0
 0001146,0.00014673,0.,0.00004079,-0.00002944,0.,-0.00005511,-0.0000453
 4,0.,-0.00046962,-0.00020747,0.,-0.00030556,0.00143437,0.,0.00016081,0
 .00004547,0.,-0.00014701,-0.00032716,0.,-0.00397322,-0.00355866,0.,-0.
 01732717,0.02480599,0.,-0.19311556,0.13933321,0.,0.00835360,-0.0078502
 1,0.,-0.00042238,-0.00210313,0.,0.00002435,0.00002567,0.,-0.00000636,0
 .00001357,0.,-0.00000227,-0.00001119,0.,-0.00000952,0.00000242,0.,0.00
 000257,-0.00000187,0.,-0.00001766,-0.00000399,0.,-0.00012347,0.0004203
 9,0.,0.00001038,0.00002740,0.,-0.00001660,0.00002153,0.,0.00003929,-0.
 00002729,0.,-0.00000243,0.00001153,0.,0.00000054,0.00000553,0.,-0.0000
 0389,0.00000282,0.,-0.00000386,0.00000193,0.,0.00000570,-0.00001053,0.
 ,-0.00002110,-0.00006271,0.,0.00075666,-0.00029427,0.,0.20488818,0.001
 70869,0.00134818,0.,-0.00031707,-0.00002960,0.,-0.00012515,0.00014253,
 0.,0.00163017,-0.00047568,0.,-0.00039972,-0.00034411,0.,0.00002574,0.0
 0008177,0.,0.00000026,0.00005667,0.,0.00001898,-0.00000615,0.,0.000000
 27,0.00002950,0.,0.00000062,-0.00001834,0.,0.00001119,-0.00001542,0.,0
 .00000690,0.00001354,0.,-0.00002240,0.00000476,0.,0.00000585,0.0000210
 2,0.,0.00000372,0.00005262,0.,0.00002981,-0.00004346,0.,-0.00010895,-0
 .00007365,0.,-0.00010104,0.00000298,0.,-0.00002105,0.00040086,0.,0.000
 19539,-0.00002255,0.,-0.00078216,0.00007684,0.,-0.00227500,0.00020668,
 0.,-0.00767118,0.00936099,0.,0.14084454,-0.20461675,0.,0.02239495,-0.0
 1706122,0.,-0.00356311,-0.00401854,0.,-0.00000496,0.00000767,0.,-0.000
 00487,-0.00001217,0.,0.00000010,0.00000848,0.,0.00000072,-0.00000059,0
 .,0.00000114,0.00000623,0.,0.00000653,-0.00000401,0.,-0.00131221,-0.00
 000958,0.,-0.00002373,-0.00003579,0.,-0.00007872,0.00001964,0.,0.00010
 444,-0.00012498,0.,-0.00000396,-0.00000341,0.,-0.00000105,-0.00000261,
 0.,0.00000310,0.00000161,0.,-0.00000020,-0.00000011,0.,0.00000565,0.00
 000270,0.,0.00000908,-0.00000644,0.,0.00019041,0.00095686,0.,-0.150383
 05,0.21412033,0.,0.,-0.00156688,0.,0.,-0.00020724,0.,0.,0.00003087,0.,
 0.,0.00012323,0.,0.,-0.00005687,0.,0.,0.00005694,0.,0.,0.00000694,0.,0
 .,-0.00000225,0.,0.,-0.00000388,0.,0.,-0.00000026,0.,0.,-0.00001667,0.
 ,0.,0.00000147,0.,0.,-0.00000960,0.,0.,0.00013505,0.,0.,-0.00005729,0.
 ,0.,0.00007050,0.,0.,0.00009984,0.,0.,-0.00114572,0.,0.,0.00000915,0.,
 0.,-0.00053217,0.,0.,-0.00065919,0.,0.,0.01103509,0.,0.,0.00472562,0.,
 0.,-0.03762293,0.,0.,0.00273867,0.,0.,0.00317987,0.,0.,0.00000959,0.,0
 .,-0.00000945,0.,0.,-0.00000152,0.,0.,-0.00000017,0.,0.,-0.00000230,0.
 ,0.,-0.00000075,0.,0.,0.00025177,0.,0.,0.00005023,0.,0.,0.00004117,0.,
 0.,-0.00003172,0.,0.,0.00000473,0.,0.,0.00000153,0.,0.,0.00000154,0.,0
 .,0.00000346,0.,0.,-0.00003274,0.,0.,0.00036467,0.,0.,-0.00626388,0.,0
 .,0.02527628,0.00000167,-0.00000699,0.,-0.00000503,-0.00000209,0.,0.00
 000042,-0.00000071,0.,-0.00001146,-0.00000446,0.,-0.00000098,-0.000009
 97,0.,-0.00001323,0.00001760,0.,-0.00000716,-0.00003273,0.,-0.00001307
 ,0.00005250,0.,-0.00004203,0.00000248,0.,-0.00001472,0.00002115,0.,0.0
 0015266,-0.00047856,0.,0.00108720,0.00215503,0.,0.00010431,0.00018250,
 0.,-0.00040321,0.00157936,0.,-0.00044172,-0.00034707,0.,0.00005340,-0.
 00011815,0.,-0.00001430,-0.00000345,0.,-0.00002255,0.00013066,0.,-0.00
 004949,-0.00004445,0.,0.00003375,-0.00000536,0.,-0.00000831,0.00000069
 ,0.,-0.00000515,0.00001468,0.,-0.00000406,-0.00001433,0.,-0.00000418,0
 .00000758,0.,-0.00000365,0.00000619,0.,0.00001441,-0.00000489,0.,-0.00
 455419,-0.00274913,0.,-0.01561315,0.02495652,0.,-0.17852361,0.13765377
 ,0.,0.01076337,-0.00969801,0.,0.00047352,-0.00255241,0.,-0.00052132,-0
 .00108028,0.,-0.00000048,0.00000092,0.,-0.00000108,-0.00000046,0.,-0.0
 0000120,-0.00000171,0.,-0.00000370,-0.00000329,0.,-0.00000733,-0.00000
 691,0.,0.00000274,-0.00000610,0.,-0.00001016,-0.00004710,0.,-0.0001587
 9,-0.00139952,0.,0.00002497,0.00001487,0.,0.00000443,0.00000015,0.,0.0
 0000100,0.00000095,0.,-0.00000237,-0.00000019,0.,0.18658818,-0.0000025
 4,-0.00001630,0.,-0.00000709,0.00001587,0.,0.00002310,-0.00001030,0.,-
 0.00002907,0.00003439,0.,0.00004683,-0.00001677,0.,-0.00004455,0.00002
 732,0.,0.00005905,-0.00001348,0.,-0.00005016,-0.00000531,0.,0.00004819
 ,0.00002760,0.,0.00001082,-0.00008764,0.,0.00041431,0.00011511,0.,-0.0
 0184261,0.00101757,0.,-0.00015211,0.00024861,0.,-0.00056080,0.00016691
 ,0.,0.00005409,-0.00008621,0.,0.00007723,-0.00000542,0.,0.00000250,0.0
 0005542,0.,-0.00010450,0.00000017,0.,0.00003125,-0.00000519,0.,-0.0000
 1027,0.00000133,0.,0.00002762,0.00001070,0.,-0.00002620,-0.00001621,0.
 ,0.00000305,0.00000631,0.,-0.00000269,-0.00000698,0.,0.00002059,0.0000
 0198,0.,-0.00002116,-0.00001021,0.,-0.00160018,0.00076420,0.,-0.004970
 78,0.00640465,0.,0.13785793,-0.22005681,0.,0.02217304,-0.01726271,0.,-
 0.00341160,-0.00434966,0.,-0.00085738,-0.00008940,0.,0.00000085,-0.000
 00230,0.,0.00000342,0.00000083,0.,-0.00000031,0.00000220,0.,0.00000081
 ,0.00000135,0.,0.00000226,0.00000155,0.,0.00001114,0.00000490,0.,-0.00
 001396,-0.00000164,0.,0.00026247,0.00001756,0.,-0.00001157,0.00001152,
 0.,-0.00000246,-0.00000163,0.,-0.00000154,-0.00000239,0.,0.00000246,-0
 .00000120,0.,-0.14820528,0.23325755,0.,0.,-0.00000113,0.,0.,-0.0000002
 6,0.,0.,-0.00000091,0.,0.,0.00000035,0.,0.,-0.00000223,0.,0.,0.0000033
 1,0.,0.,-0.00000606,0.,0.,0.00002431,0.,0.,-0.00001563,0.,0.,0.0002201
 9,0.,0.,-0.00017032,0.,0.,-0.00329894,0.,0.,0.00004821,0.,0.,0.0000543
 7,0.,0.,0.00013409,0.,0.,0.00000108,0.,0.,-0.00000317,0.,0.,0.00000758
 ,0.,0.,-0.00004564,0.,0.,0.,0.,0.,-0.00000479,0.,0.,0.00000159,0.,0.,0
 .00000646,0.,0.,-0.00000089,0.,0.,0.00000163,0.,0.,0.00000028,0.,0.,0.
 00576262,0.,0.,0.00294498,0.,0.,-0.03663313,0.,0.,0.00352031,0.,0.,0.0
 0846208,0.,0.,-0.00086768,0.,0.,0.00000034,0.,0.,0.00000052,0.,0.,0.00
 000074,0.,0.,0.00000133,0.,0.,0.00000079,0.,0.,-0.00002629,0.,0.,0.000
 00822,0.,0.,0.00025058,0.,0.,0.00000676,0.,0.,0.00000241,0.,0.,0.00000
 118,0.,0.,-0.00000041,0.,0.,0.02529161,-0.00002450,0.00000356,0.,0.000
 00786,0.00001346,0.,0.00000008,0.00000727,0.,0.00000393,-0.00001582,0.
 ,0.00000296,0.00001002,0.,-0.00001327,-0.00003075,0.,0.00000577,-0.000
 00158,0.,-0.00002120,-0.00001050,0.,0.00000784,-0.00005182,0.,-0.00005
 645,0.00006683,0.,0.00007069,-0.00024648,0.,-0.00052662,0.00021412,0.,
 -0.00001883,0.00001474,0.,-0.00004478,-0.00004933,0.,-0.00002710,0.000
 03607,0.,0.00002945,-0.00000651,0.,-0.00000920,0.00001706,0.,-0.000002
 27,-0.00003557,0.,0.00000244,-0.00001796,0.,0.00000181,0.00000082,0.,0
 .00000518,0.00001065,0.,-0.00000604,0.00000943,0.,0.00000490,-0.000014
 72,0.,-0.00000318,0.00000390,0.,-0.00000259,-0.00000443,0.,-0.00001500
 ,0.00000590,0.,0.00065808,0.00039185,0.,0.00163420,-0.00158037,0.,-0.0
 0603184,0.00088043,0.,-0.33215137,-0.05366050,0.,-0.01502940,-0.007371
 38,0.,-0.00069075,0.00387543,0.,-0.00000147,0.00000277,0.,-0.00000523,
 -0.00000064,0.,0.00000139,-0.00000293,0.,0.00000042,-0.00000097,0.,-0.
 00000203,-0.00000054,0.,-0.00001166,-0.00000327,0.,0.00000803,-0.00000
 770,0.,0.00001222,-0.00003123,0.,0.00003944,-0.00004682,0.,0.00000535,
 0.00000325,0.,0.00000223,0.00000440,0.,-0.00000397,0.00000161,0.,0.000
 79394,-0.00034664,0.,0.35149780,0.00001397,0.00002333,0.,0.00000816,-0
 .00002595,0.,-0.00002999,0.00001015,0.,0.00004038,-0.00003558,0.,-0.00
 006025,0.00002109,0.,0.00006727,-0.00002991,0.,-0.00007110,0.00002445,
 0.,0.00006969,-0.00000607,0.,-0.00003882,-0.00005831,0.,-0.00011376,0.
 00009333,0.,-0.00027425,-0.00046514,0.,-0.00120232,0.00061518,0.,0.000
 24243,-0.00016853,0.,0.00029348,0.00015762,0.,-0.00012366,-0.00000501,
 0.,-0.00008981,0.00001696,0.,0.00002115,-0.00006228,0.,0.00008196,0.00
 009891,0.,-0.00004804,0.00000817,0.,0.00000458,0.00000153,0.,-0.000035
 46,-0.00001713,0.,0.00003258,0.00002451,0.,-0.00000687,0.00000142,0.,0
 .00000609,0.00000528,0.,-0.00002477,-0.00000332,0.,0.00002946,0.000013
 17,0.,-0.00003832,-0.00135719,0.,-0.00102044,-0.00546754,0.,-0.0310194
 8,-0.00043499,0.,-0.05309160,-0.07122181,0.,0.02418868,0.00948787,0.,0
 .00325009,-0.00331052,0.,-0.00000014,0.00000102,0.,-0.00000126,-0.0000
 0048,0.,0.00000025,-0.00000050,0.,0.00000034,0.00000035,0.,-0.00000011
 ,0.00000107,0.,-0.00001910,-0.00000386,0.,0.00000703,-0.00000305,0.,0.
 00003264,-0.00003987,0.,-0.00004139,0.00006005,0.,-0.00000390,0.000004
 73,0.,-0.00000009,0.00000141,0.,-0.00000053,0.00000066,0.,0.00040841,0
 .00082141,0.,0.05794846,0.07025026,0.,0.,-0.00000061,0.,0.,-0.00000067
 ,0.,0.,-0.00000025,0.,0.,0.00000044,0.,0.,-0.00000452,0.,0.,0.00000106
 ,0.,0.,-0.00000262,0.,0.,-0.00001189,0.,0.,0.00002744,0.,0.,-0.0000459
 2,0.,0.,-0.00045476,0.,0.,0.00018290,0.,0.,0.00007419,0.,0.,-0.0009251
 1,0.,0.,0.00002534,0.,0.,0.00004104,0.,0.,-0.00000510,0.,0.,-0.0000439
 5,0.,0.,-0.00000134,0.,0.,0.00001893,0.,0.,-0.00000053,0.,0.,-0.000002
 13,0.,0.,-0.00000284,0.,0.,-0.00000041,0.,0.,-0.00000016,0.,0.,-0.0000
 0056,0.,0.,-0.00099005,0.,0.,0.00904360,0.,0.,0.00301266,0.,0.,-0.0372
 0650,0.,0.,0.00220386,0.,0.,0.00664545,0.,0.,0.00000062,0.,0.,0.000000
 47,0.,0.,0.00000058,0.,0.,0.00000098,0.,0.,0.00000278,0.,0.,0.00000621
 ,0.,0.,0.00000277,0.,0.,0.00009680,0.,0.,0.00009035,0.,0.,0.00000300,0
 .,0.,0.00000172,0.,0.,0.00000086,0.,0.,-0.00466738,0.,0.,0.02600481,0.
 00001652,0.00002143,0.,0.00000342,-0.00002773,0.,-0.00002905,0.0000116
 0,0.,0.00003497,-0.00003670,0.,-0.00005825,0.00001643,0.,0.00005803,-0
 .00001844,0.,-0.00006012,-0.00001331,0.,0.00000631,0.00003691,0.,-0.00
 003917,0.00000969,0.,0.00003857,0.00002292,0.,-0.00024982,0.00009806,0
 .,0.00034463,0.00019103,0.,-0.00037009,-0.00005847,0.,0.00057674,-0.00
 148661,0.,-0.00011850,0.00001098,0.,-0.00006071,-0.00017060,0.,0.00001
 197,-0.00007002,0.,0.00012383,0.00008946,0.,-0.00007267,-0.00002453,0.
 ,0.00002076,0.00000276,0.,-0.00004375,-0.00002092,0.,0.00003435,0.0000
 4042,0.,-0.00001044,-0.00001308,0.,0.00000258,0.00001097,0.,-0.0000297
 6,-0.00000319,0.,0.00003853,0.00001473,0.,-0.00574303,-0.00010777,0.,-
 0.00123310,0.00031539,0.,-0.00236765,0.00356060,0.,0.01123070,0.020787
 37,0.,-0.08920009,-0.08495406,0.,-0.00543241,-0.03101159,0.,-0.0000012
 4,0.00000153,0.,-0.00000146,-0.00000066,0.,-0.00000020,-0.00000089,0.,
 -0.00000103,-0.00000073,0.,-0.00000771,-0.00000332,0.,-0.00000092,-0.0
 0000404,0.,0.00000016,-0.00001097,0.,-0.00000939,-0.00008070,0.,-0.000
 01570,0.00001459,0.,-0.00000339,0.00001013,0.,-0.00000067,0.00000505,0
 .,-0.00000311,0.00000067,0.,0.00033699,0.00105090,0.,0.00076156,-0.000
 57593,0.,0.09066305,-0.00001924,-0.00000622,0.,-0.00000248,0.00001473,
 0.,0.00000923,0.00000491,0.,-0.00001148,-0.00000368,0.,0.00001412,0.00
 000345,0.,-0.00002322,-0.00001129,0.,0.00001340,-0.00001101,0.,-0.0000
 2997,0.00000500,0.,-0.00000245,-0.00001472,0.,-0.00000401,0.00002013,0
 .,0.00004948,-0.00000324,0.,-0.00010884,-0.00003419,0.,-0.00020416,0.0
 0007676,0.,0.00009592,-0.00020632,0.,0.00000443,-0.00007462,0.,0.00005
 142,-0.00001681,0.,-0.00002548,0.00001921,0.,-0.00002661,-0.00001217,0
 .,0.00000655,-0.00003447,0.,0.00001000,0.00001427,0.,0.00000336,0.0000
 0876,0.,-0.00001603,-0.00000028,0.,0.00000598,-0.00001699,0.,-0.000007
 31,0.00000107,0.,0.00000336,-0.00000228,0.,-0.00001189,0.00000358,0.,-
 0.00059879,0.00178892,0.,0.00062665,0.00058683,0.,0.00418376,-0.001804
 54,0.,-0.01076348,-0.01696335,0.,-0.08577828,-0.31361597,0.,0.00085276
 ,-0.00190268,0.,-0.00000190,0.00000233,0.,-0.00000372,-0.00000041,0.,0
 .00000044,-0.00000266,0.,-0.00000051,-0.00000200,0.,-0.00000317,-0.000
 00269,0.,-0.00000545,-0.00000442,0.,0.00000523,-0.00000014,0.,0.000019
 04,0.00003329,0.,0.00001144,-0.00001080,0.,0.00000178,0.00000657,0.,0.
 00000130,0.00000482,0.,-0.00000401,0.00000141,0.,-0.00050917,-0.000962
 78,0.,0.00032995,0.00077993,0.,0.09217502,0.33140755,0.,0.,-0.00000071
 ,0.,0.,-0.00000063,0.,0.,-0.00000159,0.,0.,-0.00000016,0.,0.,0.0000020
 1,0.,0.,-0.00001163,0.,0.,0.00000223,0.,0.,-0.00006248,0.,0.,-0.000017
 29,0.,0.,0.00011057,0.,0.,0.00010475,0.,0.,-0.00090871,0.,0.,-0.000423
 55,0.,0.,0.00015468,0.,0.,0.00027615,0.,0.,-0.00000546,0.,0.,0.0000558
 8,0.,0.,-0.00009338,0.,0.,0.00001868,0.,0.,-0.00000858,0.,0.,0.0000160
 6,0.,0.,-0.00002083,0.,0.,-0.00000015,0.,0.,-0.00000239,0.,0.,0.000001
 73,0.,0.,-0.00000323,0.,0.,0.00881220,0.,0.,-0.00108264,0.,0.,0.006537
 83,0.,0.,0.00228794,0.,0.,-0.03618862,0.,0.,0.00257371,0.,0.,0.0000005
 9,0.,0.,0.00000070,0.,0.,0.00000087,0.,0.,-0.00000087,0.,0.,0.00002910
 ,0.,0.,-0.00001701,0.,0.,0.00000114,0.,0.,0.00004151,0.,0.,-0.00005840
 ,0.,0.,0.00000742,0.,0.,0.00000226,0.,0.,0.00000170,0.,0.,0.00008903,0
 .,0.,-0.00309543,0.,0.,0.02550707,-0.00000192,-0.00002217,0.,-0.000014
 40,0.00002014,0.,0.00003308,-0.00001049,0.,-0.00003456,0.00004673,0.,0
 .00004891,-0.00000681,0.,-0.00002886,0.00001390,0.,0.00003378,0.000032
 57,0.,-0.00001033,-0.00006091,0.,0.00003020,-0.00001329,0.,-0.00004204
 ,0.00001384,0.,0.00019653,0.00002121,0.,0.00040387,-0.00046054,0.,0.00
 011654,0.00014507,0.,-0.00107485,0.00094427,0.,-0.00109854,-0.00188427
 ,0.,0.00002429,0.00013805,0.,0.00001051,0.00001975,0.,-0.00012204,0.00
 018454,0.,0.00006618,-0.00002924,0.,-0.00002061,0.00003272,0.,0.000031
 72,0.00001241,0.,-0.00004973,-0.00003958,0.,0.00001257,0.00002290,0.,-
 0.00000379,-0.00002386,0.,0.00003505,0.00000031,0.,-0.00003109,-0.0000
 0594,0.,0.01177440,-0.00711606,0.,-0.00008632,-0.00265293,0.,-0.000393
 87,-0.00105044,0.,-0.00517124,-0.00240479,0.,-0.01600457,0.02650446,0.
 ,-0.17112948,0.13841875,0.,0.00000135,-0.00000330,0.,0.00000507,0.0000
 0161,0.,-0.00000065,0.00000276,0.,0.00000235,0.00000185,0.,0.00000725,
 0.00000503,0.,-0.00000042,0.00000663,0.,0.00000265,0.00001647,0.,-0.00
 004957,-0.00017894,0.,-0.00417196,-0.00158769,0.,-0.00002219,0.0000102
 8,0.,-0.00000319,-0.00000517,0.,0.00000621,-0.00000078,0.,0.00002472,0
 .00009155,0.,-0.00085884,0.00118428,0.,0.00085979,-0.00031297,0.,0.186
 69805,-0.00000634,-0.00000124,0.,-0.00001275,0.00001255,0.,0.00001991,
 0.00000713,0.,-0.00000336,0.00001581,0.,0.00000850,0.00003912,0.,0.000
 04398,-0.00004923,0.,-0.00002015,0.00008090,0.,-0.00001111,-0.00015226
 ,0.,0.00002550,-0.00008952,0.,-0.00009247,0.00014373,0.,0.00013760,-0.
 00001562,0.,0.00139488,-0.00052336,0.,-0.00006966,-0.00009989,0.,0.001
 45330,0.00054304,0.,0.00040442,-0.00088239,0.,0.00008475,0.00010010,0.
 ,0.00016780,0.00004423,0.,-0.00030376,0.00088435,0.,0.00000861,-0.0000
 0317,0.,-0.00002693,0.00011953,0.,-0.00001795,0.00000752,0.,-0.0000347
 6,-0.00004703,0.,0.00001776,0.00002973,0.,-0.00000309,-0.00003602,0.,0
 .00002017,-0.00001377,0.,-0.00002407,0.00001549,0.,0.02100674,-0.01725
 193,0.,-0.00355322,-0.00390390,0.,-0.00096294,-0.00020415,0.,-0.001620
 02,0.00119593,0.,-0.00596836,0.00768525,0.,0.13934909,-0.23036494,0.,-
 0.00000066,-0.00000143,0.,0.00000264,0.00000173,0.,0.00000062,0.000001
 85,0.,0.00000788,0.00000380,0.,0.00000628,0.00000968,0.,-0.00001740,0.
 00000985,0.,0.00000508,0.00001756,0.,-0.00014061,-0.00046119,0.,-0.001
 23107,0.00147787,0.,-0.00003319,0.00002261,0.,-0.00000315,-0.00000036,
 0.,0.00000454,0.00000183,0.,0.00012677,-0.00000651,0.,-0.00031354,0.00
 019318,0.,0.00019563,0.00093721,0.,-0.15002191,0.24050637,0.,0.,-0.000
 00164,0.,0.,-0.00000089,0.,0.,0.00000271,0.,0.,-0.00000586,0.,0.,-0.00
 001257,0.,0.,0.00000889,0.,0.,-0.00001069,0.,0.,0.00000343,0.,0.,-0.00
 001798,0.,0.,0.00006506,0.,0.,-0.00022148,0.,0.,0.00021685,0.,0.,-0.00
 009448,0.,0.,-0.00275108,0.,0.,-0.00061777,0.,0.,0.00015881,0.,0.,-0.0
 0006149,0.,0.,-0.00011916,0.,0.,-0.00009606,0.,0.,0.00010128,0.,0.,-0.
 00006547,0.,0.,0.00005679,0.,0.,-0.00002925,0.,0.,0.00000097,0.,0.,-0.
 00000453,0.,0.,0.00002340,0.,0.,0.00269233,0.,0.,0.00622328,0.,0.,-0.0
 0096003,0.,0.,0.00873515,0.,0.,0.00345811,0.,0.,-0.03646925,0.,0.,0.00
 000099,0.,0.,0.00000083,0.,0.,-0.00000046,0.,0.,0.00000216,0.,0.,0.000
 00472,0.,0.,-0.00000058,0.,0.,-0.00001199,0.,0.,0.00001916,0.,0.,0.001
 76435,0.,0.,0.00004060,0.,0.,0.00001102,0.,0.,0.00000313,0.,0.,-0.0011
 0209,0.,0.,-0.00002611,0.,0.,-0.00463203,0.,0.,0.02371891\\-0.00000214
 ,-0.00000537,0.,-0.00000176,0.00000172,0.,0.00000483,-0.00000314,0.,-0
 .00000513,0.00000335,0.,0.00001155,-0.00000269,0.,-0.00000979,-0.00000
 346,0.,0.00001052,0.00000045,0.,-0.00000750,-0.00000315,0.,0.00000690,
 -0.00000070,0.,-0.00000348,-0.00000150,0.,0.00000700,0.00000149,0.,-0.
 00000510,-0.00000162,0.,-0.00000257,0.00000115,0.,-0.00000615,0.000002
 87,0.,0.00000952,-0.00000232,0.,0.00000359,0.00000476,0.,0.00000424,0.
 00000020,0.,-0.00000537,-0.00000041,0.,-0.00000212,-0.00000139,0.,-0.0
 0000609,0.00000396,0.,0.00001038,-0.00000233,0.,-0.00000064,-0.0000012
 8,0.,-0.00000506,-0.00000008,0.,0.00000090,0.00000052,0.,0.00000276,-0
 .00000369,0.,-0.00000795,-0.00000361,0.,0.00000539,0.00000045,0.,0.000
 00052,0.00000558,0.,-0.00000151,0.00000253,0.,0.00000145,0.00000216,0.
 ,-0.00000050,0.00000302,0.,-0.00000498,-0.00000136,0.,-0.00000080,-0.0
 0000198,0.,0.00000030,-0.00000259,0.,0.00000064,-0.00000197,0.,-0.0000
 0029,-0.00000093,0.,0.00000005,-0.00000049,0.,0.00000052,0.00000077,0.
 ,0.00000256,0.00000199,0.,0.00000210,0.00000236,0.,-0.00000218,0.00000
 151,0.,-0.00000016,-0.00000008,0.,-0.00000031,-0.00000147,0.,-0.000001
 95,-0.00000238,0.,0.00000051,0.00000211,0.,-0.00000072,0.00000251,0.,-
 0.00000138,0.00000209,0.,-0.00000061,0.00000242,0.\\\@


 THE ONLY DIFFERENCE BETWEEN ECCENTRICS AND JOGGERS
 IS THAT JOGGERS WEAR SWEATBANDS WHEN THEY RUN IN THE RAIN.
 Job cpu time:       4 days 16 hours 28 minutes 46.2 seconds.
 File lengths (MBytes):  RWF=   4430 Int=      0 D2E=      0 Chk=     85 Scr=      1
 Normal termination of Gaussian 09 at Sun Jul 28 03:10:31 2019.
