 Entering Gaussian System, Link 0=g09
 Initial command:
 /home/minenky/programs//g09/l1.exe "/local/scratch/minenky/m1_00_7396-38-5-C18H18_wB97XD/Gau-98766.inp" -scrdir="/local/scratch/minenky/m1_00_7396-38-5-C18H18_wB97XD/"
 Entering Link 1 = /home/minenky/programs//g09/l1.exe PID=     98767.
  
 Copyright (c) 1988,1990,1992,1993,1995,1998,2003,2009,2013,
            Gaussian, Inc.  All Rights Reserved.
  
 This is part of the Gaussian(R) 09 program.  It is based on
 the Gaussian(R) 03 system (copyright 2003, Gaussian, Inc.),
 the Gaussian(R) 98 system (copyright 1998, Gaussian, Inc.),
 the Gaussian(R) 94 system (copyright 1995, Gaussian, Inc.),
 the Gaussian 92(TM) system (copyright 1992, Gaussian, Inc.),
 the Gaussian 90(TM) system (copyright 1990, Gaussian, Inc.),
 the Gaussian 88(TM) system (copyright 1988, Gaussian, Inc.),
 the Gaussian 86(TM) system (copyright 1986, Carnegie Mellon
 University), and the Gaussian 82(TM) system (copyright 1983,
 Carnegie Mellon University). Gaussian is a federally registered
 trademark of Gaussian, Inc.
  
 This software contains proprietary and confidential information,
 including trade secrets, belonging to Gaussian, Inc.
  
 This software is provided under written license and may be
 used, copied, transmitted, or stored only in accord with that
 written license.
  
 The following legend is applicable only to US Government
 contracts under FAR:
  
                    RESTRICTED RIGHTS LEGEND
  
 Use, reproduction and disclosure by the US Government is
 subject to restrictions as set forth in subparagraphs (a)
 and (c) of the Commercial Computer Software - Restricted
 Rights clause in FAR 52.227-19.
  
 Gaussian, Inc.
 340 Quinnipiac St., Bldg. 40, Wallingford CT 06492
  
  
 ---------------------------------------------------------------
 Warning -- This program may not be used in any manner that
 competes with the business of Gaussian, Inc. or will provide
 assistance to any competitor of Gaussian, Inc.  The licensee
 of this program is prohibited from giving any competitor of
 Gaussian, Inc. access to this program.  By using this program,
 the user acknowledges that Gaussian, Inc. is engaged in the
 business of creating and licensing software in the field of
 computational chemistry and represents and warrants to the
 licensee that it is not a competitor of Gaussian, Inc. and that
 it will not use this program in any manner prohibited above.
 ---------------------------------------------------------------
  

 Cite this work as:
 Gaussian 09, Revision D.01,
 M. J. Frisch, G. W. Trucks, H. B. Schlegel, G. E. Scuseria, 
 M. A. Robb, J. R. Cheeseman, G. Scalmani, V. Barone, B. Mennucci, 
 G. A. Petersson, H. Nakatsuji, M. Caricato, X. Li, H. P. Hratchian, 
 A. F. Izmaylov, J. Bloino, G. Zheng, J. L. Sonnenberg, M. Hada, 
 M. Ehara, K. Toyota, R. Fukuda, J. Hasegawa, M. Ishida, T. Nakajima, 
 Y. Honda, O. Kitao, H. Nakai, T. Vreven, J. A. Montgomery, Jr., 
 J. E. Peralta, F. Ogliaro, M. Bearpark, J. J. Heyd, E. Brothers, 
 K. N. Kudin, V. N. Staroverov, T. Keith, R. Kobayashi, J. Normand, 
 K. Raghavachari, A. Rendell, J. C. Burant, S. S. Iyengar, J. Tomasi, 
 M. Cossi, N. Rega, J. M. Millam, M. Klene, J. E. Knox, J. B. Cross, 
 V. Bakken, C. Adamo, J. Jaramillo, R. Gomperts, R. E. Stratmann, 
 O. Yazyev, A. J. Austin, R. Cammi, C. Pomelli, J. W. Ochterski, 
 R. L. Martin, K. Morokuma, V. G. Zakrzewski, G. A. Voth, 
 P. Salvador, J. J. Dannenberg, S. Dapprich, A. D. Daniels, 
 O. Farkas, J. B. Foresman, J. V. Ortiz, J. Cioslowski, 
 and D. J. Fox, Gaussian, Inc., Wallingford CT, 2013.
 
 ******************************************
 Gaussian 09:  AM64L-G09RevD.01 24-Apr-2013
                 9-Jul-2021 
 ******************************************
 %Mem=32000MB
 %NProcShared=16
 Will use up to   16 processors via shared memory.
 %Chk=m1_00_7396-38-5-C18H18_wB97XD
 ----------------------------------------------------------------------
 #P wB97XD/def2tzvp opt=(tight) freq integral(Grid=ultrafine) # SCF(Max
 Cycle=380) 5d 7f GFPrint
 ----------------------------------------------------------------------
 1/7=10,14=-1,18=20,19=15,26=4,38=1/1,3;
 2/9=110,12=2,17=6,18=5,40=1/2;
 3/5=44,7=101,8=11,11=2,16=1,24=100,25=1,30=1,71=1,74=-58,75=-5/1,2,3;
 4//1;
 5/5=2,7=380,38=5/2;
 6/7=2,8=2,9=2,10=2,28=1/1;
 7//1,2,3,16;
 1/7=10,14=-1,18=20,19=15,26=4/3(2);
 2/9=110/2;
 99//99;
 2/9=110/2;
 3/5=44,7=101,8=11,11=2,16=1,25=1,30=1,71=1,74=-58,75=-5/1,2,3;
 4/5=5,16=3,69=1/1;
 5/5=2,7=380,38=5/2;
 7//1,2,3,16;
 1/7=10,14=-1,18=20,19=15,26=4/3(-5);
 2/9=110/2;
 6/7=2,8=2,9=2,10=2,19=2,28=1/1;
 99/9=1/99;
 Leave Link    1 at Fri Jul  9 19:19:35 2021, MaxMem=  4194304000 cpu:         1.0
 (Enter /home/minenky/programs//g09/l101.exe)
 ---------------------------------------
 The PBEPBE optimization and frequencies
 ---------------------------------------
 Symbolic Z-matrix:
 Charge =  0 Multiplicity = 1
 C                     0.97264   2.35354   1.11039 
 C                     1.52557   1.13035   0.41869 
 C                     0.7278    0.01576   0.04258 
 C                     2.90474   1.04141   0.31417 
 C                    -0.7278    0.01576  -0.0426 
 C                     1.40545  -1.22168  -0.15562 
 C                     3.56885  -0.12449  -0.08631 
 C                    -1.40545  -1.22168   0.1556 
 C                    -1.52558   1.13034  -0.4187 
 C                     2.80482  -1.25809  -0.26341 
 C                     0.66356  -2.44544  -0.12659 
 C                     5.06365  -0.14196  -0.24015 
 C                    -2.80482  -1.25809   0.26342 
 C                    -0.66355  -2.44544   0.12656 
 C                    -0.97265   2.35353  -1.11042 
 C                    -2.90474   1.04141  -0.31415 
 C                    -3.56885  -0.1245    0.08633 
 C                    -5.06364  -0.14197   0.2402 
 H                     1.01577   3.24678   0.48637 
 H                     1.57227   2.55443   1.99963 
 H                    -0.05709   2.21266   1.42871 
 H                     3.49775   1.90074   0.60972 
 H                     3.28385  -2.21187  -0.4528 
 H                     1.20716  -3.37567  -0.2373 
 H                     5.55556   0.35482   0.59873 
 H                     5.36805   0.38343  -1.14955 
 H                     5.44404  -1.16157  -0.30311 
 H                    -3.28384  -2.21188   0.45281 
 H                    -1.20715  -3.37568   0.23727 
 H                    -1.01582   3.24678  -0.48643 
 H                    -1.57227   2.55438  -1.99968 
 H                     0.05709   2.21266  -1.42871 
 H                    -3.49776   1.90074  -0.60969 
 H                    -5.36803   0.38344   1.1496 
 H                    -5.44403  -1.16157   0.30318 
 H                    -5.55557   0.35481  -0.59868 
 
 NAtoms=     36 NQM=       36 NQMF=       0 NMMI=      0 NMMIF=      0
                NMic=       0 NMicF=      0.
                    Isotopes and Nuclear Properties:
 (Nuclear quadrupole moments (NQMom) in fm**2, nuclear magnetic moments (NMagM)
  in nuclear magnetons)

  Atom         1           2           3           4           5           6           7           8           9          10
 IAtWgt=          12          12          12          12          12          12          12          12          12          12
 AtmWgt=  12.0000000  12.0000000  12.0000000  12.0000000  12.0000000  12.0000000  12.0000000  12.0000000  12.0000000  12.0000000
 NucSpn=           0           0           0           0           0           0           0           0           0           0
 AtZEff=   0.0000000   0.0000000   0.0000000   0.0000000   0.0000000   0.0000000   0.0000000   0.0000000   0.0000000   0.0000000
 NQMom=    0.0000000   0.0000000   0.0000000   0.0000000   0.0000000   0.0000000   0.0000000   0.0000000   0.0000000   0.0000000
 NMagM=    0.0000000   0.0000000   0.0000000   0.0000000   0.0000000   0.0000000   0.0000000   0.0000000   0.0000000   0.0000000
 AtZNuc=   6.0000000   6.0000000   6.0000000   6.0000000   6.0000000   6.0000000   6.0000000   6.0000000   6.0000000   6.0000000

  Atom        11          12          13          14          15          16          17          18          19          20
 IAtWgt=          12          12          12          12          12          12          12          12           1           1
 AtmWgt=  12.0000000  12.0000000  12.0000000  12.0000000  12.0000000  12.0000000  12.0000000  12.0000000   1.0078250   1.0078250
 NucSpn=           0           0           0           0           0           0           0           0           1           1
 AtZEff=   0.0000000   0.0000000   0.0000000   0.0000000   0.0000000   0.0000000   0.0000000   0.0000000   0.0000000   0.0000000
 NQMom=    0.0000000   0.0000000   0.0000000   0.0000000   0.0000000   0.0000000   0.0000000   0.0000000   0.0000000   0.0000000
 NMagM=    0.0000000   0.0000000   0.0000000   0.0000000   0.0000000   0.0000000   0.0000000   0.0000000   2.7928460   2.7928460
 AtZNuc=   6.0000000   6.0000000   6.0000000   6.0000000   6.0000000   6.0000000   6.0000000   6.0000000   1.0000000   1.0000000

  Atom        21          22          23          24          25          26          27          28          29          30
 IAtWgt=           1           1           1           1           1           1           1           1           1           1
 AtmWgt=   1.0078250   1.0078250   1.0078250   1.0078250   1.0078250   1.0078250   1.0078250   1.0078250   1.0078250   1.0078250
 NucSpn=           1           1           1           1           1           1           1           1           1           1
 AtZEff=   0.0000000   0.0000000   0.0000000   0.0000000   0.0000000   0.0000000   0.0000000   0.0000000   0.0000000   0.0000000
 NQMom=    0.0000000   0.0000000   0.0000000   0.0000000   0.0000000   0.0000000   0.0000000   0.0000000   0.0000000   0.0000000
 NMagM=    2.7928460   2.7928460   2.7928460   2.7928460   2.7928460   2.7928460   2.7928460   2.7928460   2.7928460   2.7928460
 AtZNuc=   1.0000000   1.0000000   1.0000000   1.0000000   1.0000000   1.0000000   1.0000000   1.0000000   1.0000000   1.0000000

  Atom        31          32          33          34          35          36
 IAtWgt=           1           1           1           1           1           1
 AtmWgt=   1.0078250   1.0078250   1.0078250   1.0078250   1.0078250   1.0078250
 NucSpn=           1           1           1           1           1           1
 AtZEff=   0.0000000   0.0000000   0.0000000   0.0000000   0.0000000   0.0000000
 NQMom=    0.0000000   0.0000000   0.0000000   0.0000000   0.0000000   0.0000000
 NMagM=    2.7928460   2.7928460   2.7928460   2.7928460   2.7928460   2.7928460
 AtZNuc=   1.0000000   1.0000000   1.0000000   1.0000000   1.0000000   1.0000000
 Leave Link  101 at Fri Jul  9 19:19:35 2021, MaxMem=  4194304000 cpu:         1.3
 (Enter /home/minenky/programs//g09/l103.exe)

 GradGradGradGradGradGradGradGradGradGradGradGradGradGradGradGradGradGrad
 Berny optimization.
 Initialization pass.
                           ----------------------------
                           !    Initial Parameters    !
                           ! (Angstroms and Degrees)  !
 --------------------------                            --------------------------
 ! Name  Definition              Value          Derivative Info.                !
 --------------------------------------------------------------------------------
 ! R1    R(1,2)                  1.5101         estimate D2E/DX2                !
 ! R2    R(1,19)                 1.0905         estimate D2E/DX2                !
 ! R3    R(1,20)                 1.0912         estimate D2E/DX2                !
 ! R4    R(1,21)                 1.087          estimate D2E/DX2                !
 ! R5    R(2,3)                  1.4213         estimate D2E/DX2                !
 ! R6    R(2,4)                  1.386          estimate D2E/DX2                !
 ! R7    R(3,5)                  1.4581         estimate D2E/DX2                !
 ! R8    R(3,6)                  1.4247         estimate D2E/DX2                !
 ! R9    R(4,7)                  1.4003         estimate D2E/DX2                !
 ! R10   R(4,22)                 1.0851         estimate D2E/DX2                !
 ! R11   R(5,8)                  1.4247         estimate D2E/DX2                !
 ! R12   R(5,9)                  1.4213         estimate D2E/DX2                !
 ! R13   R(6,10)                 1.404          estimate D2E/DX2                !
 ! R14   R(6,11)                 1.4314         estimate D2E/DX2                !
 ! R15   R(7,10)                 1.3785         estimate D2E/DX2                !
 ! R16   R(7,12)                 1.5028         estimate D2E/DX2                !
 ! R17   R(8,13)                 1.404          estimate D2E/DX2                !
 ! R18   R(8,14)                 1.4314         estimate D2E/DX2                !
 ! R19   R(9,15)                 1.5101         estimate D2E/DX2                !
 ! R20   R(9,16)                 1.386          estimate D2E/DX2                !
 ! R21   R(10,23)                1.084          estimate D2E/DX2                !
 ! R22   R(11,14)                1.351          estimate D2E/DX2                !
 ! R23   R(11,24)                1.0831         estimate D2E/DX2                !
 ! R24   R(12,25)                1.092          estimate D2E/DX2                !
 ! R25   R(12,26)                1.0935         estimate D2E/DX2                !
 ! R26   R(12,27)                1.0901         estimate D2E/DX2                !
 ! R27   R(13,17)                1.3785         estimate D2E/DX2                !
 ! R28   R(13,28)                1.084          estimate D2E/DX2                !
 ! R29   R(14,29)                1.0831         estimate D2E/DX2                !
 ! R30   R(15,30)                1.0905         estimate D2E/DX2                !
 ! R31   R(15,31)                1.0912         estimate D2E/DX2                !
 ! R32   R(15,32)                1.087          estimate D2E/DX2                !
 ! R33   R(16,17)                1.4003         estimate D2E/DX2                !
 ! R34   R(16,33)                1.0851         estimate D2E/DX2                !
 ! R35   R(17,18)                1.5028         estimate D2E/DX2                !
 ! R36   R(18,34)                1.0935         estimate D2E/DX2                !
 ! R37   R(18,35)                1.0901         estimate D2E/DX2                !
 ! R38   R(18,36)                1.092          estimate D2E/DX2                !
 ! A1    A(2,1,19)             112.762          estimate D2E/DX2                !
 ! A2    A(2,1,20)             108.7355         estimate D2E/DX2                !
 ! A3    A(2,1,21)             112.0882         estimate D2E/DX2                !
 ! A4    A(19,1,20)            107.0857         estimate D2E/DX2                !
 ! A5    A(19,1,21)            108.1323         estimate D2E/DX2                !
 ! A6    A(20,1,21)            107.8058         estimate D2E/DX2                !
 ! A7    A(1,2,3)              123.4277         estimate D2E/DX2                !
 ! A8    A(1,2,4)              116.8001         estimate D2E/DX2                !
 ! A9    A(3,2,4)              119.2255         estimate D2E/DX2                !
 ! A10   A(2,3,5)              125.1545         estimate D2E/DX2                !
 ! A11   A(2,3,6)              116.8048         estimate D2E/DX2                !
 ! A12   A(5,3,6)              117.8208         estimate D2E/DX2                !
 ! A13   A(2,4,7)              123.1575         estimate D2E/DX2                !
 ! A14   A(2,4,22)             118.1941         estimate D2E/DX2                !
 ! A15   A(7,4,22)             118.5602         estimate D2E/DX2                !
 ! A16   A(3,5,8)              117.8208         estimate D2E/DX2                !
 ! A17   A(3,5,9)              125.1545         estimate D2E/DX2                !
 ! A18   A(8,5,9)              116.8048         estimate D2E/DX2                !
 ! A19   A(3,6,10)             120.4836         estimate D2E/DX2                !
 ! A20   A(3,6,11)             119.5532         estimate D2E/DX2                !
 ! A21   A(10,6,11)            119.7347         estimate D2E/DX2                !
 ! A22   A(4,7,10)             117.2962         estimate D2E/DX2                !
 ! A23   A(4,7,12)             120.7111         estimate D2E/DX2                !
 ! A24   A(10,7,12)            121.9113         estimate D2E/DX2                !
 ! A25   A(5,8,13)             120.4835         estimate D2E/DX2                !
 ! A26   A(5,8,14)             119.5531         estimate D2E/DX2                !
 ! A27   A(13,8,14)            119.7349         estimate D2E/DX2                !
 ! A28   A(5,9,15)             123.4276         estimate D2E/DX2                !
 ! A29   A(5,9,16)             119.2256         estimate D2E/DX2                !
 ! A30   A(15,9,16)            116.8001         estimate D2E/DX2                !
 ! A31   A(6,10,7)             121.4162         estimate D2E/DX2                !
 ! A32   A(6,10,23)            118.4697         estimate D2E/DX2                !
 ! A33   A(7,10,23)            120.0722         estimate D2E/DX2                !
 ! A34   A(6,11,14)            120.859          estimate D2E/DX2                !
 ! A35   A(6,11,24)            118.1694         estimate D2E/DX2                !
 ! A36   A(14,11,24)           120.8079         estimate D2E/DX2                !
 ! A37   A(7,12,25)            111.3545         estimate D2E/DX2                !
 ! A38   A(7,12,26)            110.8825         estimate D2E/DX2                !
 ! A39   A(7,12,27)            111.3392         estimate D2E/DX2                !
 ! A40   A(25,12,26)           107.1513         estimate D2E/DX2                !
 ! A41   A(25,12,27)           108.2211         estimate D2E/DX2                !
 ! A42   A(26,12,27)           107.7125         estimate D2E/DX2                !
 ! A43   A(8,13,17)            121.4162         estimate D2E/DX2                !
 ! A44   A(8,13,28)            118.4697         estimate D2E/DX2                !
 ! A45   A(17,13,28)           120.0722         estimate D2E/DX2                !
 ! A46   A(8,14,11)            120.8591         estimate D2E/DX2                !
 ! A47   A(8,14,29)            118.1693         estimate D2E/DX2                !
 ! A48   A(11,14,29)           120.8079         estimate D2E/DX2                !
 ! A49   A(9,15,30)            112.7619         estimate D2E/DX2                !
 ! A50   A(9,15,31)            108.7353         estimate D2E/DX2                !
 ! A51   A(9,15,32)            112.0883         estimate D2E/DX2                !
 ! A52   A(30,15,31)           107.0857         estimate D2E/DX2                !
 ! A53   A(30,15,32)           108.1326         estimate D2E/DX2                !
 ! A54   A(31,15,32)           107.8056         estimate D2E/DX2                !
 ! A55   A(9,16,17)            123.1574         estimate D2E/DX2                !
 ! A56   A(9,16,33)            118.1942         estimate D2E/DX2                !
 ! A57   A(17,16,33)           118.5603         estimate D2E/DX2                !
 ! A58   A(13,17,16)           117.2962         estimate D2E/DX2                !
 ! A59   A(13,17,18)           121.9112         estimate D2E/DX2                !
 ! A60   A(16,17,18)           120.7111         estimate D2E/DX2                !
 ! A61   A(17,18,34)           110.8824         estimate D2E/DX2                !
 ! A62   A(17,18,35)           111.3392         estimate D2E/DX2                !
 ! A63   A(17,18,36)           111.3545         estimate D2E/DX2                !
 ! A64   A(34,18,35)           107.7125         estimate D2E/DX2                !
 ! A65   A(34,18,36)           107.1513         estimate D2E/DX2                !
 ! A66   A(35,18,36)           108.2212         estimate D2E/DX2                !
 ! D1    D(19,1,2,3)          -112.942          estimate D2E/DX2                !
 ! D2    D(19,1,2,4)            75.6212         estimate D2E/DX2                !
 ! D3    D(20,1,2,3)           128.454          estimate D2E/DX2                !
 ! D4    D(20,1,2,4)           -42.9829         estimate D2E/DX2                !
 ! D5    D(21,1,2,3)             9.3681         estimate D2E/DX2                !
 ! D6    D(21,1,2,4)          -162.0687         estimate D2E/DX2                !
 ! D7    D(1,2,3,5)             15.9875         estimate D2E/DX2                !
 ! D8    D(1,2,3,6)           -158.4866         estimate D2E/DX2                !
 ! D9    D(4,2,3,5)           -172.7722         estimate D2E/DX2                !
 ! D10   D(4,2,3,6)             12.7536         estimate D2E/DX2                !
 ! D11   D(1,2,4,7)            168.5961         estimate D2E/DX2                !
 ! D12   D(1,2,4,22)            -7.9377         estimate D2E/DX2                !
 ! D13   D(3,2,4,7)             -3.2174         estimate D2E/DX2                !
 ! D14   D(3,2,4,22)          -179.7512         estimate D2E/DX2                !
 ! D15   D(2,3,5,8)           -152.6989         estimate D2E/DX2                !
 ! D16   D(2,3,5,9)             32.8772         estimate D2E/DX2                !
 ! D17   D(6,3,5,8)             21.7242         estimate D2E/DX2                !
 ! D18   D(6,3,5,9)           -152.6997         estimate D2E/DX2                !
 ! D19   D(2,3,6,10)           -13.6201         estimate D2E/DX2                !
 ! D20   D(2,3,6,11)           160.8735         estimate D2E/DX2                !
 ! D21   D(5,3,6,10)           171.4872         estimate D2E/DX2                !
 ! D22   D(5,3,6,11)           -14.0192         estimate D2E/DX2                !
 ! D23   D(2,4,7,10)            -5.9763         estimate D2E/DX2                !
 ! D24   D(2,4,7,12)           177.2437         estimate D2E/DX2                !
 ! D25   D(22,4,7,10)          170.5455         estimate D2E/DX2                !
 ! D26   D(22,4,7,12)           -6.2345         estimate D2E/DX2                !
 ! D27   D(3,5,8,13)           171.4862         estimate D2E/DX2                !
 ! D28   D(3,5,8,14)           -14.0199         estimate D2E/DX2                !
 ! D29   D(9,5,8,13)           -13.6203         estimate D2E/DX2                !
 ! D30   D(9,5,8,14)           160.8736         estimate D2E/DX2                !
 ! D31   D(3,5,9,15)            15.9891         estimate D2E/DX2                !
 ! D32   D(3,5,9,16)          -172.7708         estimate D2E/DX2                !
 ! D33   D(8,5,9,15)          -158.4858         estimate D2E/DX2                !
 ! D34   D(8,5,9,16)            12.7543         estimate D2E/DX2                !
 ! D35   D(3,6,10,7)             4.7273         estimate D2E/DX2                !
 ! D36   D(3,6,10,23)         -177.628          estimate D2E/DX2                !
 ! D37   D(11,6,10,7)         -169.7563         estimate D2E/DX2                !
 ! D38   D(11,6,10,23)           7.8884         estimate D2E/DX2                !
 ! D39   D(3,6,11,14)           -2.0271         estimate D2E/DX2                !
 ! D40   D(3,6,11,24)         -177.4146         estimate D2E/DX2                !
 ! D41   D(10,6,11,14)         172.5082         estimate D2E/DX2                !
 ! D42   D(10,6,11,24)          -2.8793         estimate D2E/DX2                !
 ! D43   D(4,7,10,6)             5.1527         estimate D2E/DX2                !
 ! D44   D(4,7,10,23)         -172.4547         estimate D2E/DX2                !
 ! D45   D(12,7,10,6)         -178.1086         estimate D2E/DX2                !
 ! D46   D(12,7,10,23)           4.284          estimate D2E/DX2                !
 ! D47   D(4,7,12,25)           44.532          estimate D2E/DX2                !
 ! D48   D(4,7,12,26)          -74.6811         estimate D2E/DX2                !
 ! D49   D(4,7,12,27)          165.4086         estimate D2E/DX2                !
 ! D50   D(10,7,12,25)        -132.097          estimate D2E/DX2                !
 ! D51   D(10,7,12,26)         108.69           estimate D2E/DX2                !
 ! D52   D(10,7,12,27)         -11.2204         estimate D2E/DX2                !
 ! D53   D(5,8,13,17)            4.7271         estimate D2E/DX2                !
 ! D54   D(5,8,13,28)         -177.6281         estimate D2E/DX2                !
 ! D55   D(14,8,13,17)        -169.7568         estimate D2E/DX2                !
 ! D56   D(14,8,13,28)           7.888          estimate D2E/DX2                !
 ! D57   D(5,8,14,11)           -2.0265         estimate D2E/DX2                !
 ! D58   D(5,8,14,29)         -177.4142         estimate D2E/DX2                !
 ! D59   D(13,8,14,11)         172.5091         estimate D2E/DX2                !
 ! D60   D(13,8,14,29)          -2.8786         estimate D2E/DX2                !
 ! D61   D(5,9,15,30)         -112.9455         estimate D2E/DX2                !
 ! D62   D(5,9,15,31)          128.4506         estimate D2E/DX2                !
 ! D63   D(5,9,15,32)            9.365          estimate D2E/DX2                !
 ! D64   D(16,9,15,30)          75.6178         estimate D2E/DX2                !
 ! D65   D(16,9,15,31)         -42.9861         estimate D2E/DX2                !
 ! D66   D(16,9,15,32)        -162.0716         estimate D2E/DX2                !
 ! D67   D(5,9,16,17)           -3.218          estimate D2E/DX2                !
 ! D68   D(5,9,16,33)         -179.7516         estimate D2E/DX2                !
 ! D69   D(15,9,16,17)         168.5953         estimate D2E/DX2                !
 ! D70   D(15,9,16,33)          -7.9383         estimate D2E/DX2                !
 ! D71   D(6,11,14,8)           10.3181         estimate D2E/DX2                !
 ! D72   D(6,11,14,29)        -174.4162         estimate D2E/DX2                !
 ! D73   D(24,11,14,8)        -174.4164         estimate D2E/DX2                !
 ! D74   D(24,11,14,29)          0.8493         estimate D2E/DX2                !
 ! D75   D(8,13,17,16)           5.153          estimate D2E/DX2                !
 ! D76   D(8,13,17,18)        -178.1083         estimate D2E/DX2                !
 ! D77   D(28,13,17,16)       -172.4546         estimate D2E/DX2                !
 ! D78   D(28,13,17,18)          4.2841         estimate D2E/DX2                !
 ! D79   D(9,16,17,13)          -5.9761         estimate D2E/DX2                !
 ! D80   D(9,16,17,18)         177.2439         estimate D2E/DX2                !
 ! D81   D(33,16,17,13)        170.5455         estimate D2E/DX2                !
 ! D82   D(33,16,17,18)         -6.2345         estimate D2E/DX2                !
 ! D83   D(13,17,18,34)        108.6909         estimate D2E/DX2                !
 ! D84   D(13,17,18,35)        -11.2195         estimate D2E/DX2                !
 ! D85   D(13,17,18,36)       -132.0961         estimate D2E/DX2                !
 ! D86   D(16,17,18,34)        -74.6802         estimate D2E/DX2                !
 ! D87   D(16,17,18,35)        165.4095         estimate D2E/DX2                !
 ! D88   D(16,17,18,36)         44.5328         estimate D2E/DX2                !
 --------------------------------------------------------------------------------
 Trust Radius=3.00D-01 FncErr=1.00D-07 GrdErr=1.00D-06
 Number of steps in this run=    202 maximum allowed number of steps=    216.
 GradGradGradGradGradGradGradGradGradGradGradGradGradGradGradGradGradGrad

 Leave Link  103 at Fri Jul  9 19:19:36 2021, MaxMem=  4194304000 cpu:         0.0
 (Enter /home/minenky/programs//g09/l202.exe)
                          Input orientation:                          
 ---------------------------------------------------------------------
 Center     Atomic      Atomic             Coordinates (Angstroms)
 Number     Number       Type             X           Y           Z
 ---------------------------------------------------------------------
      1          6           0        0.972638    2.353537    1.110387
      2          6           0        1.525571    1.130349    0.418686
      3          6           0        0.727801    0.015763    0.042578
      4          6           0        2.904735    1.041412    0.314169
      5          6           0       -0.727801    0.015760   -0.042600
      6          6           0        1.405454   -1.221675   -0.155616
      7          6           0        3.568854   -0.124494   -0.086308
      8          6           0       -1.405449   -1.221680    0.155599
      9          6           0       -1.525576    1.130344   -0.418696
     10          6           0        2.804822   -1.258087   -0.263412
     11          6           0        0.663560   -2.445442   -0.126586
     12          6           0        5.063645   -0.141961   -0.240153
     13          6           0       -2.804815   -1.258093    0.263415
     14          6           0       -0.663552   -2.445444    0.126560
     15          6           0       -0.972653    2.353526   -1.110416
     16          6           0       -2.904738    1.041410   -0.314152
     17          6           0       -3.568850   -0.124498    0.086331
     18          6           0       -5.063639   -0.141966    0.240203
     19          1           0        1.015769    3.246778    0.486371
     20          1           0        1.572268    2.554429    1.999634
     21          1           0       -0.057092    2.212659    1.428705
     22          1           0        3.497751    1.900740    0.609720
     23          1           0        3.283852   -2.211869   -0.452801
     24          1           0        1.207163   -3.375671   -0.237298
     25          1           0        5.555561    0.354822    0.598734
     26          1           0        5.368048    0.383431   -1.149551
     27          1           0        5.444039   -1.161569   -0.303109
     28          1           0       -3.283843   -2.211876    0.452806
     29          1           0       -1.207153   -3.375675    0.237269
     30          1           0       -1.015824    3.246783   -0.486426
     31          1           0       -1.572267    2.554377   -1.999684
     32          1           0        0.057086    2.212665   -1.428708
     33          1           0       -3.497759    1.900740   -0.609689
     34          1           0       -5.368025    0.383435    1.149601
     35          1           0       -5.444030   -1.161574    0.303177
     36          1           0       -5.555571    0.354808   -0.598680
 ---------------------------------------------------------------------
                    Distance matrix (angstroms):
                    1          2          3          4          5
     1  C    0.000000
     2  C    1.510091   0.000000
     3  C    2.581734   1.421336   0.000000
     4  C    2.467516   1.385975   2.421726   0.000000
     5  C    3.112246   2.555930   1.458092   3.791380   0.000000
     6  C    3.817360   2.424101   1.424692   2.755014   2.468764
     7  C    3.783260   2.450440   2.847431   1.400276   4.299166
     8  C    4.398761   3.767245   2.468764   4.870772   1.424692
     9  C    3.174172   3.163970   2.555929   4.491398   1.421334
    10  C    4.276453   2.793988   2.455675   2.373031   3.761764
    11  C    4.965464   3.718422   2.467848   4.168367   2.828507
    12  C    4.978735   3.817173   4.347914   2.523596   5.796960
    13  C    5.294373   4.947829   3.761762   6.155425   2.455674
    14  C    5.164809   4.202843   2.828508   4.992598   2.467847
    15  C    2.952308   3.174183   3.112246   4.334192   2.581731
    16  C    4.334170   4.491392   3.791378   5.843352   2.421725
    17  C    5.273942   5.257207   4.299162   6.581684   2.847430
    18  C    6.589491   6.713295   5.796957   8.056106   4.347913
    19  H    1.090475   2.178015   3.274040   2.908863   3.709356
    20  H    1.091180   2.128281   3.314818   2.627828   3.988217
    21  H    1.086976   2.167108   2.713624   3.374378   2.727811
    22  H    2.613788   2.125909   3.398148   1.085110   4.672682
    23  H    5.350533   3.875753   3.426535   3.363898   4.606946
    24  H    5.890253   4.564637   3.436560   4.764083   3.909450
    25  H    5.025916   4.107880   4.871503   2.753046   6.325102
    26  H    5.320551   4.216857   4.805023   2.939953   6.206440
    27  H    5.860663   4.596550   4.873244   3.417927   6.288527
    28  H    6.276387   5.856799   4.606946   6.992968   3.426535
    29  H    6.191744   5.273039   3.909451   6.035246   3.436559
    30  H    2.702162   3.428879   3.709389   4.568960   3.274057
    31  H    4.023608   4.180068   3.988196   5.261799   3.314797
    32  H    2.702792   2.596290   2.727805   3.538158   2.713620
    33  H    4.811251   5.185065   4.672681   6.525633   3.398148
    34  H    6.639793   6.972359   6.206430   8.340830   4.805019
    35  H    7.360789   7.337683   6.288524   8.634532   4.873243
    36  H    7.037993   7.195767   6.325103   8.537066   4.871503
                    6          7          8          9         10
     6  C    0.000000
     7  C    2.426708   0.000000
     8  C    2.828079   5.099610   0.000000
     9  C    3.767246   5.257216   2.424100   0.000000
    10  C    1.403986   1.378457   4.231226   4.947834   0.000000
    11  C    1.431382   3.718757   2.420335   4.202843   2.452251
    12  C    3.815140   1.502789   6.570509   6.713306   2.519635
    13  C    4.231227   6.483133   1.403986   2.793986   5.634321
    14  C    2.420335   4.831706   1.431381   3.718420   3.686667
    15  C    4.398761   5.273961   3.817356   1.510091   5.294382
    16  C    4.870774   6.581690   2.755015   1.385975   6.155431
    17  C    5.099611   7.139791   2.426708   2.450439   6.483135
    18  C    6.570511   8.638683   3.815140   3.817173   7.963167
    19  H    4.531123   4.267514   5.093017   3.428830   4.904762
    20  H    4.351079   3.938799   5.150365   4.180069   4.601722
    21  H    4.055091   4.572202   3.903018   2.596294   4.806234
    22  H    3.835743   2.142681   5.830703   5.185071   3.349731
    23  H    2.144104   2.138382   4.831166   5.856804   1.083992
    24  H    2.164645   4.021260   3.408781   5.273039   2.652802
    25  H    4.503085   2.155465   7.151041   7.195770   3.303231
    26  H    4.389353   2.150714   7.082377   6.972380   3.170166
    27  H    4.041724   2.153798   6.865094   7.337694   2.641280
    28  H    4.831168   7.183820   2.144105   3.875752   6.204395
    29  H    3.408781   5.786633   2.164644   4.564635   4.564078
    30  H    5.093048   5.704812   4.531133   2.178015   5.911085
    31  H    5.150338   6.104792   4.351055   2.128279   6.058748
    32  H    3.903018   4.426835   4.055091   2.167109   4.577563
    33  H    5.830708   7.369703   3.835744   2.125910   7.058373
    34  H    7.082372   9.036220   4.389356   4.216852   8.454977
    35  H    6.865095   9.080711   4.041723   4.596550   8.268851
    36  H    7.151047   9.151360   4.503084   4.107884   8.521151
                   11         12         13         14         15
    11  C    0.000000
    12  C    4.967864   0.000000
    13  C    3.686668   7.963165   0.000000
    14  C    1.351040   6.183955   2.452252   0.000000
    15  C    5.164805   6.589515   4.276450   4.965457   0.000000
    16  C    4.992601   8.056114   2.373032   4.168368   2.467516
    17  C    4.831709   8.638684   1.378458   3.718759   3.783259
    18  C    6.183959  10.138670   2.519636   4.967866   4.978737
    19  H    5.735951   5.328854   5.911043   5.945669   2.702120
    20  H    5.508654   4.947411   6.058765   5.788439   4.023605
    21  H    4.963484   5.878033   4.577554   4.874556   2.702819
    22  H    5.240619   2.710523   7.058363   6.036489   4.811278
    23  H    2.650831   2.738138   6.204395   3.996525   6.276394
    24  H    1.083092   5.032826   4.564079   2.120681   6.191739
    25  H    5.683242   1.092019   8.521140   6.836798   7.038010
    26  H    5.584012   1.093482   8.454985   6.783155   6.639826
    27  H    4.953026   1.090075   8.268849   6.255847   7.360813
    28  H    3.996528   8.628169   1.083992   2.650833   5.350529
    29  H    2.120682   7.071615   2.652802   1.083092   5.890245
    30  H    5.945691   6.964494   4.904759   5.735965   1.090475
    31  H    5.788403   7.375738   4.601708   5.508619   1.091181
    32  H    4.874556   5.658848   4.806237   4.963482   1.086975
    33  H    6.036494   8.809473   3.349733   5.240621   2.613791
    34  H    6.783157  10.536944   3.170171   5.584016   5.320548
    35  H    6.255851  10.571001   2.641279   4.953028   5.860664
    36  H    6.836802  10.636873   3.303228   5.683242   5.025921
                   16         17         18         19         20
    16  C    0.000000
    17  C    1.400276   0.000000
    18  C    2.523597   1.502789   0.000000
    19  H    4.568901   5.704758   6.964437   0.000000
    20  H    5.261788   6.104791   7.375731   1.754709   0.000000
    21  H    3.538144   4.426818   5.658826   1.763073   1.759995
    22  H    6.525630   7.369693   8.809460   2.826175   2.463058
    23  H    6.992975   7.183822   8.628172   5.985238   5.626860
    24  H    6.035250   5.786636   7.071620   6.664620   6.348484
    25  H    8.537062   9.151349  10.636858   5.383841   4.761031
    26  H    8.340852   9.036235  10.536961   5.460525   5.388742
    27  H    8.634542   9.080713  10.571002   6.298125   5.839681
    28  H    3.363899   2.138383   2.738138   6.948719   6.977976
    29  H    4.764084   4.021262   5.032829   6.990016   6.782127
    30  H    2.908839   4.267497   5.328829   2.252488   3.654869
    31  H    2.627844   3.938804   4.947427   3.654835   5.087499
    32  H    3.374385   4.572208   5.878042   2.378233   3.763789
    33  H    1.085110   2.142682   2.710525   4.835814   5.739429
    34  H    2.939947   2.150714   1.093481   7.027904   7.321437
    35  H    3.417929   2.153799   1.090075   7.822796   8.118810
    36  H    2.753052   2.155466   1.092019   7.261084   7.899092
                   21         22         23         24         25
    21  H    0.000000
    22  H    3.661276   0.000000
    23  H    5.854778   4.253029   0.000000
    24  H    5.966853   5.814185   2.390296   0.000000
    25  H    5.970116   2.573823   3.585288   5.789999   0.000000
    26  H    6.278983   2.982494   3.400723   5.681199   1.758545
    27  H    6.681844   3.741528   2.406646   4.780972   1.767823
    28  H    5.562446   7.932733   6.629837   4.690394   9.205667
    29  H    5.828519   7.079223   4.690391   2.460515   7.731854
    30  H    2.378299   4.835879   6.948757   6.990038   7.261137
    31  H    3.763825   5.739452   6.977954   6.782087   7.899098
    32  H    2.859693   4.011317   5.562456   5.828519   6.147791
    33  H    4.011301   7.100994   7.932743   7.079229   9.263517
    34  H    5.624053   9.010864   9.173782   7.699835  10.937504
    35  H    6.455336   9.456595   8.823296   7.030840  11.107557
    36  H    6.147778   9.263519   9.205678   7.731859  11.175467
                   26         27         28         29         30
    26  H    0.000000
    27  H    1.763310   0.000000
    28  H    9.173788   8.823292   0.000000
    29  H    7.699832   7.030834   2.390298   0.000000
    30  H    7.027968   7.822851   5.985234   6.664630   0.000000
    31  H    7.321455   8.118816   5.626843   6.348447   1.754709
    32  H    5.624086   6.455361   5.854781   5.966852   1.763074
    33  H    9.010894   9.456610   4.253030   5.814187   2.826133
    34  H   10.979497  11.018082   3.400732   5.681207   5.460494
    35  H   11.018098  10.904936   2.406643   4.780974   6.298102
    36  H   10.937538  11.107573   3.585281   5.789996   5.383811
                   31         32         33         34         35
    31  H    0.000000
    32  H    1.759992   0.000000
    33  H    2.463097   3.661286   0.000000
    34  H    5.388763   6.278980   2.982484   0.000000
    35  H    5.839693   6.681855   3.741532   1.763310   0.000000
    36  H    4.761053   5.970134   2.573833   1.758545   1.767824
                   36
    36  H    0.000000
 Stoichiometry    C18H18
 Framework group  C1[X(C18H18)]
 Deg. of freedom   102
 Full point group                 C1      NOp   1
 Largest Abelian subgroup         C1      NOp   1
 Largest concise Abelian subgroup C1      NOp   1
                         Standard orientation:                         
 ---------------------------------------------------------------------
 Center     Atomic      Atomic             Coordinates (Angstroms)
 Number     Number       Type             X           Y           Z
 ---------------------------------------------------------------------
      1          6           0       -0.972638    2.353537   -1.110387
      2          6           0       -1.525571    1.130349   -0.418686
      3          6           0       -0.727801    0.015763   -0.042578
      4          6           0       -2.904735    1.041412   -0.314169
      5          6           0        0.727801    0.015760    0.042600
      6          6           0       -1.405454   -1.221675    0.155616
      7          6           0       -3.568854   -0.124494    0.086308
      8          6           0        1.405449   -1.221680   -0.155599
      9          6           0        1.525576    1.130344    0.418696
     10          6           0       -2.804822   -1.258087    0.263412
     11          6           0       -0.663560   -2.445442    0.126586
     12          6           0       -5.063645   -0.141961    0.240153
     13          6           0        2.804815   -1.258093   -0.263415
     14          6           0        0.663552   -2.445444   -0.126560
     15          6           0        0.972653    2.353526    1.110416
     16          6           0        2.904738    1.041410    0.314152
     17          6           0        3.568850   -0.124498   -0.086331
     18          6           0        5.063639   -0.141966   -0.240203
     19          1           0       -1.015769    3.246778   -0.486371
     20          1           0       -1.572268    2.554429   -1.999634
     21          1           0        0.057092    2.212659   -1.428705
     22          1           0       -3.497751    1.900740   -0.609720
     23          1           0       -3.283852   -2.211869    0.452801
     24          1           0       -1.207163   -3.375671    0.237298
     25          1           0       -5.555561    0.354822   -0.598734
     26          1           0       -5.368048    0.383431    1.149551
     27          1           0       -5.444039   -1.161569    0.303109
     28          1           0        3.283843   -2.211876   -0.452806
     29          1           0        1.207153   -3.375675   -0.237269
     30          1           0        1.015824    3.246783    0.486426
     31          1           0        1.572267    2.554377    1.999684
     32          1           0       -0.057086    2.212665    1.428708
     33          1           0        3.497759    1.900740    0.609689
     34          1           0        5.368025    0.383435   -1.149601
     35          1           0        5.444030   -1.161574   -0.303177
     36          1           0        5.555571    0.354808    0.598680
 ---------------------------------------------------------------------
 Rotational constants (GHZ):      0.9136837      0.2878096      0.2304232
 Leave Link  202 at Fri Jul  9 19:19:36 2021, MaxMem=  4194304000 cpu:         1.2
 (Enter /home/minenky/programs//g09/l301.exe)
 Standard basis: def2TZVP (5D, 7F)
 ======================================================================================================
                                       Pseudopotential Parameters
 ======================================================================================================
  Center     Atomic      Valence      Angular      Power
  Number     Number     Electrons     Momentum     of R      Exponent        Coefficient   SO-Coeffient
 ======================================================================================================
    1          6
                                   No pseudopotential on this center.
    2          6
                                   No pseudopotential on this center.
    3          6
                                   No pseudopotential on this center.
    4          6
                                   No pseudopotential on this center.
    5          6
                                   No pseudopotential on this center.
    6          6
                                   No pseudopotential on this center.
    7          6
                                   No pseudopotential on this center.
    8          6
                                   No pseudopotential on this center.
    9          6
                                   No pseudopotential on this center.
   10          6
                                   No pseudopotential on this center.
   11          6
                                   No pseudopotential on this center.
   12          6
                                   No pseudopotential on this center.
   13          6
                                   No pseudopotential on this center.
   14          6
                                   No pseudopotential on this center.
   15          6
                                   No pseudopotential on this center.
   16          6
                                   No pseudopotential on this center.
   17          6
                                   No pseudopotential on this center.
   18          6
                                   No pseudopotential on this center.
   19          1
                                   No pseudopotential on this center.
   20          1
                                   No pseudopotential on this center.
   21          1
                                   No pseudopotential on this center.
   22          1
                                   No pseudopotential on this center.
   23          1
                                   No pseudopotential on this center.
   24          1
                                   No pseudopotential on this center.
   25          1
                                   No pseudopotential on this center.
   26          1
                                   No pseudopotential on this center.
   27          1
                                   No pseudopotential on this center.
   28          1
                                   No pseudopotential on this center.
   29          1
                                   No pseudopotential on this center.
   30          1
                                   No pseudopotential on this center.
   31          1
                                   No pseudopotential on this center.
   32          1
                                   No pseudopotential on this center.
   33          1
                                   No pseudopotential on this center.
   34          1
                                   No pseudopotential on this center.
   35          1
                                   No pseudopotential on this center.
   36          1
                                   No pseudopotential on this center.
 ======================================================================================================
 Ernie: Thresh=  0.10000D-02 Tol=  0.10000D-05 Strict=F.
 AO basis set (Overlap normalization):
 Atom C1       Shell     1 S   6     bf    1 -     1         -1.838019169727          4.447540409995         -2.098327256527
      0.1357534968D+05  0.6064550360D-03
      0.2035233368D+04  0.4697908888D-02
      0.4632256236D+03  0.2433247765D-01
      0.1312001960D+03  0.9739996831D-01
      0.4285301589D+02  0.3019558425D+00
      0.1558418577D+02  0.6623360914D+00
 Atom C1       Shell     2 S   2     bf    2 -     2         -1.838019169727          4.447540409995         -2.098327256527
      0.6206713851D+01  0.6559530854D+00
      0.2576489653D+01  0.3758563329D+00
 Atom C1       Shell     3 S   1     bf    3 -     3         -1.838019169727          4.447540409995         -2.098327256527
      0.5769633942D+00  0.1000000000D+01
 Atom C1       Shell     4 S   1     bf    4 -     4         -1.838019169727          4.447540409995         -2.098327256527
      0.2297283136D+00  0.1000000000D+01
 Atom C1       Shell     5 S   1     bf    5 -     5         -1.838019169727          4.447540409995         -2.098327256527
      0.9516444003D-01  0.1000000000D+01
 Atom C1       Shell     6 P   4     bf    6 -     8         -1.838019169727          4.447540409995         -2.098327256527
      0.3469723224D+02  0.1132722000D-01
      0.7958262283D+01  0.7616965920D-01
      0.2378082688D+01  0.3019225220D+00
      0.8143320818D+00  0.7278502735D+00
 Atom C1       Shell     7 P   1     bf    9 -    11         -1.838019169727          4.447540409995         -2.098327256527
      0.2888754725D+00  0.1000000000D+01
 Atom C1       Shell     8 P   1     bf   12 -    14         -1.838019169727          4.447540409995         -2.098327256527
      0.1005682367D+00  0.1000000000D+01
 Atom C1       Shell     9 D   1     bf   15 -    19         -1.838019169727          4.447540409995         -2.098327256527
      0.1097000000D+01  0.1000000000D+01
 Atom C1       Shell    10 D   1     bf   20 -    24         -1.838019169727          4.447540409995         -2.098327256527
      0.3180000000D+00  0.1000000000D+01
 Atom C1       Shell    11 F   1     bf   25 -    31         -1.838019169727          4.447540409995         -2.098327256527
      0.7610000000D+00  0.1000000000D+01
 Atom C2       Shell    12 S   6     bf   32 -    32         -2.882911136454          2.136050093119         -0.791201800684
      0.1357534968D+05  0.6064550360D-03
      0.2035233368D+04  0.4697908888D-02
      0.4632256236D+03  0.2433247765D-01
      0.1312001960D+03  0.9739996831D-01
      0.4285301589D+02  0.3019558425D+00
      0.1558418577D+02  0.6623360914D+00
 Atom C2       Shell    13 S   2     bf   33 -    33         -2.882911136454          2.136050093119         -0.791201800684
      0.6206713851D+01  0.6559530854D+00
      0.2576489653D+01  0.3758563329D+00
 Atom C2       Shell    14 S   1     bf   34 -    34         -2.882911136454          2.136050093119         -0.791201800684
      0.5769633942D+00  0.1000000000D+01
 Atom C2       Shell    15 S   1     bf   35 -    35         -2.882911136454          2.136050093119         -0.791201800684
      0.2297283136D+00  0.1000000000D+01
 Atom C2       Shell    16 S   1     bf   36 -    36         -2.882911136454          2.136050093119         -0.791201800684
      0.9516444003D-01  0.1000000000D+01
 Atom C2       Shell    17 P   4     bf   37 -    39         -2.882911136454          2.136050093119         -0.791201800684
      0.3469723224D+02  0.1132722000D-01
      0.7958262283D+01  0.7616965920D-01
      0.2378082688D+01  0.3019225220D+00
      0.8143320818D+00  0.7278502735D+00
 Atom C2       Shell    18 P   1     bf   40 -    42         -2.882911136454          2.136050093119         -0.791201800684
      0.2888754725D+00  0.1000000000D+01
 Atom C2       Shell    19 P   1     bf   43 -    45         -2.882911136454          2.136050093119         -0.791201800684
      0.1005682367D+00  0.1000000000D+01
 Atom C2       Shell    20 D   1     bf   46 -    50         -2.882911136454          2.136050093119         -0.791201800684
      0.1097000000D+01  0.1000000000D+01
 Atom C2       Shell    21 D   1     bf   51 -    55         -2.882911136454          2.136050093119         -0.791201800684
      0.3180000000D+00  0.1000000000D+01
 Atom C2       Shell    22 F   1     bf   56 -    62         -2.882911136454          2.136050093119         -0.791201800684
      0.7610000000D+00  0.1000000000D+01
 Atom C3       Shell    23 S   6     bf   63 -    63         -1.375344343926          0.029787784031         -0.080460684297
      0.1357534968D+05  0.6064550360D-03
      0.2035233368D+04  0.4697908888D-02
      0.4632256236D+03  0.2433247765D-01
      0.1312001960D+03  0.9739996831D-01
      0.4285301589D+02  0.3019558425D+00
      0.1558418577D+02  0.6623360914D+00
 Atom C3       Shell    24 S   2     bf   64 -    64         -1.375344343926          0.029787784031         -0.080460684297
      0.6206713851D+01  0.6559530854D+00
      0.2576489653D+01  0.3758563329D+00
 Atom C3       Shell    25 S   1     bf   65 -    65         -1.375344343926          0.029787784031         -0.080460684297
      0.5769633942D+00  0.1000000000D+01
 Atom C3       Shell    26 S   1     bf   66 -    66         -1.375344343926          0.029787784031         -0.080460684297
      0.2297283136D+00  0.1000000000D+01
 Atom C3       Shell    27 S   1     bf   67 -    67         -1.375344343926          0.029787784031         -0.080460684297
      0.9516444003D-01  0.1000000000D+01
 Atom C3       Shell    28 P   4     bf   68 -    70         -1.375344343926          0.029787784031         -0.080460684297
      0.3469723224D+02  0.1132722000D-01
      0.7958262283D+01  0.7616965920D-01
      0.2378082688D+01  0.3019225220D+00
      0.8143320818D+00  0.7278502735D+00
 Atom C3       Shell    29 P   1     bf   71 -    73         -1.375344343926          0.029787784031         -0.080460684297
      0.2888754725D+00  0.1000000000D+01
 Atom C3       Shell    30 P   1     bf   74 -    76         -1.375344343926          0.029787784031         -0.080460684297
      0.1005682367D+00  0.1000000000D+01
 Atom C3       Shell    31 D   1     bf   77 -    81         -1.375344343926          0.029787784031         -0.080460684297
      0.1097000000D+01  0.1000000000D+01
 Atom C3       Shell    32 D   1     bf   82 -    86         -1.375344343926          0.029787784031         -0.080460684297
      0.3180000000D+00  0.1000000000D+01
 Atom C3       Shell    33 F   1     bf   87 -    93         -1.375344343926          0.029787784031         -0.080460684297
      0.7610000000D+00  0.1000000000D+01
 Atom C4       Shell    34 S   6     bf   94 -    94         -5.489153390744          1.967983550360         -0.593693294453
      0.1357534968D+05  0.6064550360D-03
      0.2035233368D+04  0.4697908888D-02
      0.4632256236D+03  0.2433247765D-01
      0.1312001960D+03  0.9739996831D-01
      0.4285301589D+02  0.3019558425D+00
      0.1558418577D+02  0.6623360914D+00
 Atom C4       Shell    35 S   2     bf   95 -    95         -5.489153390744          1.967983550360         -0.593693294453
      0.6206713851D+01  0.6559530854D+00
      0.2576489653D+01  0.3758563329D+00
 Atom C4       Shell    36 S   1     bf   96 -    96         -5.489153390744          1.967983550360         -0.593693294453
      0.5769633942D+00  0.1000000000D+01
 Atom C4       Shell    37 S   1     bf   97 -    97         -5.489153390744          1.967983550360         -0.593693294453
      0.2297283136D+00  0.1000000000D+01
 Atom C4       Shell    38 S   1     bf   98 -    98         -5.489153390744          1.967983550360         -0.593693294453
      0.9516444003D-01  0.1000000000D+01
 Atom C4       Shell    39 P   4     bf   99 -   101         -5.489153390744          1.967983550360         -0.593693294453
      0.3469723224D+02  0.1132722000D-01
      0.7958262283D+01  0.7616965920D-01
      0.2378082688D+01  0.3019225220D+00
      0.8143320818D+00  0.7278502735D+00
 Atom C4       Shell    40 P   1     bf  102 -   104         -5.489153390744          1.967983550360         -0.593693294453
      0.2888754725D+00  0.1000000000D+01
 Atom C4       Shell    41 P   1     bf  105 -   107         -5.489153390744          1.967983550360         -0.593693294453
      0.1005682367D+00  0.1000000000D+01
 Atom C4       Shell    42 D   1     bf  108 -   112         -5.489153390744          1.967983550360         -0.593693294453
      0.1097000000D+01  0.1000000000D+01
 Atom C4       Shell    43 D   1     bf  113 -   117         -5.489153390744          1.967983550360         -0.593693294453
      0.3180000000D+00  0.1000000000D+01
 Atom C4       Shell    44 F   1     bf  118 -   124         -5.489153390744          1.967983550360         -0.593693294453
      0.7610000000D+00  0.1000000000D+01
 Atom C5       Shell    45 S   6     bf  125 -   125          1.375344794554          0.029782082851          0.080502408250
      0.1357534968D+05  0.6064550360D-03
      0.2035233368D+04  0.4697908888D-02
      0.4632256236D+03  0.2433247765D-01
      0.1312001960D+03  0.9739996831D-01
      0.4285301589D+02  0.3019558425D+00
      0.1558418577D+02  0.6623360914D+00
 Atom C5       Shell    46 S   2     bf  126 -   126          1.375344794554          0.029782082851          0.080502408250
      0.6206713851D+01  0.6559530854D+00
      0.2576489653D+01  0.3758563329D+00
 Atom C5       Shell    47 S   1     bf  127 -   127          1.375344794554          0.029782082851          0.080502408250
      0.5769633942D+00  0.1000000000D+01
 Atom C5       Shell    48 S   1     bf  128 -   128          1.375344794554          0.029782082851          0.080502408250
      0.2297283136D+00  0.1000000000D+01
 Atom C5       Shell    49 S   1     bf  129 -   129          1.375344794554          0.029782082851          0.080502408250
      0.9516444003D-01  0.1000000000D+01
 Atom C5       Shell    50 P   4     bf  130 -   132          1.375344794554          0.029782082851          0.080502408250
      0.3469723224D+02  0.1132722000D-01
      0.7958262283D+01  0.7616965920D-01
      0.2378082688D+01  0.3019225220D+00
      0.8143320818D+00  0.7278502735D+00
 Atom C5       Shell    51 P   1     bf  133 -   135          1.375344794554          0.029782082851          0.080502408250
      0.2888754725D+00  0.1000000000D+01
 Atom C5       Shell    52 P   1     bf  136 -   138          1.375344794554          0.029782082851          0.080502408250
      0.1005682367D+00  0.1000000000D+01
 Atom C5       Shell    53 D   1     bf  139 -   143          1.375344794554          0.029782082851          0.080502408250
      0.1097000000D+01  0.1000000000D+01
 Atom C5       Shell    54 D   1     bf  144 -   148          1.375344794554          0.029782082851          0.080502408250
      0.3180000000D+00  0.1000000000D+01
 Atom C5       Shell    55 F   1     bf  149 -   155          1.375344794554          0.029782082851          0.080502408250
      0.7610000000D+00  0.1000000000D+01
 Atom C6       Shell    56 S   6     bf  156 -   156         -2.655922954260         -2.308631127496          0.294071696884
      0.1357534968D+05  0.6064550360D-03
      0.2035233368D+04  0.4697908888D-02
      0.4632256236D+03  0.2433247765D-01
      0.1312001960D+03  0.9739996831D-01
      0.4285301589D+02  0.3019558425D+00
      0.1558418577D+02  0.6623360914D+00
 Atom C6       Shell    57 S   2     bf  157 -   157         -2.655922954260         -2.308631127496          0.294071696884
      0.6206713851D+01  0.6559530854D+00
      0.2576489653D+01  0.3758563329D+00
 Atom C6       Shell    58 S   1     bf  158 -   158         -2.655922954260         -2.308631127496          0.294071696884
      0.5769633942D+00  0.1000000000D+01
 Atom C6       Shell    59 S   1     bf  159 -   159         -2.655922954260         -2.308631127496          0.294071696884
      0.2297283136D+00  0.1000000000D+01
 Atom C6       Shell    60 S   1     bf  160 -   160         -2.655922954260         -2.308631127496          0.294071696884
      0.9516444003D-01  0.1000000000D+01
 Atom C6       Shell    61 P   4     bf  161 -   163         -2.655922954260         -2.308631127496          0.294071696884
      0.3469723224D+02  0.1132722000D-01
      0.7958262283D+01  0.7616965920D-01
      0.2378082688D+01  0.3019225220D+00
      0.8143320818D+00  0.7278502735D+00
 Atom C6       Shell    62 P   1     bf  164 -   166         -2.655922954260         -2.308631127496          0.294071696884
      0.2888754725D+00  0.1000000000D+01
 Atom C6       Shell    63 P   1     bf  167 -   169         -2.655922954260         -2.308631127496          0.294071696884
      0.1005682367D+00  0.1000000000D+01
 Atom C6       Shell    64 D   1     bf  170 -   174         -2.655922954260         -2.308631127496          0.294071696884
      0.1097000000D+01  0.1000000000D+01
 Atom C6       Shell    65 D   1     bf  175 -   179         -2.655922954260         -2.308631127496          0.294071696884
      0.3180000000D+00  0.1000000000D+01
 Atom C6       Shell    66 F   1     bf  180 -   186         -2.655922954260         -2.308631127496          0.294071696884
      0.7610000000D+00  0.1000000000D+01
 Atom C7       Shell    67 S   6     bf  187 -   187         -6.744156446023         -0.235259471727          0.163098558066
      0.1357534968D+05  0.6064550360D-03
      0.2035233368D+04  0.4697908888D-02
      0.4632256236D+03  0.2433247765D-01
      0.1312001960D+03  0.9739996831D-01
      0.4285301589D+02  0.3019558425D+00
      0.1558418577D+02  0.6623360914D+00
 Atom C7       Shell    68 S   2     bf  188 -   188         -6.744156446023         -0.235259471727          0.163098558066
      0.6206713851D+01  0.6559530854D+00
      0.2576489653D+01  0.3758563329D+00
 Atom C7       Shell    69 S   1     bf  189 -   189         -6.744156446023         -0.235259471727          0.163098558066
      0.5769633942D+00  0.1000000000D+01
 Atom C7       Shell    70 S   1     bf  190 -   190         -6.744156446023         -0.235259471727          0.163098558066
      0.2297283136D+00  0.1000000000D+01
 Atom C7       Shell    71 S   1     bf  191 -   191         -6.744156446023         -0.235259471727          0.163098558066
      0.9516444003D-01  0.1000000000D+01
 Atom C7       Shell    72 P   4     bf  192 -   194         -6.744156446023         -0.235259471727          0.163098558066
      0.3469723224D+02  0.1132722000D-01
      0.7958262283D+01  0.7616965920D-01
      0.2378082688D+01  0.3019225220D+00
      0.8143320818D+00  0.7278502735D+00
 Atom C7       Shell    73 P   1     bf  195 -   197         -6.744156446023         -0.235259471727          0.163098558066
      0.2888754725D+00  0.1000000000D+01
 Atom C7       Shell    74 P   1     bf  198 -   200         -6.744156446023         -0.235259471727          0.163098558066
      0.1005682367D+00  0.1000000000D+01
 Atom C7       Shell    75 D   1     bf  201 -   205         -6.744156446023         -0.235259471727          0.163098558066
      0.1097000000D+01  0.1000000000D+01
 Atom C7       Shell    76 D   1     bf  206 -   210         -6.744156446023         -0.235259471727          0.163098558066
      0.3180000000D+00  0.1000000000D+01
 Atom C7       Shell    77 F   1     bf  211 -   217         -6.744156446023         -0.235259471727          0.163098558066
      0.7610000000D+00  0.1000000000D+01
 Atom C8       Shell    78 S   6     bf  218 -   218          2.655913901846         -2.308640637925         -0.294039421562
      0.1357534968D+05  0.6064550360D-03
      0.2035233368D+04  0.4697908888D-02
      0.4632256236D+03  0.2433247765D-01
      0.1312001960D+03  0.9739996831D-01
      0.4285301589D+02  0.3019558425D+00
      0.1558418577D+02  0.6623360914D+00
 Atom C8       Shell    79 S   2     bf  219 -   219          2.655913901846         -2.308640637925         -0.294039421562
      0.6206713851D+01  0.6559530854D+00
      0.2576489653D+01  0.3758563329D+00
 Atom C8       Shell    80 S   1     bf  220 -   220          2.655913901846         -2.308640637925         -0.294039421562
      0.5769633942D+00  0.1000000000D+01
 Atom C8       Shell    81 S   1     bf  221 -   221          2.655913901846         -2.308640637925         -0.294039421562
      0.2297283136D+00  0.1000000000D+01
 Atom C8       Shell    82 S   1     bf  222 -   222          2.655913901846         -2.308640637925         -0.294039421562
      0.9516444003D-01  0.1000000000D+01
 Atom C8       Shell    83 P   4     bf  223 -   225          2.655913901846         -2.308640637925         -0.294039421562
      0.3469723224D+02  0.1132722000D-01
      0.7958262283D+01  0.7616965920D-01
      0.2378082688D+01  0.3019225220D+00
      0.8143320818D+00  0.7278502735D+00
 Atom C8       Shell    84 P   1     bf  226 -   228          2.655913901846         -2.308640637925         -0.294039421562
      0.2888754725D+00  0.1000000000D+01
 Atom C8       Shell    85 P   1     bf  229 -   231          2.655913901846         -2.308640637925         -0.294039421562
      0.1005682367D+00  0.1000000000D+01
 Atom C8       Shell    86 D   1     bf  232 -   236          2.655913901846         -2.308640637925         -0.294039421562
      0.1097000000D+01  0.1000000000D+01
 Atom C8       Shell    87 D   1     bf  237 -   241          2.655913901846         -2.308640637925         -0.294039421562
      0.3180000000D+00  0.1000000000D+01
 Atom C8       Shell    88 F   1     bf  242 -   248          2.655913901846         -2.308640637925         -0.294039421562
      0.7610000000D+00  0.1000000000D+01
 Atom C9       Shell    89 S   6     bf  249 -   249          2.882921084722          2.136040577408          0.791220847924
      0.1357534968D+05  0.6064550360D-03
      0.2035233368D+04  0.4697908888D-02
      0.4632256236D+03  0.2433247765D-01
      0.1312001960D+03  0.9739996831D-01
      0.4285301589D+02  0.3019558425D+00
      0.1558418577D+02  0.6623360914D+00
 Atom C9       Shell    90 S   2     bf  250 -   250          2.882921084722          2.136040577408          0.791220847924
      0.6206713851D+01  0.6559530854D+00
      0.2576489653D+01  0.3758563329D+00
 Atom C9       Shell    91 S   1     bf  251 -   251          2.882921084722          2.136040577408          0.791220847924
      0.5769633942D+00  0.1000000000D+01
 Atom C9       Shell    92 S   1     bf  252 -   252          2.882921084722          2.136040577408          0.791220847924
      0.2297283136D+00  0.1000000000D+01
 Atom C9       Shell    93 S   1     bf  253 -   253          2.882921084722          2.136040577408          0.791220847924
      0.9516444003D-01  0.1000000000D+01
 Atom C9       Shell    94 P   4     bf  254 -   256          2.882921084722          2.136040577408          0.791220847924
      0.3469723224D+02  0.1132722000D-01
      0.7958262283D+01  0.7616965920D-01
      0.2378082688D+01  0.3019225220D+00
      0.8143320818D+00  0.7278502735D+00
 Atom C9       Shell    95 P   1     bf  257 -   259          2.882921084722          2.136040577408          0.791220847924
      0.2888754725D+00  0.1000000000D+01
 Atom C9       Shell    96 P   1     bf  260 -   262          2.882921084722          2.136040577408          0.791220847924
      0.1005682367D+00  0.1000000000D+01
 Atom C9       Shell    97 D   1     bf  263 -   267          2.882921084722          2.136040577408          0.791220847924
      0.1097000000D+01  0.1000000000D+01
 Atom C9       Shell    98 D   1     bf  268 -   272          2.882921084722          2.136040577408          0.791220847924
      0.3180000000D+00  0.1000000000D+01
 Atom C9       Shell    99 F   1     bf  273 -   279          2.882921084722          2.136040577408          0.791220847924
      0.7610000000D+00  0.1000000000D+01
 Atom C10      Shell   100 S   6     bf  280 -   280         -5.300345234185         -2.377439804681          0.497776615105
      0.1357534968D+05  0.6064550360D-03
      0.2035233368D+04  0.4697908888D-02
      0.4632256236D+03  0.2433247765D-01
      0.1312001960D+03  0.9739996831D-01
      0.4285301589D+02  0.3019558425D+00
      0.1558418577D+02  0.6623360914D+00
 Atom C10      Shell   101 S   2     bf  281 -   281         -5.300345234185         -2.377439804681          0.497776615105
      0.6206713851D+01  0.6559530854D+00
      0.2576489653D+01  0.3758563329D+00
 Atom C10      Shell   102 S   1     bf  282 -   282         -5.300345234185         -2.377439804681          0.497776615105
      0.5769633942D+00  0.1000000000D+01
 Atom C10      Shell   103 S   1     bf  283 -   283         -5.300345234185         -2.377439804681          0.497776615105
      0.2297283136D+00  0.1000000000D+01
 Atom C10      Shell   104 S   1     bf  284 -   284         -5.300345234185         -2.377439804681          0.497776615105
      0.9516444003D-01  0.1000000000D+01
 Atom C10      Shell   105 P   4     bf  285 -   287         -5.300345234185         -2.377439804681          0.497776615105
      0.3469723224D+02  0.1132722000D-01
      0.7958262283D+01  0.7616965920D-01
      0.2378082688D+01  0.3019225220D+00
      0.8143320818D+00  0.7278502735D+00
 Atom C10      Shell   106 P   1     bf  288 -   290         -5.300345234185         -2.377439804681          0.497776615105
      0.2888754725D+00  0.1000000000D+01
 Atom C10      Shell   107 P   1     bf  291 -   293         -5.300345234185         -2.377439804681          0.497776615105
      0.1005682367D+00  0.1000000000D+01
 Atom C10      Shell   108 D   1     bf  294 -   298         -5.300345234185         -2.377439804681          0.497776615105
      0.1097000000D+01  0.1000000000D+01
 Atom C10      Shell   109 D   1     bf  299 -   303         -5.300345234185         -2.377439804681          0.497776615105
      0.3180000000D+00  0.1000000000D+01
 Atom C10      Shell   110 F   1     bf  304 -   310         -5.300345234185         -2.377439804681          0.497776615105
      0.7610000000D+00  0.1000000000D+01
 Atom C11      Shell   111 S   6     bf  311 -   311         -1.253946501534         -4.621215624270          0.239212947247
      0.1357534968D+05  0.6064550360D-03
      0.2035233368D+04  0.4697908888D-02
      0.4632256236D+03  0.2433247765D-01
      0.1312001960D+03  0.9739996831D-01
      0.4285301589D+02  0.3019558425D+00
      0.1558418577D+02  0.6623360914D+00
 Atom C11      Shell   112 S   2     bf  312 -   312         -1.253946501534         -4.621215624270          0.239212947247
      0.6206713851D+01  0.6559530854D+00
      0.2576489653D+01  0.3758563329D+00
 Atom C11      Shell   113 S   1     bf  313 -   313         -1.253946501534         -4.621215624270          0.239212947247
      0.5769633942D+00  0.1000000000D+01
 Atom C11      Shell   114 S   1     bf  314 -   314         -1.253946501534         -4.621215624270          0.239212947247
      0.2297283136D+00  0.1000000000D+01
 Atom C11      Shell   115 S   1     bf  315 -   315         -1.253946501534         -4.621215624270          0.239212947247
      0.9516444003D-01  0.1000000000D+01
 Atom C11      Shell   116 P   4     bf  316 -   318         -1.253946501534         -4.621215624270          0.239212947247
      0.3469723224D+02  0.1132722000D-01
      0.7958262283D+01  0.7616965920D-01
      0.2378082688D+01  0.3019225220D+00
      0.8143320818D+00  0.7278502735D+00
 Atom C11      Shell   117 P   1     bf  319 -   321         -1.253946501534         -4.621215624270          0.239212947247
      0.2888754725D+00  0.1000000000D+01
 Atom C11      Shell   118 P   1     bf  322 -   324         -1.253946501534         -4.621215624270          0.239212947247
      0.1005682367D+00  0.1000000000D+01
 Atom C11      Shell   119 D   1     bf  325 -   329         -1.253946501534         -4.621215624270          0.239212947247
      0.1097000000D+01  0.1000000000D+01
 Atom C11      Shell   120 D   1     bf  330 -   334         -1.253946501534         -4.621215624270          0.239212947247
      0.3180000000D+00  0.1000000000D+01
 Atom C11      Shell   121 F   1     bf  335 -   341         -1.253946501534         -4.621215624270          0.239212947247
      0.7610000000D+00  0.1000000000D+01
 Atom C12      Shell   122 S   6     bf  342 -   342         -9.568902062309         -0.268267285227          0.453823474980
      0.1357534968D+05  0.6064550360D-03
      0.2035233368D+04  0.4697908888D-02
      0.4632256236D+03  0.2433247765D-01
      0.1312001960D+03  0.9739996831D-01
      0.4285301589D+02  0.3019558425D+00
      0.1558418577D+02  0.6623360914D+00
 Atom C12      Shell   123 S   2     bf  343 -   343         -9.568902062309         -0.268267285227          0.453823474980
      0.6206713851D+01  0.6559530854D+00
      0.2576489653D+01  0.3758563329D+00
 Atom C12      Shell   124 S   1     bf  344 -   344         -9.568902062309         -0.268267285227          0.453823474980
      0.5769633942D+00  0.1000000000D+01
 Atom C12      Shell   125 S   1     bf  345 -   345         -9.568902062309         -0.268267285227          0.453823474980
      0.2297283136D+00  0.1000000000D+01
 Atom C12      Shell   126 S   1     bf  346 -   346         -9.568902062309         -0.268267285227          0.453823474980
      0.9516444003D-01  0.1000000000D+01
 Atom C12      Shell   127 P   4     bf  347 -   349         -9.568902062309         -0.268267285227          0.453823474980
      0.3469723224D+02  0.1132722000D-01
      0.7958262283D+01  0.7616965920D-01
      0.2378082688D+01  0.3019225220D+00
      0.8143320818D+00  0.7278502735D+00
 Atom C12      Shell   128 P   1     bf  350 -   352         -9.568902062309         -0.268267285227          0.453823474980
      0.2888754725D+00  0.1000000000D+01
 Atom C12      Shell   129 P   1     bf  353 -   355         -9.568902062309         -0.268267285227          0.453823474980
      0.1005682367D+00  0.1000000000D+01
 Atom C12      Shell   130 D   1     bf  356 -   360         -9.568902062309         -0.268267285227          0.453823474980
      0.1097000000D+01  0.1000000000D+01
 Atom C12      Shell   131 D   1     bf  361 -   365         -9.568902062309         -0.268267285227          0.453823474980
      0.3180000000D+00  0.1000000000D+01
 Atom C12      Shell   132 F   1     bf  366 -   372         -9.568902062309         -0.268267285227          0.453823474980
      0.7610000000D+00  0.1000000000D+01
 Atom C13      Shell   133 S   6     bf  373 -   373          5.300332400717         -2.377451266368         -0.497782134305
      0.1357534968D+05  0.6064550360D-03
      0.2035233368D+04  0.4697908888D-02
      0.4632256236D+03  0.2433247765D-01
      0.1312001960D+03  0.9739996831D-01
      0.4285301589D+02  0.3019558425D+00
      0.1558418577D+02  0.6623360914D+00
 Atom C13      Shell   134 S   2     bf  374 -   374          5.300332400717         -2.377451266368         -0.497782134305
      0.6206713851D+01  0.6559530854D+00
      0.2576489653D+01  0.3758563329D+00
 Atom C13      Shell   135 S   1     bf  375 -   375          5.300332400717         -2.377451266368         -0.497782134305
      0.5769633942D+00  0.1000000000D+01
 Atom C13      Shell   136 S   1     bf  376 -   376          5.300332400717         -2.377451266368         -0.497782134305
      0.2297283136D+00  0.1000000000D+01
 Atom C13      Shell   137 S   1     bf  377 -   377          5.300332400717         -2.377451266368         -0.497782134305
      0.9516444003D-01  0.1000000000D+01
 Atom C13      Shell   138 P   4     bf  378 -   380          5.300332400717         -2.377451266368         -0.497782134305
      0.3469723224D+02  0.1132722000D-01
      0.7958262283D+01  0.7616965920D-01
      0.2378082688D+01  0.3019225220D+00
      0.8143320818D+00  0.7278502735D+00
 Atom C13      Shell   139 P   1     bf  381 -   383          5.300332400717         -2.377451266368         -0.497782134305
      0.2888754725D+00  0.1000000000D+01
 Atom C13      Shell   140 P   1     bf  384 -   386          5.300332400717         -2.377451266368         -0.497782134305
      0.1005682367D+00  0.1000000000D+01
 Atom C13      Shell   141 D   1     bf  387 -   391          5.300332400717         -2.377451266368         -0.497782134305
      0.1097000000D+01  0.1000000000D+01
 Atom C13      Shell   142 D   1     bf  392 -   396          5.300332400717         -2.377451266368         -0.497782134305
      0.3180000000D+00  0.1000000000D+01
 Atom C13      Shell   143 F   1     bf  397 -   403          5.300332400717         -2.377451266368         -0.497782134305
      0.7610000000D+00  0.1000000000D+01
 Atom C14      Shell   144 S   6     bf  404 -   404          1.253931726132         -4.621219432899         -0.239163664389
      0.1357534968D+05  0.6064550360D-03
      0.2035233368D+04  0.4697908888D-02
      0.4632256236D+03  0.2433247765D-01
      0.1312001960D+03  0.9739996831D-01
      0.4285301589D+02  0.3019558425D+00
      0.1558418577D+02  0.6623360914D+00
 Atom C14      Shell   145 S   2     bf  405 -   405          1.253931726132         -4.621219432899         -0.239163664389
      0.6206713851D+01  0.6559530854D+00
      0.2576489653D+01  0.3758563329D+00
 Atom C14      Shell   146 S   1     bf  406 -   406          1.253931726132         -4.621219432899         -0.239163664389
      0.5769633942D+00  0.1000000000D+01
 Atom C14      Shell   147 S   1     bf  407 -   407          1.253931726132         -4.621219432899         -0.239163664389
      0.2297283136D+00  0.1000000000D+01
 Atom C14      Shell   148 S   1     bf  408 -   408          1.253931726132         -4.621219432899         -0.239163664389
      0.9516444003D-01  0.1000000000D+01
 Atom C14      Shell   149 P   4     bf  409 -   411          1.253931726132         -4.621219432899         -0.239163664389
      0.3469723224D+02  0.1132722000D-01
      0.7958262283D+01  0.7616965920D-01
      0.2378082688D+01  0.3019225220D+00
      0.8143320818D+00  0.7278502735D+00
 Atom C14      Shell   150 P   1     bf  412 -   414          1.253931726132         -4.621219432899         -0.239163664389
      0.2888754725D+00  0.1000000000D+01
 Atom C14      Shell   151 P   1     bf  415 -   417          1.253931726132         -4.621219432899         -0.239163664389
      0.1005682367D+00  0.1000000000D+01
 Atom C14      Shell   152 D   1     bf  418 -   422          1.253931726132         -4.621219432899         -0.239163664389
      0.1097000000D+01  0.1000000000D+01
 Atom C14      Shell   153 D   1     bf  423 -   427          1.253931726132         -4.621219432899         -0.239163664389
      0.3180000000D+00  0.1000000000D+01
 Atom C14      Shell   154 F   1     bf  428 -   434          1.253931726132         -4.621219432899         -0.239163664389
      0.7610000000D+00  0.1000000000D+01
 Atom C15      Shell   155 S   6     bf  435 -   435          1.838048069040          4.447519580240          2.098382208563
      0.1357534968D+05  0.6064550360D-03
      0.2035233368D+04  0.4697908888D-02
      0.4632256236D+03  0.2433247765D-01
      0.1312001960D+03  0.9739996831D-01
      0.4285301589D+02  0.3019558425D+00
      0.1558418577D+02  0.6623360914D+00
 Atom C15      Shell   156 S   2     bf  436 -   436          1.838048069040          4.447519580240          2.098382208563
      0.6206713851D+01  0.6559530854D+00
      0.2576489653D+01  0.3758563329D+00
 Atom C15      Shell   157 S   1     bf  437 -   437          1.838048069040          4.447519580240          2.098382208563
      0.5769633942D+00  0.1000000000D+01
 Atom C15      Shell   158 S   1     bf  438 -   438          1.838048069040          4.447519580240          2.098382208563
      0.2297283136D+00  0.1000000000D+01
 Atom C15      Shell   159 S   1     bf  439 -   439          1.838048069040          4.447519580240          2.098382208563
      0.9516444003D-01  0.1000000000D+01
 Atom C15      Shell   160 P   4     bf  440 -   442          1.838048069040          4.447519580240          2.098382208563
      0.3469723224D+02  0.1132722000D-01
      0.7958262283D+01  0.7616965920D-01
      0.2378082688D+01  0.3019225220D+00
      0.8143320818D+00  0.7278502735D+00
 Atom C15      Shell   161 P   1     bf  443 -   445          1.838048069040          4.447519580240          2.098382208563
      0.2888754725D+00  0.1000000000D+01
 Atom C15      Shell   162 P   1     bf  446 -   448          1.838048069040          4.447519580240          2.098382208563
      0.1005682367D+00  0.1000000000D+01
 Atom C15      Shell   163 D   1     bf  449 -   453          1.838048069040          4.447519580240          2.098382208563
      0.1097000000D+01  0.1000000000D+01
[...]
 7,-0.00000595,0.00000094,-0.00000171,-0.00000956,0.00000151,0.00000394
 ,-0.00000761,0.00000650,-0.00000059,0.00003482,-0.00005453,-0.00008678
 ,-0.00002272,0.00005112,0.00001441,-0.01104515,0.00337181,-0.01551285,
 0.13245595,-0.04328733,0.24095626,-0.00137126,-0.00042100,-0.00211302,
 -0.00005701,-0.00029202,-0.00075193,0.00061370,0.00073430,-0.00056540,
 -0.00027448,0.00005244,-0.00003724,-0.00038330,0.00091637,-0.00090497,
 0.00017592,-0.00012906,-0.00002051,-0.00004385,-0.00005634,0.00003372,
 -0.00009647,-0.00022430,-0.00003723,-0.00981085,0.00145327,0.00178215,
 0.00003530,0.00002525,-0.00001243,0.00006359,-0.00002309,-0.00001186,-
 0.00000399,0.00000824,0.00000308,-0.00001133,-0.00001526,0.00002557,-0
 .00002351,0.00011340,-0.00002332,-0.29588629,0.03316281,0.07747390,-0.
 00015094,-0.00196479,0.00167270,-0.00030079,0.00023553,0.00000055,-0.0
 0000772,-0.00019941,-0.00004803,-0.00013656,0.00028436,-0.00080331,0.0
 0001972,0.00024565,-0.00035805,-0.00006677,-0.00004149,0.00009315,0.00
 003051,0.00000537,0.00000857,0.00000494,-0.00000650,0.00000086,0.00001
 522,0.00000087,0.00001097,0.00000986,-0.00000003,0.00000238,0.00001167
 ,0.00000260,-0.00000397,0.00000202,-0.00000340,0.00000160,0.00001905,-
 0.00005312,0.00000584,0.00000227,-0.00001125,0.00001984,-0.00007084,-0
 .00020257,-0.00088298,-0.01463803,0.00223132,0.00517787,0.32199756,0.0
 0016184,0.00058582,0.00000052,-0.00003534,0.00053694,0.00050348,0.0001
 0001,-0.00061430,0.00059410,0.00042557,-0.00012045,-0.00008787,-0.0000
 5627,0.00127224,-0.00017368,0.00030025,-0.00030027,-0.00022452,0.00002
 242,0.00032986,0.00008659,-0.00037977,0.00012402,-0.00019486,-0.027282
 58,0.00466731,0.00671941,-0.00027419,-0.00013216,0.00001179,0.00002555
 ,-0.00008879,-0.00002691,0.00001132,-0.00001579,-0.00000280,0.00016275
 ,-0.00007600,0.00006874,0.00006642,0.00013535,0.00000436,0.03630029,-0
 .05187979,-0.01030376,-0.00111263,-0.00504838,0.00248227,-0.00133303,0
 .00042630,-0.00026908,-0.00005202,-0.00037518,0.00001525,-0.00018572,-
 0.00060162,-0.00059393,0.00006440,-0.00025842,0.00012738,0.00004149,-0
 .00015934,0.00010369,-0.00006672,-0.00001955,-0.00005185,-0.00001414,0
 .00000063,0.00002550,0.00000901,0.00001661,-0.00000141,-0.00001903,0.0
 0000189,-0.00001056,-0.00001891,0.00000258,0.00001266,-0.00000389,0.00
 000046,0.00000193,0.00002450,-0.00002997,0.00000454,-0.00000419,0.0000
 1725,0.00000409,0.02519309,-0.00288635,-0.00612248,0.00394421,-0.00162
 547,-0.00175349,-0.03572579,0.05613373,-0.00084062,-0.00020800,-0.0023
 4602,-0.00051179,0.00082939,-0.00000442,0.00035557,0.00018578,-0.00039
 029,-0.00050669,0.00010609,0.00013343,0.00009467,-0.00072039,0.0006431
 7,-0.00037620,0.00027023,0.00012152,-0.00009485,-0.00042475,-0.0000885
 9,0.00043603,0.00000738,0.00003647,0.01363470,-0.00416370,-0.00482910,
 0.00046713,-0.00003564,-0.00006197,0.00000162,0.00007232,-0.00000093,-
 0.00002576,-0.00002687,-0.00000351,-0.00027391,0.00038101,-0.00014856,
 -0.00006322,-0.00016407,-0.00003747,0.07380099,-0.00842490,-0.07095578
 ,0.00068884,0.00332813,-0.00051127,0.00058634,-0.00062127,0.00088573,-
 0.00000060,0.00019889,-0.00011327,-0.00060102,-0.00092100,-0.00117238,
 0.00013114,-0.00015643,0.00020130,0.00009315,-0.00010369,0.00009637,-0
 .00001781,0.00001584,0.00001008,0.00001284,-0.00001603,-0.00000830,-0.
 00001140,-0.00002685,0.00001010,0.00000164,0.00000978,0.00000338,0.000
 02080,0.00001786,-0.00000551,0.00000992,-0.00001385,-0.00000532,-0.000
 02554,0.00000862,-0.00002343,-0.00000371,-0.00001470,-0.00000597,0.018
 40370,-0.00180396,-0.00584386,-0.02572552,0.00368129,0.00928599,-0.079
 79107,0.00894512,0.07545884,-0.00000900,-0.00000883,-0.00000532,-0.000
 02211,0.00013994,0.00013691,0.00008102,0.00143916,-0.00040116,0.000015
 36,-0.00007760,0.00000916,-0.00540074,-0.00186669,0.00076690,-0.000385
 73,-0.00007840,-0.00010085,0.00000596,0.00007320,0.00000352,-0.0006027
 8,-0.00063762,0.00038054,-0.01419719,0.02653088,-0.00898235,-0.0000716
 4,0.00006409,0.00007582,-0.00011171,-0.00010675,-0.00002136,-0.0000011
 3,-0.00002096,-0.00000184,-0.00069449,-0.00301125,0.00090956,0.0001991
 8,-0.00004142,-0.00006242,0.00078070,0.00098938,-0.00115915,-0.1396493
 4,0.11778772,-0.03835388,0.01000837,-0.01199543,0.00420864,0.00104456,
 -0.00068799,0.00027641,-0.00003626,-0.00007461,-0.00000162,0.00002541,
 -0.00004520,0.00000157,0.00003051,0.00006672,-0.00001781,-0.00003854,-
 0.00000952,-0.00001157,-0.00005417,0.00001105,0.00000865,-0.00000542,0
 .00001735,0.00000299,-0.00001518,-0.00000019,-0.00000542,-0.00001898,0
 .00000146,0.00000677,-0.00000168,0.00000448,-0.00000029,0.00049565,-0.
 00070091,-0.00010424,-0.00001584,0.00006593,0.00000630,-0.00041909,-0.
 00038636,-0.00008245,-0.00037096,-0.00030666,0.00090315,0.00039489,-0.
 00017501,0.00009485,0.14884178,0.00000729,0.00000332,0.00001953,0.0001
 0214,0.00004162,0.00001425,-0.00051887,0.00003661,-0.00006158,-0.00005
 073,0.00003454,0.00000677,-0.00021082,0.00113058,0.00238211,0.00003343
 ,-0.00011091,-0.00009213,-0.00000881,-0.00007887,-0.00000400,-0.000111
 34,0.00032082,-0.00037446,-0.00376744,0.00336350,0.00028401,0.00007385
 ,0.00003900,-0.00000426,0.00016326,0.00014869,0.00004408,-0.00000221,0
 .00001092,-0.00000277,-0.00415501,-0.00231524,0.00307031,-0.00010962,0
 .00011425,-0.00027387,-0.00147246,-0.00006709,-0.00062521,0.11983377,-
 0.22527379,0.06572666,0.01669350,-0.01861438,0.00731044,0.00133194,0.0
 0058484,-0.00081920,-0.00000490,0.00001256,-0.00000808,0.00001034,0.00
 000761,0.00000594,-0.00000537,-0.00001955,-0.00001584,0.00000952,0.000
 00631,0.00000711,0.00000939,-0.00000457,-0.00001872,0.00002798,-0.0000
 1072,0.00000615,0.00000946,0.00000097,0.00000462,0.00001274,0.00000177
 ,-0.00000477,0.00000301,-0.00000576,0.00000039,0.00070319,-0.00102713,
 0.00000742,-0.00002408,0.00003354,0.00001247,0.00015409,-0.00007499,-0
 .00028582,-0.00018561,0.00061380,-0.00038790,-0.00010386,-0.00001475,-
 0.00020756,-0.12712617,0.24089799,-0.00008946,-0.00001044,0.00000708,0
 .00053764,0.00029169,0.00006651,-0.00090128,-0.00034503,0.00030572,-0.
 00048931,0.00019973,0.00004073,0.00235949,-0.00041390,0.00723752,-0.00
 032936,-0.00052992,-0.00013455,-0.00000684,-0.00049393,-0.00011640,0.0
 0233009,-0.00007189,-0.00133074,-0.00277978,0.00114805,0.00338979,0.00
 046237,0.00013670,-0.00006846,0.00067498,0.00055050,0.00010952,-0.0000
 1011,-0.00000671,0.00000895,0.00047149,0.00386789,0.00452977,-0.000807
 96,0.00041660,-0.00056163,0.00098232,-0.00242758,-0.00213516,-0.035684
 27,0.06949608,-0.06151905,-0.00785509,0.00431303,0.00201764,-0.0002210
 1,-0.00152646,-0.00200623,0.00002000,-0.00000125,-0.00000303,-0.000011
 74,-0.00000787,-0.00000843,0.00000857,0.00005185,0.00001008,-0.0000115
 7,-0.00000711,0.00003511,0.00001262,0.00001256,-0.00005792,0.00000780,
 -0.00000154,0.00002102,-0.00000028,0.00000363,0.00000261,0.00000023,0.
 00000647,0.00000086,-0.00000190,0.00000105,-0.00000194,-0.00043326,0.0
 0066742,0.00032284,0.00002603,-0.00003191,0.00002678,-0.00021297,-0.00
 084927,0.00004001,-0.00028302,0.00025733,-0.00053344,0.00003868,0.0000
 8046,-0.00030593,0.04172376,-0.07504129,0.05127068,-0.00005105,-0.0000
 0976,-0.00000963,-0.00000153,0.00011674,-0.00000726,0.00009031,0.00001
 690,0.00022939,-0.00002249,0.00002874,0.00000624,-0.00012829,0.0000177
 0,0.00026110,-0.00004037,0.00002169,-0.00003096,-0.00000916,0.00002209
 ,-0.00000779,-0.00049195,0.00018178,-0.00185302,-0.00033930,-0.0002124
 8,-0.00116277,-0.00002608,-0.00006536,-0.00004482,-0.00012157,-0.00004
 532,0.00010232,-0.00000309,-0.00002668,0.00001163,-0.00218231,-0.00150
 475,0.00027893,-0.00003169,-0.00022927,-0.00007106,0.00000639,0.000107
 14,0.00003368,0.00050270,0.00059623,-0.00083977,-0.01204977,0.01785543
 ,0.02761395,-0.06320716,0.03507635,0.05978250,0.00002013,-0.00002427,-
 0.00000113,-0.00001403,-0.00001859,-0.00000956,0.00001167,0.00001891,0
 .00002080,-0.00001898,-0.00001274,0.00000023,-0.00001204,0.00001327,0.
 00000581,-0.00003299,0.00001531,0.00002388,-0.00001847,0.00000173,-0.0
 0000684,-0.00002305,0.00000216,0.00000663,-0.00000633,0.00000807,-0.00
 000132,0.00005432,0.00023093,0.00074633,0.00000837,0.00002097,-0.00000
 250,0.00001093,-0.00001161,-0.00001562,0.00001543,-0.00001144,0.000019
 16,0.00001036,0.00001110,0.00000036,0.00018279,-0.00018859,0.00065093,
 0.07190100,-0.00000378,-0.00000371,0.00000497,-0.00012522,-0.00004845,
 0.00000472,0.00028618,-0.00000138,-0.00006925,0.00010688,-0.00004849,-
 0.00000402,-0.00044897,0.00092009,-0.00023500,0.00008910,0.00017907,-0
 .00002647,-0.00001343,0.00010959,0.00003477,-0.00067505,-0.00013883,0.
 00059926,0.00153497,-0.00043098,-0.00003810,-0.00009035,-0.00005011,0.
 00000012,-0.00020198,-0.00015420,0.00000595,0.00000244,-0.00000151,-0.
 00000115,0.00163326,-0.00023656,0.00021950,0.00022228,-0.00012509,-0.0
 0007104,0.00001301,-0.00003823,0.00006332,-0.00201312,-0.00045086,0.00
 029832,0.00096085,0.00091612,0.00169699,0.03386137,-0.11350298,-0.1098
 3207,-0.00000633,-0.00000470,-0.00000218,0.00001363,-0.00000017,-0.000
 00151,-0.00000260,0.00000258,-0.00001786,-0.00000146,0.00000177,-0.000
 00647,-0.00000075,-0.00000150,-0.00000251,0.00000645,-0.00000127,0.000
 00788,-0.00000140,0.00000067,-0.00000099,-0.00000216,-0.00000102,0.000
 00046,0.00000020,-0.00000118,-0.00000042,-0.00002214,0.00013444,-0.000
 52449,-0.00000781,0.00000675,-0.00000588,-0.00000970,0.00003246,-0.000
 00835,-0.00002473,0.00000390,-0.00000287,0.00001464,0.00000445,-0.0000
 0102,0.00006890,-0.00014980,-0.00002635,-0.03904728,0.11928247,0.00000
 707,0.00000730,0.00000535,-0.00000793,-0.00004667,-0.00000469,0.000032
 32,-0.00000556,-0.00006970,0.00001467,-0.00000028,-0.00000061,-0.00012
 409,-0.00004377,-0.00009784,-0.00000926,0.00000400,0.00000742,-0.00001
 129,-0.00000848,0.00000484,0.00021300,0.00004309,-0.00015659,0.0002605
 5,0.00016162,0.00026186,0.00002087,0.00002219,0.00001456,0.00003307,0.
 00000423,0.00000044,0.00000127,0.00000791,-0.00000455,-0.00045333,0.00
 069036,-0.00024528,-0.00001076,0.00007786,0.00003600,0.00000727,-0.000
 02362,-0.00000488,0.00028392,-0.00015987,0.00096399,0.00123340,-0.0000
 7909,0.00004442,0.05780132,-0.11016825,-0.22454520,-0.00000162,0.00000
 738,-0.00000357,0.00000428,0.00000300,0.00000394,-0.00000397,-0.000012
 66,-0.00000551,0.00000677,0.00000477,0.00000086,0.00000294,-0.00000395
 ,-0.00000190,0.00000646,-0.00000253,-0.00000845,0.00000535,-0.00000008
 ,0.00000301,0.00000663,-0.00000046,-0.00000263,0.00000158,-0.00000291,
 0.00000026,-0.00003494,0.00003797,0.00003830,-0.00000652,0.00000053,-0
 .00000310,0.00001590,0.00002177,0.00001050,-0.00000075,-0.00000669,-0.
 00001561,0.00000117,0.00001062,-0.00000144,0.00013302,0.00002652,-0.00
 045156,-0.06443366,0.12097188,0.24194604,0.00000218,-0.00000619,-0.000
 00468,-0.00003358,-0.00001895,0.00000328,0.00013543,0.00013374,0.00000
 404,0.00004433,-0.00000076,0.00000063,0.00001906,0.00020134,-0.0001011
 1,0.00001404,0.00005925,-0.00000643,-0.00000132,0.00005693,0.00001116,
 -0.00019759,0.00014107,0.00006740,0.00028854,-0.00143280,0.00098600,-0
 .00005569,-0.00002368,-0.00000576,-0.00012127,-0.00007373,-0.00001687,
 0.00000117,-0.00000641,0.00000406,0.00209845,-0.00184793,0.00044651,0.
 00013970,-0.00010337,0.00000190,-0.00046127,0.00007845,-0.00001433,-0.
 00653784,0.00160637,-0.00024813,-0.01081305,-0.03262639,0.00304788,-0.
 07821970,-0.08263758,0.00610506,0.00000743,0.00000879,0.00000149,-0.00
 000712,0.00000148,-0.00000761,0.00000202,0.00000389,0.00000992,-0.0000
 0168,-0.00000301,-0.00000190,-0.00000753,0.00000402,0.00000166,0.00000
 470,0.00000286,-0.00000524,-0.00000490,0.00000003,-0.00000222,-0.00000
 633,-0.00000020,0.00000158,-0.00000244,0.00000286,-0.00000006,-0.00033
 889,0.00126668,-0.00027964,-0.00002332,0.00004767,0.00001154,-0.000006
 52,-0.00001088,0.00000143,0.00002431,0.00002474,-0.00001862,-0.0000747
 2,-0.00013134,0.00006023,-0.00002052,-0.00006772,-0.00008535,0.0024453
 0,0.00843236,-0.00172095,0.08695778,0.00000689,0.00000289,-0.00000741,
 -0.00003411,0.00000374,-0.00000497,0.00006429,0.00005107,-0.00004703,0
 .00000788,-0.00001276,0.00000442,-0.00000076,0.00024992,-0.00001483,0.
 00001659,0.00003873,-0.00001653,0.00001456,0.00003177,-0.00000133,-0.0
 0029170,0.00029016,0.00013692,0.00050579,0.00001313,0.00010291,-0.0000
 3943,-0.00002662,0.00000004,-0.00007767,0.00002625,0.00001070,0.000001
 82,-0.00000755,0.00000386,0.00190187,0.00084972,-0.00011613,-0.0000190
 1,-0.00013035,-0.00002307,-0.00005840,0.00000606,-0.00002329,-0.000361
 56,0.00047795,-0.00017966,0.00129345,0.00053068,0.00010005,-0.08679601
 ,-0.28656779,0.02069941,0.00000737,0.00000476,0.00000214,-0.00001079,-
 0.00000049,-0.00000650,0.00000340,0.00000046,0.00001385,-0.00000448,-0
 .00000576,-0.00000105,-0.00000641,0.00000675,0.00000354,-0.00001482,0.
 00000527,0.00000280,-0.00000654,-0.00000173,-0.00000348,-0.00000807,-0
 .00000118,0.00000291,-0.00000286,0.00000619,0.00000021,-0.00026798,0.0
 0036331,-0.00024456,0.00000530,0.00002592,0.00000321,0.00000421,-0.000
 00906,0.00000885,0.00001275,0.00000279,-0.00001782,-0.00002562,-0.0000
 1618,0.00001107,0.00017297,0.00027306,-0.00018755,-0.00484574,-0.01404
 658,0.00224244,0.09295257,0.30888175,0.00000154,-0.00000301,0.00000197
 ,-0.00003020,-0.00001168,0.00000851,0.00007388,-0.00001382,0.00003090,
 0.00002345,-0.00000535,-0.00000283,-0.00011382,0.00016548,-0.00003500,
 0.00001894,0.00004474,-0.00000547,-0.00000561,0.00002501,0.00000676,-0
 .00015186,-0.00007554,-0.00018146,0.00041354,0.00016432,0.00025327,-0.
 00001955,-0.00001503,-0.00000502,-0.00004176,-0.00004189,0.00000104,0.
 00000042,-0.00000153,0.00000072,-0.00037073,-0.00009164,-0.00001835,0.
 00003808,-0.00002573,-0.00008462,0.00005681,-0.00010735,-0.00009656,0.
 00087533,0.00027515,0.00118147,0.00167779,0.00375371,-0.00209554,0.006
 15971,0.01999198,-0.04875147,-0.00000158,-0.00000211,-0.00000471,0.000
 00334,-0.00000195,-0.00000059,0.00000160,-0.00000193,-0.00000532,-0.00
 000029,-0.00000039,-0.00000194,0.00000077,-0.00000045,0.00000169,0.000
 00304,-0.00000046,0.00001290,-0.00000132,-0.00000014,-0.00000065,-0.00
 000132,0.00000042,0.00000026,-0.00000006,-0.00000021,0.00000045,-0.000
 01724,-0.00005842,0.00034614,0.00000313,-0.00000197,0.00002113,-0.0000
 2032,-0.00000847,0.00001176,-0.00000966,0.00000972,-0.00000083,0.00000
 996,0.00002230,-0.00002574,-0.00003245,-0.00030530,-0.00006736,-0.0097
 9292,-0.02563273,0.00323663,-0.00859957,-0.02212989,0.04725806,-0.0000
 1380,-0.00000553,-0.00000533,0.00001691,0.00010464,0.00001804,0.000010
 51,-0.00008991,0.00001430,-0.00006676,0.00003572,0.00001874,-0.0000062
 4,0.00006157,-0.00013528,-0.00008006,-0.00004767,0.00002280,-0.0000060
 6,-0.00003478,-0.00002393,-0.00028288,0.00095652,0.00138913,-0.0001275
 2,0.00035517,0.00050590,0.00002934,-0.00003168,-0.00002490,-0.00000988
 ,0.00008770,-0.00008900,-0.00000216,-0.00001959,0.00001104,-0.00387127
 ,-0.00215302,0.00037456,-0.00039854,-0.00014135,0.00008359,0.00003047,
 -0.00001375,-0.00002532,0.00150590,0.00171859,0.00015359,-0.01601087,0
 .01598928,-0.02581889,-0.09658177,0.04824896,-0.09234536,0.00000229,-0
 .00002070,-0.00000316,-0.00000248,-0.00001176,-0.00000595,0.00000986,0
 .00001903,0.00000164,-0.00001518,-0.00000946,-0.00000028,-0.00000811,0
 .00000952,0.00000157,-0.00004554,0.00001246,0.00000977,-0.00001244,0.0
 0000130,-0.00000477,-0.00001847,0.00000140,0.00000535,-0.00000490,0.00
 000654,-0.00000132,-0.00006528,-0.00002617,-0.00049827,0.00002813,0.00
 000337,0.00001600,-0.00001833,-0.00001796,-0.00000137,-0.00001614,-0.0
 0002781,0.00003543,0.00000213,0.00000636,-0.00002483,0.00003631,-0.001
 06530,-0.00009246,0.00357200,-0.00454824,0.00672626,0.00475083,-0.0040
 9971,0.00984895,0.10767001,-0.00000265,-0.00000832,0.00000682,-0.00003
 832,-0.00003258,0.00000682,0.00018345,0.00006615,0.00018241,0.00005011
 ,0.00000198,-0.00000773,-0.00040435,0.00038861,-0.00019645,-0.00001940
 ,0.00007669,0.00000260,-0.00002123,0.00003984,0.00001643,-0.00012094,-
 0.00016234,-0.00021261,0.00090798,-0.00023524,-0.00042776,-0.00002087,
 -0.00000664,-0.00002457,-0.00007848,-0.00010842,-0.00001446,0.00000086
 ,-0.00000239,0.00000245,0.00105672,0.00017183,0.00012717,0.00011722,-0
 .00002086,-0.00000305,0.00002413,-0.00001370,0.00005072,-0.00177477,0.
 00010297,-0.00009471,0.00137322,-0.00087566,-0.00148958,0.04835250,-0.
 09755334,0.09232881,-0.00000201,-0.00000485,-0.00000525,0.00000610,-0.
 00000210,-0.00000094,0.00000003,0.00000190,-0.00000978,0.00000019,0.00
 000097,-0.00000363,-0.00000177,-0.00000169,0.00000097,0.00001006,-0.00
 000061,-0.00000083,-0.00000130,0.00000090,-0.00000048,-0.00000173,0.00
 000067,0.00000008,-0.00000003,-0.00000173,0.00000014,-0.00010054,0.000
 37660,0.00029923,-0.00001187,0.00000483,0.00001860,-0.00000859,0.00002
 277,-0.00001273,-0.00001324,0.00001704,-0.00000210,0.00001248,0.000007
 31,-0.00001414,-0.00007569,0.00009126,0.00047899,-0.00810934,0.0078432
 5,-0.01378060,0.01396583,-0.01131627,0.02408419,-0.05525376,0.10113120
 ,-0.00000553,0.00000283,-0.00000857,0.00005917,0.00006127,-0.00000179,
 -0.00010484,-0.00005058,-0.00002677,-0.00007015,0.00003433,0.00001656,
 0.00025090,-0.00046772,0.00018625,-0.00006082,-0.00009519,0.00000492,0
 .00000430,-0.00006208,-0.00002551,0.00072441,-0.00009262,-0.00032191,-
 0.00066518,0.00001605,0.00020008,0.00005755,0.00000252,-0.00000238,0.0
 0012233,0.00004910,-0.00000287,-0.00000139,-0.00000709,0.00000306,0.00
 019904,-0.00009209,-0.00008681,-0.00010978,0.00007567,-0.00000732,-0.0
 0001168,0.00001067,-0.00005857,0.00075044,0.00051938,0.00062536,0.0034
 5273,-0.00303700,0.00506540,-0.09303447,0.09262924,-0.21174455,0.00000
 111,-0.00000858,0.00000605,-0.00000526,-0.00000351,-0.00000171,0.00000
 238,0.00001056,0.00000338,-0.00000542,-0.00000462,0.00000261,-0.000001
 09,0.00000511,0.00000146,-0.00000083,0.00000322,0.00000192,-0.00000477
 ,0.00000048,-0.00000230,-0.00000684,0.00000099,0.00000301,-0.00000222,
 0.00000348,-0.00000065,0.00006275,-0.00003837,0.00011764,0.00000232,-0
 .00001000,-0.00000047,-0.00001531,-0.00002930,-0.00000774,0.00000450,0
 .00000416,0.00003043,0.00000278,-0.00000762,0.00000267,-0.00030432,-0.
 00039602,-0.00014138,-0.01150326,0.01260260,-0.02095528,0.00035270,-0.
 00032421,-0.00099020,0.09986375,-0.10130503,0.22811597\\-0.00000037,0.
 ,0.00000033,-0.00000026,0.00000003,0.00000050,0.00000010,0.00000008,0.
 00000025,0.00000003,0.,0.00000091,-0.00000008,0.00000011,-0.00000025,0
 .00000016,0.00000002,0.00000045,-0.00000005,0.00000011,0.00000120,-0.0
 0000016,0.00000003,-0.00000045,0.00000023,0.,-0.00000051,0.00000005,-0
 .00000010,0.00000089,-0.00000005,-0.00000009,0.00000021,0.00000007,0.0
 0000002,0.00000165,-0.00000006,-0.00000011,-0.00000090,0.00000006,-0.0
 0000010,-0.00000022,0.00000040,0.00000002,-0.00000032,-0.00000002,-0.0
 0000002,-0.00000091,0.00000005,0.00000015,-0.00000120,-0.00000007,0.00
 000002,-0.00000165,-0.00000015,-0.00000002,0.00000033,-0.00000063,-0.0
 0000002,0.00000051,-0.00000047,-0.00000002,-0.00000004,-0.00000019,-0.
 00000004,0.00000111,0.00000013,0.00000001,0.00000108,0.00000012,0.0000
 0003,0.00000040,-0.00000020,0.00000002,0.00000177,0.00000037,-0.000000
 03,0.00000172,0.00000011,0.,0.00000178,-0.00000014,0.,-0.00000107,-0.0
 0000013,0.00000002,-0.00000039,0.00000015,-0.00000001,-0.00000032,0.00
 000063,-0.00000002,-0.00000052,0.00000045,-0.00000001,0.00000004,0.000
 00019,-0.00000004,-0.00000110,-0.00000037,-0.00000003,-0.00000172,-0.0
 0000011,0.,-0.00000178,0.00000021,0.00000002,-0.00000177\\\@


 THE TEST OF A FIRST RATE INTELLIGENCE IS THE ABILITY TO HOLD TWO OPPOSED
 IDEAS IN THE MIND AT THE SAME TIME, AND STILL RETAIN THE ABILITY TO FUNCTION.
 ONE SHOULD, FOR EXAMPLE, BE ABLE TO SEE THAT THINGS ARE HOPELESS AND YET BE
 DETERMINED TO MAKE THEM OTHERWISE.

                                                       -- F. SCOTT FITZGERALD
 Job cpu time:       1 days 16 hours 14 minutes 40.9 seconds.
 File lengths (MBytes):  RWF=   1296 Int=      0 D2E=      0 Chk=     33 Scr=      1
 Normal termination of Gaussian 09 at Sat Jul 10 01:33:46 2021.
