 Entering Gaussian System, Link 0=g09
 Initial command:
 /home/minenky/programs//g09/l1.exe "/local/scratch/minenky/m1_00_462-80-60_C6H4_wB97XD/Gau-184178.inp" -scrdir="/local/scratch/minenky/m1_00_462-80-60_C6H4_wB97XD/"
 Entering Link 1 = /home/minenky/programs//g09/l1.exe PID=    184180.
  
 Copyright (c) 1988,1990,1992,1993,1995,1998,2003,2009,2013,
            Gaussian, Inc.  All Rights Reserved.
  
 This is part of the Gaussian(R) 09 program.  It is based on
 the Gaussian(R) 03 system (copyright 2003, Gaussian, Inc.),
 the Gaussian(R) 98 system (copyright 1998, Gaussian, Inc.),
 the Gaussian(R) 94 system (copyright 1995, Gaussian, Inc.),
 the Gaussian 92(TM) system (copyright 1992, Gaussian, Inc.),
 the Gaussian 90(TM) system (copyright 1990, Gaussian, Inc.),
 the Gaussian 88(TM) system (copyright 1988, Gaussian, Inc.),
 the Gaussian 86(TM) system (copyright 1986, Carnegie Mellon
 University), and the Gaussian 82(TM) system (copyright 1983,
 Carnegie Mellon University). Gaussian is a federally registered
 trademark of Gaussian, Inc.
  
 This software contains proprietary and confidential information,
 including trade secrets, belonging to Gaussian, Inc.
  
 This software is provided under written license and may be
 used, copied, transmitted, or stored only in accord with that
 written license.
  
 The following legend is applicable only to US Government
 contracts under FAR:
  
                    RESTRICTED RIGHTS LEGEND
  
 Use, reproduction and disclosure by the US Government is
 subject to restrictions as set forth in subparagraphs (a)
 and (c) of the Commercial Computer Software - Restricted
 Rights clause in FAR 52.227-19.
  
 Gaussian, Inc.
 340 Quinnipiac St., Bldg. 40, Wallingford CT 06492
  
  
 ---------------------------------------------------------------
 Warning -- This program may not be used in any manner that
 competes with the business of Gaussian, Inc. or will provide
 assistance to any competitor of Gaussian, Inc.  The licensee
 of this program is prohibited from giving any competitor of
 Gaussian, Inc. access to this program.  By using this program,
 the user acknowledges that Gaussian, Inc. is engaged in the
 business of creating and licensing software in the field of
 computational chemistry and represents and warrants to the
 licensee that it is not a competitor of Gaussian, Inc. and that
 it will not use this program in any manner prohibited above.
 ---------------------------------------------------------------
  

 Cite this work as:
 Gaussian 09, Revision D.01,
 M. J. Frisch, G. W. Trucks, H. B. Schlegel, G. E. Scuseria, 
 M. A. Robb, J. R. Cheeseman, G. Scalmani, V. Barone, B. Mennucci, 
 G. A. Petersson, H. Nakatsuji, M. Caricato, X. Li, H. P. Hratchian, 
 A. F. Izmaylov, J. Bloino, G. Zheng, J. L. Sonnenberg, M. Hada, 
 M. Ehara, K. Toyota, R. Fukuda, J. Hasegawa, M. Ishida, T. Nakajima, 
 Y. Honda, O. Kitao, H. Nakai, T. Vreven, J. A. Montgomery, Jr., 
 J. E. Peralta, F. Ogliaro, M. Bearpark, J. J. Heyd, E. Brothers, 
 K. N. Kudin, V. N. Staroverov, T. Keith, R. Kobayashi, J. Normand, 
 K. Raghavachari, A. Rendell, J. C. Burant, S. S. Iyengar, J. Tomasi, 
 M. Cossi, N. Rega, J. M. Millam, M. Klene, J. E. Knox, J. B. Cross, 
 V. Bakken, C. Adamo, J. Jaramillo, R. Gomperts, R. E. Stratmann, 
 O. Yazyev, A. J. Austin, R. Cammi, C. Pomelli, J. W. Ochterski, 
 R. L. Martin, K. Morokuma, V. G. Zakrzewski, G. A. Voth, 
 P. Salvador, J. J. Dannenberg, S. Dapprich, A. D. Daniels, 
 O. Farkas, J. B. Foresman, J. V. Ortiz, J. Cioslowski, 
 and D. J. Fox, Gaussian, Inc., Wallingford CT, 2013.
 
 ******************************************
 Gaussian 09:  AM64L-G09RevD.01 24-Apr-2013
                 9-Jul-2021 
 ******************************************
 %Mem=32000MB
 %NProcShared=16
 Will use up to   16 processors via shared memory.
 %Chk=m1_00_462-80-60_C6H4_wB97XD
 ----------------------------------------------------------------------
 #P wB97XD/def2tzvp opt=(tight) freq integral(Grid=ultrafine) # SCF(Max
 Cycle=380) 5d 7f GFPrint
 ----------------------------------------------------------------------
 1/7=10,14=-1,18=20,19=15,26=4,38=1/1,3;
 2/9=110,12=2,17=6,18=5,40=1/2;
 3/5=44,7=101,8=11,11=2,16=1,24=100,25=1,30=1,71=1,74=-58,75=-5/1,2,3;
 4//1;
 5/5=2,7=380,38=5/2;
 6/7=2,8=2,9=2,10=2,28=1/1;
 7//1,2,3,16;
 1/7=10,14=-1,18=20,19=15,26=4/3(2);
 2/9=110/2;
 99//99;
 2/9=110/2;
 3/5=44,7=101,8=11,11=2,16=1,25=1,30=1,71=1,74=-58,75=-5/1,2,3;
 4/5=5,16=3,69=1/1;
 5/5=2,7=380,38=5/2;
 7//1,2,3,16;
 1/7=10,14=-1,18=20,19=15,26=4/3(-5);
 2/9=110/2;
 6/7=2,8=2,9=2,10=2,19=2,28=1/1;
 99/9=1/99;
 Leave Link    1 at Fri Jul  9 19:19:35 2021, MaxMem=  4194304000 cpu:         1.6
 (Enter /home/minenky/programs//g09/l101.exe)
 ---------------------------------------
 The PBEPBE optimization and frequencies
 ---------------------------------------
 Symbolic Z-matrix:
 Charge =  0 Multiplicity = 1
 C                     0.        0.62071  -1.23142 
 C                     0.       -0.62071  -1.23142 
 C                     0.        1.45516  -0.13352 
 C                     0.       -1.45516  -0.13352 
 C                     0.        0.70044   1.05378 
 C                     0.       -0.70044   1.05378 
 H                     0.        2.53553  -0.13491 
 H                     0.       -2.53553  -0.13491 
 H                     0.        1.22494   2.00191 
 H                     0.       -1.22494   2.00191 
 
 NAtoms=     10 NQM=       10 NQMF=       0 NMMI=      0 NMMIF=      0
                NMic=       0 NMicF=      0.
                    Isotopes and Nuclear Properties:
 (Nuclear quadrupole moments (NQMom) in fm**2, nuclear magnetic moments (NMagM)
  in nuclear magnetons)

  Atom         1           2           3           4           5           6           7           8           9          10
 IAtWgt=          12          12          12          12          12          12           1           1           1           1
 AtmWgt=  12.0000000  12.0000000  12.0000000  12.0000000  12.0000000  12.0000000   1.0078250   1.0078250   1.0078250   1.0078250
 NucSpn=           0           0           0           0           0           0           1           1           1           1
 AtZEff=   0.0000000   0.0000000   0.0000000   0.0000000   0.0000000   0.0000000   0.0000000   0.0000000   0.0000000   0.0000000
 NQMom=    0.0000000   0.0000000   0.0000000   0.0000000   0.0000000   0.0000000   0.0000000   0.0000000   0.0000000   0.0000000
 NMagM=    0.0000000   0.0000000   0.0000000   0.0000000   0.0000000   0.0000000   2.7928460   2.7928460   2.7928460   2.7928460
 AtZNuc=   6.0000000   6.0000000   6.0000000   6.0000000   6.0000000   6.0000000   1.0000000   1.0000000   1.0000000   1.0000000
 Leave Link  101 at Fri Jul  9 19:19:36 2021, MaxMem=  4194304000 cpu:         1.1
 (Enter /home/minenky/programs//g09/l103.exe)

 GradGradGradGradGradGradGradGradGradGradGradGradGradGradGradGradGradGrad
 Berny optimization.
 Initialization pass.
                           ----------------------------
                           !    Initial Parameters    !
                           ! (Angstroms and Degrees)  !
 --------------------------                            --------------------------
 ! Name  Definition              Value          Derivative Info.                !
 --------------------------------------------------------------------------------
 ! R1    R(1,2)                  1.2414         estimate D2E/DX2                !
 ! R2    R(1,3)                  1.379          estimate D2E/DX2                !
 ! R3    R(2,4)                  1.379          estimate D2E/DX2                !
 ! R4    R(3,5)                  1.4069         estimate D2E/DX2                !
 ! R5    R(3,7)                  1.0804         estimate D2E/DX2                !
 ! R6    R(4,6)                  1.4069         estimate D2E/DX2                !
 ! R7    R(4,8)                  1.0804         estimate D2E/DX2                !
 ! R8    R(5,6)                  1.4009         estimate D2E/DX2                !
 ! R9    R(5,9)                  1.0835         estimate D2E/DX2                !
 ! R10   R(6,10)                 1.0835         estimate D2E/DX2                !
 ! A1    A(2,1,3)              127.2362         estimate D2E/DX2                !
 ! A2    A(1,2,4)              127.2362         estimate D2E/DX2                !
 ! A3    A(1,3,5)              110.3215         estimate D2E/DX2                !
 ! A4    A(1,3,7)              127.1625         estimate D2E/DX2                !
 ! A5    A(5,3,7)              122.5161         estimate D2E/DX2                !
 ! A6    A(2,4,6)              110.3215         estimate D2E/DX2                !
 ! A7    A(2,4,8)              127.1625         estimate D2E/DX2                !
 ! A8    A(6,4,8)              122.5161         estimate D2E/DX2                !
 ! A9    A(3,5,6)              122.4423         estimate D2E/DX2                !
 ! A10   A(3,5,9)              118.6065         estimate D2E/DX2                !
 ! A11   A(6,5,9)              118.9512         estimate D2E/DX2                !
 ! A12   A(4,6,5)              122.4423         estimate D2E/DX2                !
 ! A13   A(4,6,10)             118.6065         estimate D2E/DX2                !
 ! A14   A(5,6,10)             118.9512         estimate D2E/DX2                !
 ! D1    D(3,1,2,4)              0.0            estimate D2E/DX2                !
 ! D2    D(2,1,3,5)              0.0            estimate D2E/DX2                !
 ! D3    D(2,1,3,7)            180.0            estimate D2E/DX2                !
 ! D4    D(1,2,4,6)              0.0            estimate D2E/DX2                !
 ! D5    D(1,2,4,8)            180.0            estimate D2E/DX2                !
 ! D6    D(1,3,5,6)              0.0            estimate D2E/DX2                !
 ! D7    D(1,3,5,9)            180.0            estimate D2E/DX2                !
 ! D8    D(7,3,5,6)            180.0            estimate D2E/DX2                !
 ! D9    D(7,3,5,9)              0.0            estimate D2E/DX2                !
 ! D10   D(2,4,6,5)              0.0            estimate D2E/DX2                !
 ! D11   D(2,4,6,10)           180.0            estimate D2E/DX2                !
 ! D12   D(8,4,6,5)            180.0            estimate D2E/DX2                !
 ! D13   D(8,4,6,10)             0.0            estimate D2E/DX2                !
 ! D14   D(3,5,6,4)              0.0            estimate D2E/DX2                !
 ! D15   D(3,5,6,10)           180.0            estimate D2E/DX2                !
 ! D16   D(9,5,6,4)            180.0            estimate D2E/DX2                !
 ! D17   D(9,5,6,10)             0.0            estimate D2E/DX2                !
 --------------------------------------------------------------------------------
 Trust Radius=3.00D-01 FncErr=1.00D-07 GrdErr=1.00D-06
 Number of steps in this run=     51 maximum allowed number of steps=    100.
 GradGradGradGradGradGradGradGradGradGradGradGradGradGradGradGradGradGrad

 Leave Link  103 at Fri Jul  9 19:19:36 2021, MaxMem=  4194304000 cpu:         0.1
 (Enter /home/minenky/programs//g09/l202.exe)
                          Input orientation:                          
 ---------------------------------------------------------------------
 Center     Atomic      Atomic             Coordinates (Angstroms)
 Number     Number       Type             X           Y           Z
 ---------------------------------------------------------------------
      1          6           0        0.000000    0.620711   -1.231424
      2          6           0        0.000000   -0.620711   -1.231424
      3          6           0        0.000000    1.455157   -0.133522
      4          6           0        0.000000   -1.455157   -0.133522
      5          6           0        0.000000    0.700441    1.053780
      6          6           0        0.000000   -0.700441    1.053780
      7          1           0        0.000000    2.535532   -0.134912
      8          1           0        0.000000   -2.535532   -0.134912
      9          1           0        0.000000    1.224941    2.001908
     10          1           0        0.000000   -1.224941    2.001908
 ---------------------------------------------------------------------
                    Distance matrix (angstroms):
                    1          2          3          4          5
     1  C    0.000000
     2  C    1.241422   0.000000
     3  C    1.379017   2.348322   0.000000
     4  C    2.348322   1.379017   2.910314   0.000000
     5  C    2.286594   2.639621   1.406870   2.460953   0.000000
     6  C    2.639621   2.286594   2.460953   1.406870   1.400882
     7  H    2.206553   3.341288   1.080376   3.990689   2.186446
     8  H    3.341288   2.206553   3.990689   1.080376   3.447392
     9  H    3.289305   3.723019   2.147804   3.426804   1.083534
    10  H    3.723019   3.289305   3.426804   2.147804   2.146169
                    6          7          8          9         10
     6  C    0.000000
     7  H    3.447392   0.000000
     8  H    2.186446   5.071064   0.000000
     9  H    2.146169   2.506721   4.325177   0.000000
    10  H    1.083534   4.325177   2.506721   2.449882   0.000000
 Stoichiometry    C6H4
 Framework group  C2V[SGV(C6H4)]
 Deg. of freedom     9
 Full point group                 C2V     NOp   4
 Largest Abelian subgroup         C2V     NOp   4
 Largest concise Abelian subgroup C2      NOp   2
                         Standard orientation:                         
 ---------------------------------------------------------------------
 Center     Atomic      Atomic             Coordinates (Angstroms)
 Number     Number       Type             X           Y           Z
 ---------------------------------------------------------------------
      1          6           0        0.000000    0.620711   -1.231424
      2          6           0        0.000000   -0.620711   -1.231424
      3          6           0        0.000000    1.455157   -0.133522
      4          6           0        0.000000   -1.455157   -0.133522
      5          6           0        0.000000    0.700441    1.053780
      6          6           0        0.000000   -0.700441    1.053780
      7          1           0        0.000000    2.535532   -0.134912
      8          1           0        0.000000   -2.535532   -0.134912
      9          1           0        0.000000    1.224941    2.001908
     10          1           0        0.000000   -1.224941    2.001908
 ---------------------------------------------------------------------
 Rotational constants (GHZ):      7.0774823      5.7544482      3.1738798
 Leave Link  202 at Fri Jul  9 19:19:36 2021, MaxMem=  4194304000 cpu:         1.0
 (Enter /home/minenky/programs//g09/l301.exe)
 Standard basis: def2TZVP (5D, 7F)
 ======================================================================================================
                                       Pseudopotential Parameters
 ======================================================================================================
  Center     Atomic      Valence      Angular      Power
  Number     Number     Electrons     Momentum     of R      Exponent        Coefficient   SO-Coeffient
 ======================================================================================================
    1          6
                                   No pseudopotential on this center.
    2          6
                                   No pseudopotential on this center.
    3          6
                                   No pseudopotential on this center.
    4          6
                                   No pseudopotential on this center.
    5          6
                                   No pseudopotential on this center.
    6          6
                                   No pseudopotential on this center.
    7          1
                                   No pseudopotential on this center.
    8          1
                                   No pseudopotential on this center.
    9          1
                                   No pseudopotential on this center.
   10          1
                                   No pseudopotential on this center.
 ======================================================================================================
 Ernie: Thresh=  0.10000D-02 Tol=  0.10000D-05 Strict=F.
 AO basis set (Overlap normalization):
 Atom C1       Shell     1 S   6     bf    1 -     1          0.000000000000          1.172973797670         -2.327054113463
      0.1357534968D+05  0.6064550360D-03
      0.2035233368D+04  0.4697908888D-02
      0.4632256236D+03  0.2433247765D-01
      0.1312001960D+03  0.9739996831D-01
      0.4285301589D+02  0.3019558425D+00
      0.1558418577D+02  0.6623360914D+00
 Atom C1       Shell     2 S   2     bf    2 -     2          0.000000000000          1.172973797670         -2.327054113463
      0.6206713851D+01  0.6559530854D+00
      0.2576489653D+01  0.3758563329D+00
 Atom C1       Shell     3 S   1     bf    3 -     3          0.000000000000          1.172973797670         -2.327054113463
      0.5769633942D+00  0.1000000000D+01
 Atom C1       Shell     4 S   1     bf    4 -     4          0.000000000000          1.172973797670         -2.327054113463
      0.2297283136D+00  0.1000000000D+01
 Atom C1       Shell     5 S   1     bf    5 -     5          0.000000000000          1.172973797670         -2.327054113463
      0.9516444003D-01  0.1000000000D+01
 Atom C1       Shell     6 P   4     bf    6 -     8          0.000000000000          1.172973797670         -2.327054113463
      0.3469723224D+02  0.1132722000D-01
      0.7958262283D+01  0.7616965920D-01
      0.2378082688D+01  0.3019225220D+00
      0.8143320818D+00  0.7278502735D+00
 Atom C1       Shell     7 P   1     bf    9 -    11          0.000000000000          1.172973797670         -2.327054113463
      0.2888754725D+00  0.1000000000D+01
 Atom C1       Shell     8 P   1     bf   12 -    14          0.000000000000          1.172973797670         -2.327054113463
      0.1005682367D+00  0.1000000000D+01
 Atom C1       Shell     9 D   1     bf   15 -    19          0.000000000000          1.172973797670         -2.327054113463
      0.1097000000D+01  0.1000000000D+01
 Atom C1       Shell    10 D   1     bf   20 -    24          0.000000000000          1.172973797670         -2.327054113463
      0.3180000000D+00  0.1000000000D+01
 Atom C1       Shell    11 F   1     bf   25 -    31          0.000000000000          1.172973797670         -2.327054113463
      0.7610000000D+00  0.1000000000D+01
 Atom C2       Shell    12 S   6     bf   32 -    32          0.000000000000         -1.172973797670         -2.327054113463
      0.1357534968D+05  0.6064550360D-03
      0.2035233368D+04  0.4697908888D-02
      0.4632256236D+03  0.2433247765D-01
      0.1312001960D+03  0.9739996831D-01
      0.4285301589D+02  0.3019558425D+00
      0.1558418577D+02  0.6623360914D+00
 Atom C2       Shell    13 S   2     bf   33 -    33          0.000000000000         -1.172973797670         -2.327054113463
      0.6206713851D+01  0.6559530854D+00
      0.2576489653D+01  0.3758563329D+00
 Atom C2       Shell    14 S   1     bf   34 -    34          0.000000000000         -1.172973797670         -2.327054113463
      0.5769633942D+00  0.1000000000D+01
 Atom C2       Shell    15 S   1     bf   35 -    35          0.000000000000         -1.172973797670         -2.327054113463
      0.2297283136D+00  0.1000000000D+01
 Atom C2       Shell    16 S   1     bf   36 -    36          0.000000000000         -1.172973797670         -2.327054113463
      0.9516444003D-01  0.1000000000D+01
 Atom C2       Shell    17 P   4     bf   37 -    39          0.000000000000         -1.172973797670         -2.327054113463
      0.3469723224D+02  0.1132722000D-01
      0.7958262283D+01  0.7616965920D-01
      0.2378082688D+01  0.3019225220D+00
      0.8143320818D+00  0.7278502735D+00
 Atom C2       Shell    18 P   1     bf   40 -    42          0.000000000000         -1.172973797670         -2.327054113463
      0.2888754725D+00  0.1000000000D+01
 Atom C2       Shell    19 P   1     bf   43 -    45          0.000000000000         -1.172973797670         -2.327054113463
      0.1005682367D+00  0.1000000000D+01
 Atom C2       Shell    20 D   1     bf   46 -    50          0.000000000000         -1.172973797670         -2.327054113463
      0.1097000000D+01  0.1000000000D+01
 Atom C2       Shell    21 D   1     bf   51 -    55          0.000000000000         -1.172973797670         -2.327054113463
      0.3180000000D+00  0.1000000000D+01
 Atom C2       Shell    22 F   1     bf   56 -    62          0.000000000000         -1.172973797670         -2.327054113463
      0.7610000000D+00  0.1000000000D+01
 Atom C3       Shell    23 S   6     bf   63 -    63          0.000000000000          2.749848210351         -0.252320012715
      0.1357534968D+05  0.6064550360D-03
      0.2035233368D+04  0.4697908888D-02
      0.4632256236D+03  0.2433247765D-01
      0.1312001960D+03  0.9739996831D-01
      0.4285301589D+02  0.3019558425D+00
      0.1558418577D+02  0.6623360914D+00
 Atom C3       Shell    24 S   2     bf   64 -    64          0.000000000000          2.749848210351         -0.252320012715
      0.6206713851D+01  0.6559530854D+00
      0.2576489653D+01  0.3758563329D+00
 Atom C3       Shell    25 S   1     bf   65 -    65          0.000000000000          2.749848210351         -0.252320012715
      0.5769633942D+00  0.1000000000D+01
 Atom C3       Shell    26 S   1     bf   66 -    66          0.000000000000          2.749848210351         -0.252320012715
      0.2297283136D+00  0.1000000000D+01
 Atom C3       Shell    27 S   1     bf   67 -    67          0.000000000000          2.749848210351         -0.252320012715
      0.9516444003D-01  0.1000000000D+01
 Atom C3       Shell    28 P   4     bf   68 -    70          0.000000000000          2.749848210351         -0.252320012715
      0.3469723224D+02  0.1132722000D-01
      0.7958262283D+01  0.7616965920D-01
      0.2378082688D+01  0.3019225220D+00
      0.8143320818D+00  0.7278502735D+00
 Atom C3       Shell    29 P   1     bf   71 -    73          0.000000000000          2.749848210351         -0.252320012715
      0.2888754725D+00  0.1000000000D+01
 Atom C3       Shell    30 P   1     bf   74 -    76          0.000000000000          2.749848210351         -0.252320012715
      0.1005682367D+00  0.1000000000D+01
 Atom C3       Shell    31 D   1     bf   77 -    81          0.000000000000          2.749848210351         -0.252320012715
      0.1097000000D+01  0.1000000000D+01
 Atom C3       Shell    32 D   1     bf   82 -    86          0.000000000000          2.749848210351         -0.252320012715
      0.3180000000D+00  0.1000000000D+01
 Atom C3       Shell    33 F   1     bf   87 -    93          0.000000000000          2.749848210351         -0.252320012715
      0.7610000000D+00  0.1000000000D+01
 Atom C4       Shell    34 S   6     bf   94 -    94          0.000000000000         -2.749848210351         -0.252320012715
      0.1357534968D+05  0.6064550360D-03
      0.2035233368D+04  0.4697908888D-02
      0.4632256236D+03  0.2433247765D-01
      0.1312001960D+03  0.9739996831D-01
      0.4285301589D+02  0.3019558425D+00
      0.1558418577D+02  0.6623360914D+00
 Atom C4       Shell    35 S   2     bf   95 -    95          0.000000000000         -2.749848210351         -0.252320012715
      0.6206713851D+01  0.6559530854D+00
      0.2576489653D+01  0.3758563329D+00
 Atom C4       Shell    36 S   1     bf   96 -    96          0.000000000000         -2.749848210351         -0.252320012715
      0.5769633942D+00  0.1000000000D+01
 Atom C4       Shell    37 S   1     bf   97 -    97          0.000000000000         -2.749848210351         -0.252320012715
      0.2297283136D+00  0.1000000000D+01
 Atom C4       Shell    38 S   1     bf   98 -    98          0.000000000000         -2.749848210351         -0.252320012715
      0.9516444003D-01  0.1000000000D+01
 Atom C4       Shell    39 P   4     bf   99 -   101          0.000000000000         -2.749848210351         -0.252320012715
      0.3469723224D+02  0.1132722000D-01
      0.7958262283D+01  0.7616965920D-01
      0.2378082688D+01  0.3019225220D+00
      0.8143320818D+00  0.7278502735D+00
 Atom C4       Shell    40 P   1     bf  102 -   104          0.000000000000         -2.749848210351         -0.252320012715
      0.2888754725D+00  0.1000000000D+01
 Atom C4       Shell    41 P   1     bf  105 -   107          0.000000000000         -2.749848210351         -0.252320012715
      0.1005682367D+00  0.1000000000D+01
 Atom C4       Shell    42 D   1     bf  108 -   112          0.000000000000         -2.749848210351         -0.252320012715
      0.1097000000D+01  0.1000000000D+01
 Atom C4       Shell    43 D   1     bf  113 -   117          0.000000000000         -2.749848210351         -0.252320012715
      0.3180000000D+00  0.1000000000D+01
 Atom C4       Shell    44 F   1     bf  118 -   124          0.000000000000         -2.749848210351         -0.252320012715
      0.7610000000D+00  0.1000000000D+01
 Atom C5       Shell    45 S   6     bf  125 -   125          0.000000000000          1.323641662245          1.991355604312
      0.1357534968D+05  0.6064550360D-03
      0.2035233368D+04  0.4697908888D-02
      0.4632256236D+03  0.2433247765D-01
      0.1312001960D+03  0.9739996831D-01
      0.4285301589D+02  0.3019558425D+00
      0.1558418577D+02  0.6623360914D+00
 Atom C5       Shell    46 S   2     bf  126 -   126          0.000000000000          1.323641662245          1.991355604312
      0.6206713851D+01  0.6559530854D+00
      0.2576489653D+01  0.3758563329D+00
 Atom C5       Shell    47 S   1     bf  127 -   127          0.000000000000          1.323641662245          1.991355604312
      0.5769633942D+00  0.1000000000D+01
 Atom C5       Shell    48 S   1     bf  128 -   128          0.000000000000          1.323641662245          1.991355604312
      0.2297283136D+00  0.1000000000D+01
 Atom C5       Shell    49 S   1     bf  129 -   129          0.000000000000          1.323641662245          1.991355604312
      0.9516444003D-01  0.1000000000D+01
 Atom C5       Shell    50 P   4     bf  130 -   132          0.000000000000          1.323641662245          1.991355604312
      0.3469723224D+02  0.1132722000D-01
      0.7958262283D+01  0.7616965920D-01
      0.2378082688D+01  0.3019225220D+00
      0.8143320818D+00  0.7278502735D+00
 Atom C5       Shell    51 P   1     bf  133 -   135          0.000000000000          1.323641662245          1.991355604312
      0.2888754725D+00  0.1000000000D+01
 Atom C5       Shell    52 P   1     bf  136 -   138          0.000000000000          1.323641662245          1.991355604312
      0.1005682367D+00  0.1000000000D+01
 Atom C5       Shell    53 D   1     bf  139 -   143          0.000000000000          1.323641662245          1.991355604312
      0.1097000000D+01  0.1000000000D+01
 Atom C5       Shell    54 D   1     bf  144 -   148          0.000000000000          1.323641662245          1.991355604312
      0.3180000000D+00  0.1000000000D+01
 Atom C5       Shell    55 F   1     bf  149 -   155          0.000000000000          1.323641662245          1.991355604312
      0.7610000000D+00  0.1000000000D+01
 Atom C6       Shell    56 S   6     bf  156 -   156          0.000000000000         -1.323641662245          1.991355604312
      0.1357534968D+05  0.6064550360D-03
      0.2035233368D+04  0.4697908888D-02
      0.4632256236D+03  0.2433247765D-01
      0.1312001960D+03  0.9739996831D-01
      0.4285301589D+02  0.3019558425D+00
      0.1558418577D+02  0.6623360914D+00
 Atom C6       Shell    57 S   2     bf  157 -   157          0.000000000000         -1.323641662245          1.991355604312
      0.6206713851D+01  0.6559530854D+00
      0.2576489653D+01  0.3758563329D+00
 Atom C6       Shell    58 S   1     bf  158 -   158          0.000000000000         -1.323641662245          1.991355604312
      0.5769633942D+00  0.1000000000D+01
 Atom C6       Shell    59 S   1     bf  159 -   159          0.000000000000         -1.323641662245          1.991355604312
      0.2297283136D+00  0.1000000000D+01
 Atom C6       Shell    60 S   1     bf  160 -   160          0.000000000000         -1.323641662245          1.991355604312
      0.9516444003D-01  0.1000000000D+01
 Atom C6       Shell    61 P   4     bf  161 -   163          0.000000000000         -1.323641662245          1.991355604312
      0.3469723224D+02  0.1132722000D-01
      0.7958262283D+01  0.7616965920D-01
      0.2378082688D+01  0.3019225220D+00
      0.8143320818D+00  0.7278502735D+00
 Atom C6       Shell    62 P   1     bf  164 -   166          0.000000000000         -1.323641662245          1.991355604312
      0.2888754725D+00  0.1000000000D+01
 Atom C6       Shell    63 P   1     bf  167 -   169          0.000000000000         -1.323641662245          1.991355604312
      0.1005682367D+00  0.1000000000D+01
 Atom C6       Shell    64 D   1     bf  170 -   174          0.000000000000         -1.323641662245          1.991355604312
      0.1097000000D+01  0.1000000000D+01
 Atom C6       Shell    65 D   1     bf  175 -   179          0.000000000000         -1.323641662245          1.991355604312
      0.3180000000D+00  0.1000000000D+01
 Atom C6       Shell    66 F   1     bf  180 -   186          0.000000000000         -1.323641662245          1.991355604312
      0.7610000000D+00  0.1000000000D+01
 Atom H7       Shell    67 S   3     bf  187 -   187          0.000000000000          4.791461081168         -0.254946732040
      0.3406134100D+02  0.2543930721D-01
      0.5123574600D+01  0.1900859489D+00
      0.1164662600D+01  0.8524411301D+00
 Atom H7       Shell    68 S   1     bf  188 -   188          0.000000000000          4.791461081168         -0.254946732040
      0.3272304100D+00  0.1000000000D+01
 Atom H7       Shell    69 S   1     bf  189 -   189          0.000000000000          4.791461081168         -0.254946732040
      0.1030724100D+00  0.1000000000D+01
 Atom H7       Shell    70 P   1     bf  190 -   192          0.000000000000          4.791461081168         -0.254946732040
      0.8000000000D+00  0.1000000000D+01
 Atom H8       Shell    71 S   3     bf  193 -   193          0.000000000000         -4.791461081168         -0.254946732040
      0.3406134100D+02  0.2543930721D-01
      0.5123574600D+01  0.1900859489D+00
      0.1164662600D+01  0.8524411301D+00
 Atom H8       Shell    72 S   1     bf  194 -   194          0.000000000000         -4.791461081168         -0.254946732040
      0.3272304100D+00  0.1000000000D+01
 Atom H8       Shell    73 S   1     bf  195 -   195          0.000000000000         -4.791461081168         -0.254946732040
      0.1030724100D+00  0.1000000000D+01
 Atom H8       Shell    74 P   1     bf  196 -   198          0.000000000000         -4.791461081168         -0.254946732040
      0.8000000000D+00  0.1000000000D+01
 Atom H9       Shell    75 S   3     bf  199 -   199          0.000000000000          2.314803018943          3.783057863233
      0.3406134100D+02  0.2543930721D-01
      0.5123574600D+01  0.1900859489D+00
      0.1164662600D+01  0.8524411301D+00
 Atom H9       Shell    76 S   1     bf  200 -   200          0.000000000000          2.314803018943          3.783057863233
      0.3272304100D+00  0.1000000000D+01
 Atom H9       Shell    77 S   1     bf  201 -   201          0.000000000000          2.314803018943          3.783057863233
      0.1030724100D+00  0.1000000000D+01
 Atom H9       Shell    78 P   1     bf  202 -   204          0.000000000000          2.314803018943          3.783057863233
      0.8000000000D+00  0.1000000000D+01
 Atom H10      Shell    79 S   3     bf  205 -   205          0.000000000000         -2.314803018943          3.783057863233
      0.3406134100D+02  0.2543930721D-01
      0.5123574600D+01  0.1900859489D+00
      0.1164662600D+01  0.8524411301D+00
 Atom H10      Shell    80 S   1     bf  206 -   206          0.000000000000         -2.314803018943          3.783057863233
      0.3272304100D+00  0.1000000000D+01
 Atom H10      Shell    81 S   1     bf  207 -   207          0.000000000000         -2.314803018943          3.783057863233
      0.1030724100D+00  0.1000000000D+01
 Atom H10      Shell    82 P   1     bf  208 -   210          0.000000000000         -2.314803018943          3.783057863233
      0.8000000000D+00  0.1000000000D+01
 There are    85 symmetry adapted cartesian basis functions of A1  symmetry.
 There are    35 symmetry adapted cartesian basis functions of A2  symmetry.
 There are    35 symmetry adapted cartesian basis functions of B1  symmetry.
 There are    85 symmetry adapted cartesian basis functions of B2  symmetry.
 There are    73 symmetry adapted basis functions of A1  symmetry.
 There are    32 symmetry adapted basis functions of A2  symmetry.
 There are    32 symmetry adapted basis functions of B1  symmetry.
 There are    73 symmetry adapted basis functions of B2  symmetry.
   210 basis functions,   338 primitive gaussians,   240 cartesian basis functions
    20 alpha electrons       20 beta electrons
       nuclear repulsion energy       188.2508366381 Hartrees.
 IExCor= 4639 DFT=T Ex+Corr=wB97XD ExCW=0 ScaHFX=  1.000000
 ScaDFX=  1.000000  1.000000  1.000000  1.000000 ScalE2=  1.000000  1.000000
 IRadAn=      5 IRanWt=     -1 IRanGd=            0 ICorTp=0 IEmpDi=121
  HFx wShort=  0.000000 wLong=  0.200000 cFull=  0.222036 cShort=  0.000000 cLong=  0.777964
  DFx wShort=  0.000000 wLong=  0.200000 cFull=  0.000000 cShort=  0.000000 cLong=  1.000000
 NAtoms=   10 NActive=   10 NUniq=    5 SFac= 4.00D+00 NAtFMM=   60 NAOKFM=F Big=F
 Integral buffers will be    131072 words long.
 Raffenetti 2 integral format.
 Two-electron integral symmetry is turned on.
 R6Disp:  Grimme-D2 Dispersion energy=       -0.0028524404 Hartrees.
 Nuclear repulsion after empirical dispersion term =      188.2479841978 Hartrees.
 Leave Link  301 at Fri Jul  9 19:19:37 2021, MaxMem=  4194304000 cpu:         0.1
 (Enter /home/minenky/programs//g09/l302.exe)
 NPDir=0 NMtPBC=     1 NCelOv=     1 NCel=       1 NClECP=     1 NCelD=      1
         NCelK=      1 NCelE2=     1 NClLst=     1 CellRange=     0.0.
 One-electron integrals computed using PRISM.
 One-electron integral symmetry used in STVInt
   4 Symmetry operations used in ECPInt.
 ECPInt:  NShTT=    3403 NPrTT=   10584 LenC2=    3391 LenP2D=    8933.
 LDataN:  DoStor=T MaxTD1= 6 Len=  172
 NBasis=   210 RedAO= T EigKep=  1.80D-05  NBF=    73    32    32    73
 NBsUse=   210 1.00D-06 EigRej= -1.00D+00 NBFU=    73    32    32    73
 Precomputing XC quadrature grid using
 IXCGrd= 4 IRadAn=           5 IRanWt=          -1 IRanGd=           0 AccXCQ= 0.00D+00.
 Generated NRdTot=       0 NPtTot=           0 NUsed=           0 NTot=          32
 NSgBfM=   239   239   239   239   239 MxSgAt=    10 MxSgA2=    10.
 Leave Link  302 at Fri Jul  9 19:19:51 2021, MaxMem=  4194304000 cpu:       140.9
 (Enter /home/minenky/programs//g09/l303.exe)
 DipDrv:  MaxL=1.
 Leave Link  303 at Fri Jul  9 19:19:52 2021, MaxMem=  4194304000 cpu:         3.3
 (Enter /home/minenky/programs//g09/l401.exe)
 ExpMin= 9.52D-02 ExpMax= 1.36D+04 ExpMxC= 4.63D+02 IAcc=3 IRadAn=         5 AccDes= 0.00D+00
 Harris functional with IExCor= 4639 and IRadAn=       5 diagonalized for initial guess.
 HarFok:  IExCor= 4639 AccDes= 0.00D+00 IRadAn=         5 IDoV= 1 UseB2=F ITyADJ=14
 ICtDFT=  3500011 ScaDFX=  1.000000  1.000000  1.000000  1.000000
 FoFCou: FMM=F IPFlag=           0 FMFlag=      100000 FMFlg1=           0
         NFxFlg=           0 DoJE=T BraDBF=F KetDBF=T FulRan=T
         wScrn=  0.000000 ICntrl=     500 IOpCl=  0 I1Cent=   200000004 NGrid=           0
         NMat0=    1 NMatS0=      1 NMatT0=    0 NMatD0=    1 NMtDS0=    0 NMtDT0=    0
 Petite list used in FoFCou.
 Harris En= -220.450746049512    
 JPrj=0 DoOrth=F DoCkMO=F.
 Initial guess orbital symmetries:
       Occupied  (A1) (B2) (B2) (A1) (A1) (B2) (A1) (B2) (A1) (A1)
                 (B2) (A1) (A1) (B2) (B1) (B2) (A1) (B1) (A2) (A1)
       Virtual   (B2) (B1) (A2) (A1) (B2) (A1) (B2) (A2) (A1) (B2)
                 (A1) (B1) (A1) (A1) (B2) (A2) (B1) (A1) (B2) (A1)
                 (B2) (B1) (A1) (A2) (B2) (B2) (A1) (A2) (B2) (A1)
                 (B1) (A1) (B2) (A1) (A1) (B2) (B2) (B2) (B1) (B2)
                 (B2) (A2) (A1) (A1) (B2) (B1) (B2) (A1) (B1) (A2)
                 (A1) (A1) (B2) (A1) (B2) (B1) (A2) (B2) (A1) (B2)
                 (A1) (A2) (B1) (A1) (B2) (A2) (A1) (B2) (B1) (B2)
                 (A1) (B1) (A2) (A1) (B2) (B2) (A1) (B2) (A2) (B1)
                 (B2) (A2) (A1) (B1) (A1) (B2) (A2) (A1) (A2) (B1)
                 (B2) (A1) (A1) (B2) (A1) (B2) (B2) (A1) (B1) (A2)
                 (A1) (B1) (A1) (B2) (A1) (B2) (B1) (A1) (A2) (A1)
                 (B2) (B1) (B2) (A2) (A1) (B2) (A1) (B1) (B1) (B2)
                 (A2) (A1) (B2) (B1) (B2) (A1) (B1) (A2) (A1) (A2)
                 (B2) (B1) (A1) (B2) (A1) (B1) (B2) (A1) (A2) (A1)
                 (B1) (B2) (A2) (B2) (A2) (A1) (B1) (A2) (B2) (B2)
                 (A1) (B2) (A2) (B2) (A1) (B1) (B2) (A1) (A2) (A1)
                 (B2) (A1) (B1) (B1) (B2) (A2) (A1) (B2) (A2) (A1)
                 (B2) (B2) (A1) (A2) (A2) (A1) (B2) (A1) (B2) (B2)
                 (A1) (B2) (B2) (B2) (A1) (A1) (A1) (B2) (B2) (B2)
 The electronic state of the initial guess is 1-A1.
 Leave Link  401 at Fri Jul  9 19:20:02 2021, MaxMem=  4194304000 cpu:        70.7
 (Enter /home/minenky/programs//g09/l502.exe)
 Closed shell SCF:
 Using DIIS extrapolation, IDIIS=  1040.
 Integral symmetry usage will be decided dynamically.
 Keep R1 ints in memory in symmetry-blocked form, NReq=616985072.
 IVT=      326686 IEndB=      326686 NGot=  4194304000 MDV=  4131057167
 LenX=  4131057167 LenY=  4130999126
 Requested convergence on RMS density matrix=1.00D-08 within 380 cycles.
 Requested convergence on MAX density matrix=1.00D-06.
 Requested convergence on             energy=1.00D-06.
 No special actions if energy rises.
 FoFCou: FMM=F IPFlag=           0 FMFlag=           0 FMFlg1=           0
         NFxFlg=           0 DoJE=F BraDBF=F KetDBF=F FulRan=T
         wScrn=  0.000000 ICntrl=     600 IOpCl=  0 I1Cent=           0 NGrid=           0
         NMat0=    1 NMatS0=  22155 NMatT0=    0 NMatD0=    1 NMtDS0=    0 NMtDT0=    0
 Petite list used in FoFCou.
 Integral accuracy reduced to 1.0D-05 until final iterations.

 Cycle   1  Pass 0  IDiag  1:
 E= -230.841296044048    
 DIIS: error= 5.17D-02 at cycle   1 NSaved=   1.
 NSaved= 1 IEnMin= 1 EnMin= -230.841296044048     IErMin= 1 ErrMin= 5.17D-02
 ErrMax= 5.17D-02  0.00D+00 EMaxC= 1.00D-01 BMatC= 5.01D-01 BMatP= 5.01D-01
 IDIUse=3 WtCom= 4.83D-01 WtEn= 5.17D-01
 Coeff-Com:  0.100D+01
 Coeff-En:   0.100D+01
 Coeff:      0.100D+01
 Gap=     0.319 Goal=   None    Shift=    0.000
 GapD=    0.319 DampG=1.000 DampE=0.500 DampFc=0.5000 IDamp=-1.
 Damping current iteration by 5.00D-01
 RMSDP=1.26D-03 MaxDP=2.46D-02              OVMax= 4.84D-02

 Cycle   2  Pass 0  IDiag  1:
 E= -230.872450726931     Delta-E=       -0.031154682883 Rises=F Damp=T
 DIIS: error= 2.43D-02 at cycle   2 NSaved=   2.
 NSaved= 2 IEnMin= 2 EnMin= -230.872450726931     IErMin= 2 ErrMin= 2.43D-02
 ErrMax= 2.43D-02  0.00D+00 EMaxC= 1.00D-01 BMatC= 1.11D-01 BMatP= 5.01D-01
 IDIUse=3 WtCom= 7.57D-01 WtEn= 2.43D-01
 Coeff-Com: -0.858D+00 0.186D+01
 Coeff-En:   0.000D+00 0.100D+01
 Coeff:     -0.650D+00 0.165D+01
 Gap=     0.345 Goal=   None    Shift=    0.000
 RMSDP=6.82D-04 MaxDP=1.42D-02 DE=-3.12D-02 OVMax= 2.39D-02

 Cycle   3  Pass 0  IDiag  1:
 E= -230.900685635037     Delta-E=       -0.028234908106 Rises=F Damp=F
 DIIS: error= 4.27D-03 at cycle   3 NSaved=   3.
 NSaved= 3 IEnMin= 3 EnMin= -230.900685635037     IErMin= 3 ErrMin= 4.27D-03
 ErrMax= 4.27D-03  0.00D+00 EMaxC= 1.00D-01 BMatC= 1.76D-03 BMatP= 1.11D-01
 IDIUse=3 WtCom= 9.57D-01 WtEn= 4.27D-02
 Coeff-Com: -0.308D+00 0.665D+00 0.643D+00
 Coeff-En:   0.000D+00 0.000D+00 0.100D+01
 Coeff:     -0.295D+00 0.637D+00 0.658D+00
 Gap=     0.338 Goal=   None    Shift=    0.000
 RMSDP=1.28D-04 MaxDP=3.54D-03 DE=-2.82D-02 OVMax= 1.03D-02

 Cycle   4  Pass 0  IDiag  1:
 E= -230.902268063268     Delta-E=       -0.001582428231 Rises=F Damp=F
 DIIS: error= 1.11D-03 at cycle   4 NSaved=   4.
 NSaved= 4 IEnMin= 4 EnMin= -230.902268063268     IErMin= 4 ErrMin= 1.11D-03
 ErrMax= 1.11D-03  0.00D+00 EMaxC= 1.00D-01 BMatC= 6.42D-05 BMatP= 1.76D-03
 IDIUse=3 WtCom= 9.89D-01 WtEn= 1.11D-02
 Coeff-Com: -0.737D-01 0.159D+00 0.223D+00 0.692D+00
 Coeff-En:   0.000D+00 0.000D+00 0.000D+00 0.100D+01
 Coeff:     -0.729D-01 0.157D+00 0.220D+00 0.695D+00
 Gap=     0.340 Goal=   None    Shift=    0.000
 RMSDP=3.68D-05 MaxDP=8.05D-04 DE=-1.58D-03 OVMax= 4.25D-03

 Cycle   5  Pass 0  IDiag  1:
 E= -230.902329060369     Delta-E=       -0.000060997101 Rises=F Damp=F
 DIIS: error= 4.04D-04 at cycle   5 NSaved=   5.
 NSaved= 5 IEnMin= 5 EnMin= -230.902329060369     IErMin= 5 ErrMin= 4.04D-04
 ErrMax= 4.04D-04  0.00D+00 EMaxC= 1.00D-01 BMatC= 1.07D-05 BMatP= 6.42D-05
 IDIUse=3 WtCom= 9.96D-01 WtEn= 4.04D-03
 Coeff-Com:  0.245D-01-0.529D-01-0.217D-01 0.294D+00 0.756D+00
 Coeff-En:   0.000D+00 0.000D+00 0.000D+00 0.122D-01 0.988D+00
 Coeff:      0.244D-01-0.527D-01-0.216D-01 0.293D+00 0.757D+00
 Gap=     0.340 Goal=   None    Shift=    0.000
 RMSDP=1.78D-05 MaxDP=2.70D-04 DE=-6.10D-05 OVMax= 1.12D-03

 Cycle   6  Pass 0  IDiag  1:
 E= -230.902341986396     Delta-E=       -0.000012926027 Rises=F Damp=F
 DIIS: error= 5.46D-05 at cycle   6 NSaved=   6.
 NSaved= 6 IEnMin= 6 EnMin= -230.902341986396     IErMin= 6 ErrMin= 5.46D-05
 ErrMax= 5.46D-05  0.00D+00 EMaxC= 1.00D-01 BMatC= 1.47D-07 BMatP= 1.07D-05
 IDIUse=1 WtCom= 1.00D+00 WtEn= 0.00D+00
 Coeff-Com:  0.723D-02-0.155D-01-0.147D-01-0.109D-01 0.644D-01 0.969D+00
 Coeff:      0.723D-02-0.155D-01-0.147D-01-0.109D-01 0.644D-01 0.969D+00
 Gap=     0.340 Goal=   None    Shift=    0.000
 RMSDP=4.07D-06 MaxDP=6.34D-05 DE=-1.29D-05 OVMax= 2.90D-04

 Initial convergence to 1.0D-05 achieved.  Increase integral accuracy.
 Cycle   7  Pass 1  IDiag  1:
 E= -230.902397947567     Delta-E=       -0.000055961170 Rises=F Damp=F
 DIIS: error= 3.64D-05 at cycle   1 NSaved=   1.
 NSaved= 1 IEnMin= 1 EnMin= -230.902397947567     IErMin= 1 ErrMin= 3.64D-05
 ErrMax= 3.64D-05  0.00D+00 EMaxC= 1.00D-01 BMatC= 3.66D-07 BMatP= 3.66D-07
 IDIUse=1 WtCom= 1.00D+00 WtEn= 0.00D+00
 Coeff-Com:  0.100D+01
 Coeff:      0.100D+01
 Gap=     0.340 Goal=   None    Shift=    0.000
 RMSDP=4.07D-06 MaxDP=6.34D-05 DE=-5.60D-05 OVMax= 1.09D-04

 Cycle   8  Pass 1  IDiag  1:
 E= -230.902398183667     Delta-E=       -0.000000236100 Rises=F Damp=F
 DIIS: error= 2.10D-05 at cycle   2 NSaved=   2.
 NSaved= 2 IEnMin= 2 EnMin= -230.902398183667     IErMin= 2 ErrMin= 2.10D-05
 ErrMax= 2.10D-05  0.00D+00 EMaxC= 1.00D-01 BMatC= 2.57D-08 BMatP= 3.66D-07
 IDIUse=1 WtCom= 1.00D+00 WtEn= 0.00D+00
 Coeff-Com:  0.632D-01 0.937D+00
 Coeff:      0.632D-01 0.937D+00
 Gap=     0.340 Goal=   None    Shift=    0.000
 RMSDP=9.08D-07 MaxDP=2.39D-05 DE=-2.36D-07 OVMax= 9.44D-05

 Cycle   9  Pass 1  IDiag  1:
 E= -230.902398196055     Delta-E=       -0.000000012388 Rises=F Damp=F
 DIIS: error= 1.17D-05 at cycle   3 NSaved=   3.
 NSaved= 3 IEnMin= 3 EnMin= -230.902398196055     IErMin= 3 ErrMin= 1.17D-05
 ErrMax= 1.17D-05  0.00D+00 EMaxC= 1.00D-01 BMatC= 1.89D-08 BMatP= 2.57D-08
 IDIUse=1 WtCom= 1.00D+00 WtEn= 0.00D+00
 Coeff-Com: -0.394D-01 0.465D+00 0.574D+00
 Coeff:     -0.394D-01 0.465D+00 0.574D+00
 Gap=     0.340 Goal=   None    Shift=    0.000
 RMSDP=3.96D-07 MaxDP=9.88D-06 DE=-1.24D-08 OVMax= 3.77D-05

 Cycle  10  Pass 1  IDiag  1:
 E= -230.902398214376     Delta-E=       -0.000000018321 Rises=F Damp=F
 DIIS: error= 3.27D-06 at cycle   4 NSaved=   4.
 NSaved= 4 IEnMin= 4 EnMin= -230.902398214376     IErMin= 4 ErrMin= 3.27D-06
 ErrMax= 3.27D-06  0.00D+00 EMaxC= 1.00D-01 BMatC= 1.56D-10 BMatP= 1.89D-08
 IDIUse=1 WtCom= 1.00D+00 WtEn= 0.00D+00
 Coeff-Com: -0.294D-02-0.136D-01-0.334D-02 0.102D+01
 Coeff:     -0.294D-02-0.136D-01-0.334D-02 0.102D+01
 Gap=     0.340 Goal=   None    Shift=    0.000
 RMSDP=1.18D-07 MaxDP=2.10D-06 DE=-1.83D-08 OVMax= 2.08D-05

 Cycle  11  Pass 1  IDiag  1:
 E= -230.902398214896     Delta-E=       -0.000000000520 Rises=F Damp=F
 DIIS: error= 1.79D-06 at cycle   5 NSaved=   5.
 NSaved= 5 IEnMin= 5 EnMin= -230.902398214896     IErMin= 5 ErrMin= 1.79D-06
 ErrMax= 1.79D-06  0.00D+00 EMaxC= 1.00D-01 BMatC= 1.07D-10 BMatP= 1.56D-10
 IDIUse=1 WtCom= 1.00D+00 WtEn= 0.00D+00
 Coeff-Com:  0.573D-02-0.883D-01-0.110D+00 0.507D+00 0.685D+00
 Coeff:      0.573D-02-0.883D-01-0.110D+00 0.507D+00 0.685D+00
 Gap=     0.340 Goal=   None    Shift=    0.000
 RMSDP=5.72D-08 MaxDP=8.90D-07 DE=-5.20D-10 OVMax= 7.80D-06

 Cycle  12  Pass 1  IDiag  1:
 E= -230.902398215097     Delta-E=       -0.000000000201 Rises=F Damp=F
 DIIS: error= 5.97D-07 at cycle   6 NSaved=   6.
 NSaved= 6 IEnMin= 6 EnMin= -230.902398215097     IErMin= 6 ErrMin= 5.97D-07
 ErrMax= 5.97D-07  0.00D+00 EMaxC= 1.00D-01 BMatC= 6.03D-12 BMatP= 1.07D-10
 IDIUse=1 WtCom= 1.00D+00 WtEn= 0.00D+00
 Coeff-Com:  0.138D-02-0.999D-02-0.190D-01-0.926D-01 0.632D-01 0.106D+01
 Coeff:      0.138D-02-0.999D-02-0.190D-01-0.926D-01 0.632D-01 0.106D+01
 Gap=     0.340 Goal=   None    Shift=    0.000
 RMSDP=2.88D-08 MaxDP=5.36D-07 DE=-2.01D-10 OVMax= 5.27D-06

 Cycle  13  Pass 1  IDiag  1:
 E= -230.902398215125     Delta-E=       -0.000000000028 Rises=F Damp=F
 DIIS: error= 2.05D-07 at cycle   7 NSaved=   7.
 NSaved= 7 IEnMin= 7 EnMin= -230.902398215125     IErMin= 7 ErrMin= 2.05D-07
 ErrMax= 2.05D-07  0.00D+00 EMaxC= 1.00D-01 BMatC= 5.45D-13 BMatP= 6.03D-12
 IDIUse=1 WtCom= 1.00D+00 WtEn= 0.00D+00
 Coeff-Com: -0.647D-03 0.974D-02 0.121D-01-0.478D-01-0.945D-01-0.236D-01
 Coeff-Com:  0.114D+01
 Coeff:     -0.647D-03 0.974D-02 0.121D-01-0.478D-01-0.945D-01-0.236D-01
 Coeff:      0.114D+01
 Gap=     0.340 Goal=   None    Shift=    0.000
 RMSDP=1.06D-08 MaxDP=2.07D-07 DE=-2.83D-11 OVMax= 1.64D-06

 Cycle  14  Pass 1  IDiag  1:
 E= -230.902398215126     Delta-E=       -0.000000000001 Rises=F Damp=F
 DIIS: error= 3.59D-08 at cycle   8 NSaved=   8.
 NSaved= 8 IEnMin= 8 EnMin= -230.902398215126     IErMin= 8 ErrMin= 3.59D-08
 ErrMax= 3.59D-08  0.00D+00 EMaxC= 1.00D-01 BMatC= 6.21D-14 BMatP= 5.45D-13
 IDIUse=1 WtCom= 1.00D+00 WtEn= 0.00D+00
 Coeff-Com: -0.215D-03 0.227D-02 0.378D-02 0.195D-02-0.204D-01-0.897D-01
 Coeff-Com:  0.159D+00 0.943D+00
 Coeff:     -0.215D-03 0.227D-02 0.378D-02 0.195D-02-0.204D-01-0.897D-01
 Coeff:      0.159D+00 0.943D+00
 Gap=     0.340 Goal=   None    Shift=    0.000
 RMSDP=2.73D-09 MaxDP=4.71D-08 DE=-8.53D-13 OVMax= 3.41D-07

 SCF Done:  E(RwB97XD) =  -230.902398215     A.U. after   14 cycles
            NFock= 14  Conv=0.27D-08     -V/T= 2.0050
 KE= 2.297449518178D+02 PE=-9.118913590430D+02 EE= 2.629960248123D+02
 Leave Link  502 at Fri Jul  9 19:22:07 2021, MaxMem=  4194304000 cpu:      1421.4
 (Enter /home/minenky/programs//g09/l601.exe)
 Copying SCF densities to generalized density rwf, IOpCl= 0 IROHF=0.

 **********************************************************************

            Population analysis using the SCF density.

 **********************************************************************

 Orbital symmetries:
       Occupied  (B2) (A1) (A1) (B2) (A1) (B2) (A1) (B2) (A1) (A1)
                 (B2) (A1) (B2) (A1) (B1) (B2) (A1) (A1) (B1) (A2)
       Virtual   (B2) (B1) (A2) (A1) (B2) (A1) (B2) (A1) (A2) (A1)
                 (B2) (B1) (A1) (B2) (A1) (A2) (B1) (A1) (B2) (A1)
                 (B2) (B1) (A1) (A2) (B2) (B2) (A1) (A2) (B2) (A1)
                 (A1) (B1) (B2) (A1) (B2) (A1) (B2) (B2) (B2) (B1)
                 (B2) (A1) (A2) (A1) (B2) (B1) (B2) (B1) (A1) (A2)
                 (A1) (A1) (B2) (B2) (A1) (B1) (A2) (B2) (A1) (B2)
                 (A1) (A2) (B1) (A1) (B2) (A2) (A1) (B2) (B2) (B1)
                 (A1) (A1) (B2) (A2) (B1) (B2) (A1) (B2) (A2) (B1)
                 (B2) (A2) (A1) (B1) (B2) (A1) (A2) (A1) (A2) (B1)
                 (B2) (A1) (A1) (B2) (A1) (B2) (B2) (A1) (A2) (B1)
                 (A1) (B1) (B2) (A1) (A1) (B2) (B1) (A1) (A2) (B2)
                 (A1) (B1) (B2) (A2) (A1) (B2) (A1) (B1) (B2) (B1)
                 (A2) (A1) (B2) (B1) (B2) (A1) (B1) (A2) (A1) (A2)
                 (B2) (B1) (A1) (B2) (A1) (B1) (B2) (A1) (A2) (A1)
                 (B2) (B1) (A2) (B2) (A2) (A1) (B1) (A2) (B2) (B2)
                 (A1) (B2) (A2) (B2) (A1) (B1) (B2) (A1) (A2) (A1)
                 (B2) (A1) (B1) (B1) (B2) (A2) (A1) (B2) (A2) (A1)
                 (B2) (B2) (A1) (A2) (A2) (A1) (B2) (A1) (B2) (B2)
                 (A1) (B2) (B2) (B2) (A1) (A1) (A1) (B2) (B2) (B2)
 The electronic state is 1-A1.
 Alpha  occ. eigenvalues --  -10.32420 -10.32417 -10.30639 -10.30585 -10.30088
 Alpha  occ. eigenvalues --  -10.29898  -0.98106  -0.86426  -0.84860  -0.71993
 Alpha  occ. eigenvalues --   -0.68005  -0.60669  -0.55838  -0.55115  -0.48268
 Alpha  occ. eigenvalues --   -0.48195  -0.47667  -0.34918  -0.34796  -0.34765
 Alpha virt. eigenvalues --   -0.00764   0.03501   0.07041   0.12953   0.15314
 Alpha virt. eigenvalues --    0.17066   0.18590   0.21840   0.23727   0.25583
 Alpha virt. eigenvalues --    0.25746   0.27744   0.28713   0.30028   0.30174
 Alpha virt. eigenvalues --    0.32189   0.32392   0.34602   0.36275   0.37935
 Alpha virt. eigenvalues --    0.39409   0.40163   0.41364   0.41366   0.45030
 Alpha virt. eigenvalues --    0.46294   0.47803   0.49583   0.49896   0.50329
 Alpha virt. eigenvalues --    0.53545   0.54045   0.55329   0.56721   0.57813
 Alpha virt. eigenvalues --    0.58843   0.59732   0.62668   0.72164   0.72815
 Alpha virt. eigenvalues --    0.77320   0.78907   0.81092   0.84722   0.85296
 Alpha virt. eigenvalues --    0.86602   0.90436   0.93898   0.94407   0.94680
 Alpha virt. eigenvalues --    0.95642   1.06209   1.07374   1.10504   1.10879
 Alpha virt. eigenvalues --    1.13288   1.15165   1.19523   1.22598   1.26455
 Alpha virt. eigenvalues --    1.26799   1.28259   1.31552   1.32780   1.33785
 Alpha virt. eigenvalues --    1.34348   1.39710   1.39808   1.47151   1.47634
 Alpha virt. eigenvalues --    1.48144   1.56737   1.57142   1.57225   1.57599
 Alpha virt. eigenvalues --    1.61561   1.66433   1.67754   1.68817   1.73538
 Alpha virt. eigenvalues --    1.76082   1.77531   1.80481   1.84956   1.86554
 Alpha virt. eigenvalues --    1.89290   1.91370   1.96535   2.02945   2.06996
 Alpha virt. eigenvalues --    2.12250   2.14546   2.16833   2.18636   2.29180
 Alpha virt. eigenvalues --    2.32905   2.34077   2.35964   2.39510   2.41502
 Alpha virt. eigenvalues --    2.46614   2.54498   2.54528   2.55502   2.64741
 Alpha virt. eigenvalues --    2.65238   2.67565   2.68594   2.69590   2.72379
 Alpha virt. eigenvalues --    2.73757   2.74269   2.76367   2.78437   2.79412
 Alpha virt. eigenvalues --    2.86906   2.88471   2.88620   2.89151   2.90736
 Alpha virt. eigenvalues --    2.91830   2.91880   2.93314   3.00900   3.05225
 Alpha virt. eigenvalues --    3.07161   3.12472   3.13253   3.17908   3.19107
 Alpha virt. eigenvalues --    3.21816   3.22698   3.24360   3.27059   3.29167
 Alpha virt. eigenvalues --    3.31513   3.32201   3.34765   3.35952   3.40503
 Alpha virt. eigenvalues --    3.40884   3.41934   3.42529   3.47393   3.50595
 Alpha virt. eigenvalues --    3.58434   3.62221   3.62404   3.62804   3.65177
 Alpha virt. eigenvalues --    3.66781   3.69326   3.78172   3.84631   3.89286
 Alpha virt. eigenvalues --    3.93596   4.02351   4.05842   4.10370   4.13991
 Alpha virt. eigenvalues --    4.17663   4.22861   4.24365   4.31932   4.32523
 Alpha virt. eigenvalues --    4.35980   4.41048   4.41076   4.43400   4.48831
 Alpha virt. eigenvalues --    4.64953   4.73303   4.77115   4.77417   4.82743
 Alpha virt. eigenvalues --    4.86165   4.95167   4.98458   5.14926   5.26359
 Alpha virt. eigenvalues --    5.28174   5.38358   5.42728   5.59771  21.89835
 Alpha virt. eigenvalues --   22.48495  22.63561  22.63897  22.95146  23.22398
          Condensed to atoms (all electrons):
               1          2          3          4          5          6
     1  C    4.919057   0.783085   0.486732  -0.048592  -0.052378  -0.058024
     2  C    0.783085   4.919057  -0.048592   0.486732  -0.058024  -0.052378
     3  C    0.486732  -0.048592   4.858492  -0.010011   0.505442  -0.022459
     4  C   -0.048592   0.486732  -0.010011   4.858492  -0.022459   0.505442
     5  C   -0.052378  -0.058024   0.505442  -0.022459   4.888072   0.522458
     6  C   -0.058024  -0.052378  -0.022459   0.505442   0.522458   4.888072
     7  H   -0.035727   0.007652   0.422313  -0.002553  -0.052136   0.005438
     8  H    0.007652  -0.035727  -0.002553   0.422313   0.005438  -0.052136
     9  H    0.008271   0.000359  -0.044314   0.006175   0.418245  -0.043019
    10  H    0.000359   0.008271   0.006175  -0.044314  -0.043019   0.418245
               7          8          9         10
     1  C   -0.035727   0.007652   0.008271   0.000359
     2  C    0.007652  -0.035727   0.000359   0.008271
     3  C    0.422313  -0.002553  -0.044314   0.006175
     4  C   -0.002553   0.422313   0.006175  -0.044314
     5  C   -0.052136   0.005438   0.418245  -0.043019
     6  C    0.005438  -0.052136  -0.043019   0.418245
     7  H    0.517189   0.000067  -0.002888   0.000045
     8  H    0.000067   0.517189   0.000045  -0.002888
     9  H   -0.002888   0.000045   0.528016  -0.003593
    10  H    0.000045  -0.002888  -0.003593   0.528016
 Mulliken charges:
               1
     1  C   -0.010436
     2  C   -0.010436
     3  C   -0.151226
     4  C   -0.151226
     5  C   -0.111640
     6  C   -0.111640
     7  H    0.140600
     8  H    0.140600
     9  H    0.132702
    10  H    0.132702
 Sum of Mulliken charges =   0.00000
 Mulliken charges with hydrogens summed into heavy atoms:
               1
     1  C   -0.010436
     2  C   -0.010436
     3  C   -0.010626
     4  C   -0.010626
     5  C    0.021062
     6  C    0.021062
 Electronic spatial extent (au):  <R**2>=            402.4314
 Charge=              0.0000 electrons
 Dipole moment (field-independent basis, Debye):
    X=              0.0000    Y=              0.0000    Z=              1.7153  Tot=              1.7153
 Quadrupole moment (field-independent basis, Debye-Ang):
   XX=            -37.7943   YY=            -28.9621   ZZ=            -34.7113
   XY=              0.0000   XZ=              0.0000   YZ=              0.0000
 Traceless Quadrupole moment (field-independent basis, Debye-Ang):
   XX=             -3.9718   YY=              4.8605   ZZ=             -0.8887
   XY=              0.0000   XZ=              0.0000   YZ=              0.0000
 Octapole moment (field-independent basis, Debye-Ang**2):
  XXX=              0.0000  YYY=              0.0000  ZZZ=             15.5332  XYY=              0.0000
  XXY=              0.0000  XXZ=              0.7473  XZZ=              0.0000  YZZ=              0.0000
  YYZ=              2.9882  XYZ=              0.0000
 Hexadecapole moment (field-independent basis, Debye-Ang**3):
 XXXX=            -44.3914 YYYY=           -247.4461 ZZZZ=           -245.8661 XXXY=              0.0000
 XXXZ=              0.0000 YYYX=              0.0000 YYYZ=              0.0000 ZZZX=              0.0000
 ZZZY=              0.0000 XXYY=            -60.7905 XXZZ=            -52.3206 YYZZ=            -85.7842
 XXYZ=              0.0000 YYXZ=              0.0000 ZZXY=              0.0000
 N-N= 1.882479841978D+02 E-N=-9.118913556273D+02  KE= 2.297449518178D+02
 Symmetry A1   KE= 1.159509545942D+02
 Symmetry A2   KE= 2.246883930255D+00
 Symmetry B1   KE= 4.240024166391D+00
 Symmetry B2   KE= 1.073070891270D+02
 No NMR shielding tensors so no spin-rotation constants.
 Leave Link  601 at Fri Jul  9 19:22:19 2021, MaxMem=  4194304000 cpu:        66.0
 (Enter /home/minenky/programs//g09/l701.exe)
 Compute integral first derivatives.
 ... and contract with generalized density number  0.
 R6Disp: Adding Grimme-D2 dispersion energy 1st derivatives to the gradient.
   4 Symmetry operations used in ECPInt.
 ECPInt:  NShTT=    3403 NPrTT=   10584 LenC2=    3391 LenP2D=    8933.
 LDataN:  DoStor=T MaxTD1= 7 Len=  274
 Leave Link  701 at Fri Jul  9 19:22:30 2021, MaxMem=  4194304000 cpu:        67.4
 (Enter /home/minenky/programs//g09/l702.exe)
 L702 exits ... SP integral derivatives will be done elsewhere.
 Leave Link  702 at Fri Jul  9 19:22:30 2021, MaxMem=  4194304000 cpu:         0.1
 (Enter /home/minenky/programs//g09/l703.exe)
 Compute integral first derivatives, UseDBF=F ICtDFT=           0.
 Integral derivatives from FoFJK, PRISM(SPDF).
 Calling FoFJK, ICntrl=      2127 FMM=F ISym2X=1 I1Cent= 0 IOpClX= 0 NMat=1 NMatS=1 NMatT=0.
 FoFJK:  IHMeth= 1 ICntrl=    2127 DoSepK=T KAlg= 0 I1Cent=   0 FoldK=F
 IRaf=         1 NMat=   1 IRICut=       1 DoRegI=T DoRafI=F ISym2E= 1.
 FoFCou: FMM=F IPFlag=           0 FMFlag=      100000 FMFlg1=         800
         NFxFlg=           0 DoJE=F BraDBF=F KetDBF=F FulRan=T
         wScrn=  0.000000 ICntrl=    2527 IOpCl=  0 I1Cent=           0 NGrid=           0
         NMat0=    1 NMatS0=      1 NMatT0=    0 NMatD0=    1 NMtDS0=    0 NMtDT0=    0
 Petite list used in FoFCou.
 Leave Link  703 at Fri Jul  9 19:22:44 2021, MaxMem=  4194304000 cpu:       117.8
 (Enter /home/minenky/programs//g09/l716.exe)
 Dipole        =-3.18748475D-17 8.88178420D-16 6.74834115D-01
 ***** Axes restored to original set *****
 -------------------------------------------------------------------
 Center     Atomic                   Forces (Hartrees/Bohr)
 Number     Number              X              Y              Z
 -------------------------------------------------------------------
      1        6           0.000000000   -0.006252750    0.002599602
      2        6           0.000000000    0.006252750    0.002599602
      3        6           0.000000000   -0.002859574    0.001337609
      4        6           0.000000000    0.002859574    0.001337609
      5        6           0.000000000   -0.000124906   -0.003919222
      6        6           0.000000000    0.000124906   -0.003919222
      7        1           0.000000000    0.000182771   -0.000003277
      8        1           0.000000000   -0.000182771   -0.000003277
      9        1           0.000000000   -0.000020626   -0.000014711
     10        1           0.000000000    0.000020626   -0.000014711
 -------------------------------------------------------------------
 Cartesian Forces:  Max     0.006252750 RMS     0.002179161
 Leave Link  716 at Fri Jul  9 19:22:44 2021, MaxMem=  4194304000 cpu:         0.0
 (Enter /home/minenky/programs//g09/l103.exe)

 GradGradGradGradGradGradGradGradGradGradGradGradGradGradGradGradGradGrad
 Berny optimization.
 FormGI is forming the generalized inverse of G from B-inverse, IUseBI=4.
 Internal  Forces:  Max     0.007094588 RMS     0.001631465
 Search for a local minimum.
 Step number   1 out of a maximum of   51
 All quantities printed in internal units (Hartrees-Bohrs-Radians)
 RMS Force = .16315D-02 SwitMx=.10000D-02 MixMth= 1
 Mixed Optimization -- RFO/linear search
 Second derivative matrix not updated -- first step.
 ITU=  0
     Eigenvalues ---    0.02023   0.02043   0.02045   0.02130   0.02146
     Eigenvalues ---    0.02175   0.03150   0.16000   0.16000   0.16000
     Eigenvalues ---    0.16000   0.22000   0.22379   0.24445   0.35571
     Eigenvalues ---    0.35571   0.35949   0.35949   0.42128   0.42595
     Eigenvalues ---    0.44931   0.48017   0.48574   0.83299
 RFO step:  Lambda=-1.93381218D-04 EMin= 2.02313554D-02
 Linear search not attempted -- first point.
 Iteration  1 RMS(Cart)=  0.00372966 RMS(Int)=  0.00000423
 Iteration  2 RMS(Cart)=  0.00000507 RMS(Int)=  0.00000024
 Iteration  3 RMS(Cart)=  0.00000000 RMS(Int)=  0.00000024
 ITry= 1 IFail=0 DXMaxC= 1.05D-02 DCOld= 1.00D+10 DXMaxT= 3.00D-01 DXLimC= 3.00D+00 Rises=F
 ClnCor:  largest displacement from symmetrization is 3.04D-13 for atom     7.
 Variable       Old X    -DE/DX   Delta X   Delta X   Delta X     New X
                                 (Linear)    (Quad)   (Total)
    R1        2.34595  -0.00709   0.00000  -0.00844  -0.00844   2.33751
    R2        2.60597  -0.00258   0.00000  -0.00549  -0.00549   2.60048
    R3        2.60597  -0.00258   0.00000  -0.00549  -0.00549   2.60048
    R4        2.65860  -0.00430   0.00000  -0.00942  -0.00942   2.64918
    R5        2.04161   0.00018   0.00000   0.00051   0.00051   2.04212
    R6        2.65860  -0.00430   0.00000  -0.00942  -0.00942   2.64918
    R7        2.04161   0.00018   0.00000   0.00051   0.00051   2.04212
    R8        2.64728  -0.00198   0.00000  -0.00390  -0.00390   2.64339
    R9        2.04758  -0.00002   0.00000  -0.00006  -0.00006   2.04752
   R10        2.04758  -0.00002   0.00000  -0.00006  -0.00006   2.04752
    A1        2.22069   0.00092   0.00000   0.00226   0.00226   2.22295
    A2        2.22069   0.00092   0.00000   0.00226   0.00226   2.22295
    A3        1.92547  -0.00096   0.00000  -0.00411  -0.00411   1.92136
    A4        2.21940   0.00048   0.00000   0.00204   0.00204   2.22144
    A5        2.13831   0.00048   0.00000   0.00207   0.00207   2.14038
    A6        1.92547  -0.00096   0.00000  -0.00411  -0.00411   1.92136
    A7        2.21940   0.00048   0.00000   0.00204   0.00204   2.22144
    A8        2.13831   0.00048   0.00000   0.00207   0.00207   2.14038
    A9        2.13702   0.00004   0.00000   0.00185   0.00185   2.13887
   A10        2.07007  -0.00001   0.00000  -0.00086  -0.00086   2.06922
   A11        2.07609  -0.00003   0.00000  -0.00099  -0.00100   2.07509
   A12        2.13702   0.00004   0.00000   0.00185   0.00185   2.13887
   A13        2.07007  -0.00001   0.00000  -0.00086  -0.00086   2.06922
   A14        2.07609  -0.00003   0.00000  -0.00099  -0.00100   2.07509
    D1        0.00000   0.00000   0.00000   0.00000   0.00000   0.00000
    D2        0.00000   0.00000   0.00000   0.00000   0.00000   0.00000
    D3        3.14159   0.00000   0.00000   0.00000   0.00000   3.14159
    D4        0.00000   0.00000   0.00000   0.00000   0.00000   0.00000
    D5        3.14159   0.00000   0.00000   0.00000   0.00000   3.14159
    D6        0.00000   0.00000   0.00000   0.00000   0.00000   0.00000
    D7        3.14159   0.00000   0.00000   0.00000   0.00000   3.14159
    D8        3.14159   0.00000   0.00000   0.00000   0.00000   3.14159
    D9        0.00000   0.00000   0.00000   0.00000   0.00000   0.00000
   D10        0.00000   0.00000   0.00000   0.00000   0.00000   0.00000
   D11        3.14159   0.00000   0.00000   0.00000   0.00000   3.14159
   D12        3.14159   0.00000   0.00000   0.00000   0.00000   3.14159
   D13        0.00000   0.00000   0.00000   0.00000   0.00000   0.00000
   D14        0.00000   0.00000   0.00000   0.00000   0.00000   0.00000
   D15        3.14159   0.00000   0.00000   0.00000   0.00000   3.14159
   D16        3.14159   0.00000   0.00000   0.00000   0.00000   3.14159
   D17        0.00000   0.00000   0.00000   0.00000   0.00000   0.00000
         Item               Value     Threshold  Converged?
 Maximum Force            0.007095     0.000015     NO 
 RMS     Force            0.001631     0.000010     NO 
 Maximum Displacement     0.010483     0.000060     NO 
 RMS     Displacement     0.003730     0.000040     NO 
 Predicted change in Energy=-9.672754D-05
 Lowest energy point so far.  Saving SCF results.
 GradGradGradGradGradGradGradGradGradGradGradGradGradGradGradGradGradGrad

 Leave Link  103 at Fri Jul  9 19:22:51 2021, MaxMem=  4194304000 cpu:        41.5
 (Enter /home/minenky/programs//g09/l202.exe)
                          Input orientation:                          
 ---------------------------------------------------------------------
 Center     Atomic      Atomic             Coordinates (Angstroms)
 Number     Number       Type             X           Y           Z
 ---------------------------------------------------------------------
      1          6           0        0.000000    0.618477   -1.225876
      2          6           0        0.000000   -0.618477   -1.225876
      3          6           0        0.000000    1.453641   -0.132171
      4          6           0        0.000000   -1.453641   -0.132171
      5          6           0        0.000000    0.699410    1.049531
      6          6           0        0.000000   -0.699410    1.049531
      7          1           0        0.000000    2.534285   -0.133804
      8          1           0        0.000000   -2.534285   -0.133804
      9          1           0        0.000000    1.222950    1.998151
     10          1           0        0.000000   -1.222950    1.998151
 ---------------------------------------------------------------------
                    Distance matrix (angstroms):
                    1          2          3          4          5
     1  C    0.000000
     2  C    1.236955   0.000000
     3  C    1.376114   2.343046   0.000000
     4  C    2.343046   1.376114   2.907282   0.000000
     5  C    2.276847   2.629507   1.401886   2.456024   0.000000
     6  C    2.629507   2.276847   2.456024   1.401886   1.398821
     7  H    2.205207   3.336544   1.080645   3.987926   2.183357
     8  H    3.336544   2.205207   3.987926   1.080645   3.443409
     9  H    3.280204   3.712844   2.142777   3.420879   1.083500
    10  H    3.712844   3.280204   3.420879   2.142777   2.143677
                    6          7          8          9         10
     6  C    0.000000
     7  H    3.443409   0.000000
     8  H    2.183357   5.068569   0.000000
     9  H    2.143677   2.502965   4.319959   0.000000
    10  H    1.083500   4.319959   2.502965   2.445901   0.000000
 Stoichiometry    C6H4
 Framework group  C2V[SGV(C6H4)]
 Deg. of freedom     9
 Full point group                 C2V     NOp   4
 RotChk:  IX=0 Diff= 1.67D-15
 Largest Abelian subgroup         C2V     NOp   4
 Largest concise Abelian subgroup C2      NOp   2
                         Standard orientation:                         
 ---------------------------------------------------------------------
 Center     Atomic      Atomic             Coordinates (Angstroms)
 Number     Number       Type             X           Y           Z
 ---------------------------------------------------------------------
      1          6           0        0.000000    0.618477   -1.226539
      2          6           0        0.000000   -0.618477   -1.226539
      3          6           0        0.000000    1.453641   -0.132834
      4          6           0        0.000000   -1.453641   -0.132834
      5          6           0        0.000000    0.699410    1.048869
      6          6           0        0.000000   -0.699410    1.048869
      7          1           0        0.000000    2.534285   -0.134467
      8          1           0        0.000000   -2.534285   -0.134467
      9          1           0        0.000000    1.222950    1.997489
     10          1           0        0.000000   -1.222950    1.997489
 ---------------------------------------------------------------------
 Rotational constants (GHZ):      7.1349877      5.7695223      3.1900065
 Leave Link  202 at Fri Jul  9 19:22:51 2021, MaxMem=  4194304000 cpu:         1.7
 (Enter /home/minenky/programs//g09/l301.exe)
 Standard basis: def2TZVP (5D, 7F)
 Ernie: Thresh=  0.10000D-02 Tol=  0.10000D-05 Strict=F.
 There are    85 symmetry adapted cartesian basis functions of A1  symmetry.
 There are    35 symmetry adapted cartesian basis functions of A2  symmetry.
 There are    35 symmetry adapted cartesian basis functions of B1  symmetry.
 There are    85 symmetry adapted cartesian basis functions of B2  symmetry.
 There are    73 symmetry adapted basis functions of A1  symmetry.
 There are    32 symmetry adapted basis functions of A2  symmetry.
 There are    32 symmetry adapted basis functions of B1  symmetry.
 There are    73 symmetry adapted basis functions of B2  symmetry.
   210 basis functions,   338 primitive gaussians,   240 cartesian basis functions
    20 alpha electrons       20 beta electrons
       nuclear repulsion energy       188.7176256992 Hartrees.
 IExCor= 4639 DFT=T Ex+Corr=wB97XD ExCW=0 ScaHFX=  1.000000
 ScaDFX=  1.000000  1.000000  1.000000  1.000000 ScalE2=  1.000000  1.000000
 IRadAn=      5 IRanWt=     -1 IRanGd=            0 ICorTp=0 IEmpDi=121
  HFx wShort=  0.000000 wLong=  0.200000 cFull=  0.222036 cShort=  0.000000 cLong=  0.777964
  DFx wShort=  0.000000 wLong=  0.200000 cFull=  0.000000 cShort=  0.000000 cLong=  1.000000
 NAtoms=   10 NActive=   10 NUniq=    5 SFac= 4.00D+00 NAtFMM=   60 NAOKFM=F Big=F
 Integral buffers will be    131072 words long.
 Raffenetti 2 integral format.
 Two-electron integral symmetry is turned on.
 R6Disp:  Grimme-D2 Dispersion energy=       -0.0028499449 Hartrees.
 Nuclear repulsion after empirical dispersion term =      188.7147757543 Hartrees.
 Leave Link  301 at Fri Jul  9 19:22:51 2021, MaxMem=  4194304000 cpu:         0.2
 (Enter /home/minenky/programs//g09/l302.exe)
 NPDir=0 NMtPBC=     1 NCelOv=     1 NCel=       1 NClECP=     1 NCelD=      1
         NCelK=      1 NCelE2=     1 NClLst=     1 CellRange=     0.0.
 One-electron integrals computed using PRISM.
 One-electron integral symmetry used in STVInt
   4 Symmetry operations used in ECPInt.
 ECPInt:  NShTT=    3403 NPrTT=   10584 LenC2=    3391 LenP2D=    8945.
 LDataN:  DoStor=T MaxTD1= 6 Len=  172
 NBasis=   210 RedAO= T EigKep=  1.74D-05  NBF=    73    32    32    73
 NBsUse=   210 1.00D-06 EigRej= -1.00D+00 NBFU=    73    32    32    73
 Precomputing XC quadrature grid using
 IXCGrd= 4 IRadAn=           5 IRanWt=          -1 IRanGd=           0 AccXCQ= 0.00D+00.
 Generated NRdTot=       0 NPtTot=           0 NUsed=           0 NTot=          32
 NSgBfM=   239   239   239   239   239 MxSgAt=    10 MxSgA2=    10.
 Leave Link  302 at Fri Jul  9 19:23:26 2021, MaxMem=  4194304000 cpu:       221.0
 (Enter /home/minenky/programs//g09/l303.exe)
 DipDrv:  MaxL=1.
 Leave Link  303 at Fri Jul  9 19:23:26 2021, MaxMem=  4194304000 cpu:         3.9
 (Enter /home/minenky/programs//g09/l401.exe)
 Initial guess from the checkpoint file:  "m1_00_462-80-60_C6H4_wB97XD.chk"
 B after Tr=     0.000000    0.000000    0.000000
         Rot=    1.000000    0.000000    0.000000    0.000000 Ang=   0.00 deg.
 Guess basis will be translated and rotated to current coordinates.
 JPrj=2 DoOrth=T DoCkMO=T.
 Initial guess orbital symmetries:
       Occupied  (B2) (A1) (A1) (B2) (A1) (B2) (A1) (B2) (A1) (A1)
                 (B2) (A1) (B2) (A1) (B1) (B2) (A1) (A1) (B1) (A2)
       Virtual   (A1) (A1) (A1) (A1) (A1) (A1) (A1) (A1) (A1) (A1)
                 (A1) (A1) (A1) (A1) (A1) (A1) (A1) (A1) (A1) (A1)
                 (A1) (A1) (A1) (A1) (A1) (A1) (A1) (A1) (A1) (A1)
                 (A1) (A1) (A1) (A1) (A1) (A1) (A1) (A1) (A1) (A1)
                 (A1) (A1) (A1) (A1) (A1) (A1) (A1) (A1) (A1) (A1)
                 (A1) (A1) (A1) (A1) (A1) (A1) (A1) (A1) (A1) (A1)
                 (A1) (A1) (A1) (A2) (A2) (A2) (A2) (A2) (A2) (A2)
                 (A2) (A2) (A2) (A2) (A2) (A2) (A2) (A2) (A2) (A2)
                 (A2) (A2) (A2) (A2) (A2) (A2) (A2) (A2) (A2) (A2)
                 (A2) (A2) (A2) (A2) (B1) (B1) (B1) (B1) (B1) (B1)
                 (B1) (B1) (B1) (B1) (B1) (B1) (B1) (B1) (B1) (B1)
                 (B1) (B1) (B1) (B1) (B1) (B1) (B1) (B1) (B1) (B1)
                 (B1) (B1) (B1) (B1) (B2) (B2) (B2) (B2) (B2) (B2)
                 (B2) (B2) (B2) (B2) (B2) (B2) (B2) (B2) (B2) (B2)
                 (B2) (B2) (B2) (B2) (B2) (B2) (B2) (B2) (B2) (B2)
                 (B2) (B2) (B2) (B2) (B2) (B2) (B2) (B2) (B2) (B2)
                 (B2) (B2) (B2) (B2) (B2) (B2) (B2) (B2) (B2) (B2)
                 (B2) (B2) (B2) (B2) (B2) (B2) (B2) (B2) (B2) (B2)
                 (B2) (B2) (B2) (B2) (B2) (B2) (B2) (B2) (B2) (B2)
 The electronic state of the initial guess is 1-A1.
 Leave Link  401 at Fri Jul  9 19:23:31 2021, MaxMem=  4194304000 cpu:        28.7
 (Enter /home/minenky/programs//g09/l502.exe)
 Closed shell SCF:
 Using DIIS extrapolation, IDIIS=  1040.
 Integral symmetry usage will be decided dynamically.
 Keep R1 ints in memory in symmetry-blocked form, NReq=616985072.
 IVT=      326686 IEndB=      326686 NGot=  4194304000 MDV=  4131057167
 LenX=  4131057167 LenY=  4130999126
 Requested convergence on RMS density matrix=1.00D-08 within 380 cycles.
 Requested convergence on MAX density matrix=1.00D-06.
 Requested convergence on             energy=1.00D-06.
 No special actions if energy rises.
 FoFCou: FMM=F IPFlag=           0 FMFlag=           0 FMFlg1=           0
         NFxFlg=           0 DoJE=F BraDBF=F KetDBF=F FulRan=T
         wScrn=  0.000000 ICntrl=     600 IOpCl=  0 I1Cent=           0 NGrid=           0
         NMat0=    1 NMatS0=  22155 NMatT0=    0 NMatD0=    1 NMtDS0=    0 NMtDT0=    0
 Petite list used in FoFCou.

 Cycle   1  Pass 1  IDiag  1:
 E= -230.902456591380    
 DIIS: error= 4.61D-04 at cycle   1 NSaved=   1.
 NSaved= 1 IEnMin= 1 EnMin= -230.902456591380     IErMin= 1 ErrMin= 4.61D-04
 ErrMax= 4.61D-04  0.00D+00 EMaxC= 1.00D-01 BMatC= 4.45D-05 BMatP= 4.45D-05
 IDIUse=3 WtCom= 9.95D-01 WtEn= 4.61D-03
 Coeff-Com:  0.100D+01
 Coeff-En:   0.100D+01
 Coeff:      0.100D+01
 Gap=     0.900 Goal=   None    Shift=    0.000
 RMSDP=4.86D-05 MaxDP=1.35D-03              OVMax= 1.41D-03

 Cycle   2  Pass 1  IDiag  1:
 E= -230.902485174900     Delta-E=       -0.000028583520 Rises=F Damp=F
 DIIS: error= 1.70D-04 at cycle   2 NSaved=   2.
 NSaved= 2 IEnMin= 2 EnMin= -230.902485174900     IErMin= 2 ErrMin= 1.70D-04
 ErrMax= 1.70D-04  0.00D+00 EMaxC= 1.00D-01 BMatC= 3.31D-06 BMatP= 4.45D-05
 IDIUse=3 WtCom= 9.98D-01 WtEn= 1.70D-03
 Coeff-Com:  0.980D-01 0.902D+00
 Coeff-En:   0.000D+00 0.100D+01
 Coeff:      0.979D-01 0.902D+00
 Gap=     0.342 Goal=   None    Shift=    0.000
 RMSDP=1.04D-05 MaxDP=1.84D-04 DE=-2.86D-05 OVMax= 6.43D-04

 Cycle   3  Pass 1  IDiag  1:
 E= -230.902487869291     Delta-E=       -0.000002694391 Rises=F Damp=F
 DIIS: error= 1.02D-04 at cycle   3 NSaved=   3.
 NSaved= 3 IEnMin= 3 EnMin= -230.902487869291     IErMin= 3 ErrMin= 1.02D-04
 ErrMax= 1.02D-04  0.00D+00 EMaxC= 1.00D-01 BMatC= 9.30D-07 BMatP= 3.31D-06
 IDIUse=3 WtCom= 9.99D-01 WtEn= 1.02D-03
 Coeff-Com: -0.235D-01 0.327D+00 0.697D+00
 Coeff-En:   0.000D+00 0.000D+00 0.100D+01
 Coeff:     -0.235D-01 0.327D+00 0.697D+00
 Gap=     0.342 Goal=   None    Shift=    0.000
 RMSDP=3.37D-06 MaxDP=5.53D-05 DE=-2.69D-06 OVMax= 3.51D-04

 Cycle   4  Pass 1  IDiag  1:
 E= -230.902488899626     Delta-E=       -0.000001030335 Rises=F Damp=F
 DIIS: error= 3.06D-05 at cycle   4 NSaved=   4.
 NSaved= 4 IEnMin= 4 EnMin= -230.902488899626     IErMin= 4 ErrMin= 3.06D-05
 ErrMax= 3.06D-05  0.00D+00 EMaxC= 1.00D-01 BMatC= 2.02D-08 BMatP= 9.30D-07
 IDIUse=1 WtCom= 1.00D+00 WtEn= 0.00D+00
 Coeff-Com: -0.327D-02-0.299D-01 0.380D-01 0.995D+00
 Coeff:     -0.327D-02-0.299D-01 0.380D-01 0.995D+00
 Gap=     0.342 Goal=   None    Shift=    0.000
 RMSDP=1.29D-06 MaxDP=1.87D-05 DE=-1.03D-06 OVMax= 1.72D-04

 Cycle   5  Pass 1  IDiag  1:
 E= -230.902488954707     Delta-E=       -0.000000055081 Rises=F Damp=F
 DIIS: error= 1.78D-05 at cycle   5 NSaved=   5.
 NSaved= 5 IEnMin= 5 EnMin= -230.902488954707     IErMin= 5 ErrMin= 1.78D-05
 ErrMax= 1.78D-05  0.00D+00 EMaxC= 1.00D-01 BMatC= 6.39D-09 BMatP= 2.02D-08
 IDIUse=1 WtCom= 1.00D+00 WtEn= 0.00D+00
 Coeff-Com:  0.109D-02-0.449D-01-0.495D-01 0.387D+00 0.706D+00
 Coeff:      0.109D-02-0.449D-01-0.495D-01 0.387D+00 0.706D+00
 Gap=     0.342 Goal=   None    Shift=    0.000
 RMSDP=5.17D-07 MaxDP=9.28D-06 DE=-5.51D-08 OVMax= 9.06D-05

 Cycle   6  Pass 1  IDiag  1:
 E= -230.902488968735     Delta-E=       -0.000000014028 Rises=F Damp=F
 DIIS: error= 7.98D-06 at cycle   6 NSaved=   6.
 NSaved= 6 IEnMin= 6 EnMin= -230.902488968735     IErMin= 6 ErrMin= 7.98D-06
 ErrMax= 7.98D-06  0.00D+00 EMaxC= 1.00D-01 BMatC= 1.22D-09 BMatP= 6.39D-09
 IDIUse=1 WtCom= 1.00D+00 WtEn= 0.00D+00
 Coeff-Com:  0.122D-02-0.128D-01-0.295D-01-0.674D-01 0.244D+00 0.865D+00
 Coeff:      0.122D-02-0.128D-01-0.295D-01-0.674D-01 0.244D+00 0.865D+00
 Gap=     0.342 Goal=   None    Shift=    0.000
 RMSDP=3.18D-07 MaxDP=5.69D-06 DE=-1.40D-08 OVMax= 4.76D-05

 Cycle   7  Pass 1  IDiag  1:
 E= -230.902488972978     Delta-E=       -0.000000004242 Rises=F Damp=F
 DIIS: error= 2.87D-06 at cycle   7 NSaved=   7.
 NSaved= 7 IEnMin= 7 EnMin= -230.902488972978     IErMin= 7 ErrMin= 2.87D-06
 ErrMax= 2.87D-06  0.00D+00 EMaxC= 1.00D-01 BMatC= 8.86D-11 BMatP= 1.22D-09
 IDIUse=1 WtCom= 1.00D+00 WtEn= 0.00D+00
 Coeff-Com: -0.129D-03 0.751D-02 0.814D-02-0.581D-01-0.141D+00-0.855D-01
 Coeff-Com:  0.127D+01
 Coeff:     -0.129D-03 0.751D-02 0.814D-02-0.581D-01-0.141D+00-0.855D-01
 Coeff:      0.127D+01
 Gap=     0.342 Goal=   None    Shift=    0.000
 RMSDP=1.72D-07 MaxDP=3.31D-06 DE=-4.24D-09 OVMax= 2.99D-05

 Cycle   8  Pass 1  IDiag  1:
 E= -230.902488973705     Delta-E=       -0.000000000728 Rises=F Damp=F
 DIIS: error= 4.25D-07 at cycle   8 NSaved=   8.
 NSaved= 8 IEnMin= 8 EnMin= -230.902488973705     IErMin= 8 ErrMin= 4.25D-07
 ErrMax= 4.25D-07  0.00D+00 EMaxC= 1.00D-01 BMatC= 9.75D-12 BMatP= 8.86D-11
 IDIUse=1 WtCom= 1.00D+00 WtEn= 0.00D+00
 Coeff-Com: -0.916D-04 0.284D-02 0.370D-02-0.141D-01-0.529D-01-0.741D-01
 Coeff-Com:  0.384D+00 0.751D+00
 Coeff:     -0.916D-04 0.284D-02 0.370D-02-0.141D-01-0.529D-01-0.741D-01
 Coeff:      0.384D+00 0.751D+00
 Gap=     0.342 Goal=   None    Shift=    0.000
 RMSDP=3.04D-08 MaxDP=6.22D-07 DE=-7.28D-10 OVMax= 2.97D-06

 Cycle   9  Pass 1  IDiag  1:
 E= -230.902488973723     Delta-E=       -0.000000000018 Rises=F Damp=F
 DIIS: error= 1.08D-07 at cycle   9 NSaved=   9.
 NSaved= 9 IEnMin= 9 EnMin= -230.902488973723     IErMin= 9 ErrMin= 1.08D-07
 ErrMax= 1.08D-07  0.00D+00 EMaxC= 1.00D-01 BMatC= 1.51D-12 BMatP= 9.75D-12
 IDIUse=1 WtCom= 1.00D+00 WtEn= 0.00D+00
 Coeff-Com: -0.787D-05-0.553D-03-0.361D-03 0.751D-02 0.114D-01-0.972D-02
 Coeff-Com: -0.127D+00 0.256D+00 0.863D+00
 Coeff:     -0.787D-05-0.553D-03-0.361D-03 0.751D-02 0.114D-01-0.972D-02
 Coeff:     -0.127D+00 0.256D+00 0.863D+00
 Gap=     0.342 Goal=   None    Shift=    0.000
 RMSDP=1.89D-08 MaxDP=4.47D-07 DE=-1.78D-11 OVMax= 1.03D-06

 Cycle  10  Pass 1  IDiag  1:
 E= -230.902488973726     Delta-E=       -0.000000000003 Rises=F Damp=F
 DIIS: error= 7.05D-09 at cycle  10 NSaved=  10.
 NSaved=10 IEnMin=10 EnMin= -230.902488973726     IErMin=10 ErrMin= 7.05D-09
 ErrMax= 7.05D-09  0.00D+00 EMaxC= 1.00D-01 BMatC= 9.95D-15 BMatP= 1.51D-12
 IDIUse=1 WtCom= 1.00D+00 WtEn= 0.00D+00
 Coeff-Com:  0.279D-05-0.212D-04-0.640D-04-0.391D-03 0.519D-04 0.308D-02
 Coeff-Com:  0.547D-02-0.519D-01-0.127D+00 0.117D+01
 Coeff:      0.279D-05-0.212D-04-0.640D-04-0.391D-03 0.519D-04 0.308D-02
 Coeff:      0.547D-02-0.519D-01-0.127D+00 0.117D+01
 Gap=     0.342 Goal=   None    Shift=    0.000
 RMSDP=4.63D-09 MaxDP=9.40D-08 DE=-2.67D-12 OVMax= 1.42D-07

 SCF Done:  E(RwB97XD) =  -230.902488974     A.U. after   10 cycles
            NFock= 10  Conv=0.46D-08     -V/T= 2.0048
 KE= 2.298071358908D+02 PE=-9.128813849148D+02 EE= 2.634569842959D+02
 Leave Link  502 at Fri Jul  9 19:24:41 2021, MaxMem=  4194304000 cpu:       858.8
 (Enter /home/minenky/programs//g09/l701.exe)
 Compute integral first derivatives.
 ... and contract with generalized density number  0.
 R6Disp: Adding Grimme-D2 dispersion energy 1st derivatives to the gradient.
   4 Symmetry operations used in ECPInt.
 ECPInt:  NShTT=    3403 NPrTT=   10584 LenC2=    3391 LenP2D=    8945.
 LDataN:  DoStor=T MaxTD1= 7 Len=  274
 Leave Link  701 at Fri Jul  9 19:24:54 2021, MaxMem=  4194304000 cpu:        77.1
[...]
      8  0.588682D-02  0.000000D+00  0.784889D+00
      9  0.791354D-02  0.000000D+00  0.386885D-01  0.543382D+00
     10  0.000000D+00  0.118256D-01  0.000000D+00  0.000000D+00  0.118428D+00
     11  0.179034D+00  0.000000D+00 -0.115934D-01  0.528812D-02  0.000000D+00
     12 -0.197903D+00  0.000000D+00 -0.528812D-02 -0.651948D-01  0.000000D+00
     13  0.000000D+00 -0.588603D-01  0.000000D+00  0.000000D+00  0.486588D-02
     14  0.204934D-01  0.000000D+00 -0.181553D+00  0.527074D-01  0.000000D+00
     15 -0.237837D-01  0.000000D+00  0.129707D+00 -0.237799D+00  0.000000D+00
     16  0.000000D+00  0.486588D-02  0.000000D+00  0.000000D+00 -0.588603D-01
     17 -0.294528D-01  0.000000D+00 -0.183149D-01  0.845613D-01  0.000000D+00
     18 -0.727640D-01  0.000000D+00  0.223584D-01  0.237574D-01  0.000000D+00
     19  0.000000D+00 -0.371223D-01  0.000000D+00  0.000000D+00 -0.273616D-03
     20 -0.183046D-02  0.000000D+00 -0.347643D+00  0.497444D-02  0.000000D+00
     21  0.115635D-02  0.000000D+00  0.348445D-02 -0.552763D-01  0.000000D+00
     22  0.000000D+00 -0.273616D-03  0.000000D+00  0.000000D+00 -0.371223D-01
     23  0.159864D-02  0.000000D+00  0.774191D-03  0.553241D-03  0.000000D+00
     24 -0.186844D-02  0.000000D+00  0.578800D-04 -0.240852D-02  0.000000D+00
     25  0.000000D+00  0.408868D-02  0.000000D+00  0.000000D+00  0.249674D-02
     26  0.371624D-02  0.000000D+00  0.871746D-02  0.152161D-01  0.000000D+00
     27 -0.275085D-02  0.000000D+00 -0.135530D-01 -0.170792D-01  0.000000D+00
     28  0.000000D+00  0.249674D-02  0.000000D+00  0.000000D+00  0.408868D-02
     29 -0.209288D-02  0.000000D+00 -0.636989D-02  0.106577D-02  0.000000D+00
     30 -0.297185D-02  0.000000D+00 -0.230790D-02  0.608303D-03  0.000000D+00
               11            12            13            14            15 
     11  0.784889D+00
     12 -0.386885D-01  0.543382D+00
     13  0.000000D+00  0.000000D+00  0.136813D+00
     14 -0.183149D-01 -0.845613D-01  0.000000D+00  0.650984D+00
     15 -0.223584D-01  0.237574D-01  0.000000D+00  0.484541D-01  0.700252D+00
     16  0.000000D+00  0.000000D+00 -0.703586D-01  0.000000D+00  0.000000D+00
     17 -0.181553D+00 -0.527074D-01  0.000000D+00 -0.301001D+00 -0.350543D-01
     18 -0.129707D+00 -0.237799D+00  0.000000D+00  0.350543D-01 -0.121319D+00
     19  0.000000D+00  0.000000D+00  0.342134D-02  0.000000D+00  0.000000D+00
     20  0.774191D-03 -0.553241D-03  0.000000D+00 -0.929611D-02 -0.313332D-02
     21 -0.578800D-04 -0.240852D-02  0.000000D+00  0.256429D-01  0.453968D-02
     22  0.000000D+00  0.000000D+00  0.980702D-02  0.000000D+00  0.000000D+00
     23 -0.347643D+00 -0.497444D-02  0.000000D+00  0.958970D-03 -0.265058D-02
     24 -0.348445D-02 -0.552763D-01  0.000000D+00 -0.183564D-02 -0.285748D-02
     25  0.000000D+00  0.000000D+00 -0.349235D-01  0.000000D+00  0.000000D+00
     26 -0.636989D-02 -0.106577D-02  0.000000D+00 -0.123628D+00 -0.119787D+00
     27  0.230790D-02  0.608303D-03  0.000000D+00 -0.121239D+00 -0.274010D+00
     28  0.000000D+00  0.000000D+00  0.187341D-02  0.000000D+00  0.000000D+00
     29  0.871746D-02 -0.152161D-01  0.000000D+00 -0.888830D-02  0.275026D-01
     30  0.135530D-01 -0.170792D-01  0.000000D+00 -0.416901D-02  0.398478D-02
               16            17            18            19            20 
     16  0.136813D+00
     17  0.000000D+00  0.650984D+00
     18  0.000000D+00 -0.484541D-01  0.700252D+00
     19  0.980702D-02  0.000000D+00  0.000000D+00  0.242872D-01
     20  0.000000D+00  0.958970D-03  0.265058D-02  0.000000D+00  0.366988D+00
     21  0.000000D+00  0.183564D-02 -0.285748D-02  0.000000D+00 -0.757212D-03
     22  0.342134D-02  0.000000D+00  0.000000D+00 -0.289679D-02  0.000000D+00
     23  0.000000D+00 -0.929611D-02  0.313332D-02  0.000000D+00 -0.144588D-03
     24  0.000000D+00 -0.256429D-01  0.453968D-02  0.000000D+00  0.990948D-04
     25  0.187341D-02  0.000000D+00  0.000000D+00 -0.391139D-02  0.000000D+00
     26  0.000000D+00 -0.888830D-02 -0.275026D-01  0.000000D+00  0.569464D-03
     27  0.000000D+00  0.416901D-02  0.398478D-02  0.000000D+00  0.313699D-03
     28 -0.349235D-01  0.000000D+00  0.000000D+00  0.240097D-04  0.000000D+00
     29  0.000000D+00 -0.123628D+00  0.119787D+00  0.000000D+00 -0.457978D-03
     30  0.000000D+00  0.121239D+00 -0.274010D+00  0.000000D+00 -0.164935D-03
               21            22            23            24            25 
     21  0.553829D-01
     22  0.000000D+00  0.242872D-01
     23 -0.990948D-04  0.000000D+00  0.366988D+00
     24  0.319528D-03  0.000000D+00  0.757212D-03  0.553829D-01
     25  0.000000D+00  0.240097D-04  0.000000D+00  0.000000D+00  0.251566D-01
     26 -0.646878D-03  0.000000D+00 -0.457978D-03 -0.107508D-02  0.000000D+00
     27  0.797022D-03  0.000000D+00  0.164935D-03  0.215273D-03  0.000000D+00
     28  0.000000D+00 -0.391139D-02  0.000000D+00  0.000000D+00 -0.275643D-02
     29  0.107508D-02  0.000000D+00  0.569464D-03  0.646878D-03  0.000000D+00
     30  0.215273D-03  0.000000D+00 -0.313699D-03  0.797022D-03  0.000000D+00
               26            27            28            29            30 
     26  0.128287D+00
     27  0.128663D+00  0.290603D+00
     28  0.000000D+00  0.000000D+00  0.251566D-01
     29  0.321243D-03 -0.389498D-03  0.000000D+00  0.128287D+00
     30  0.389498D-03  0.603388D-03  0.000000D+00 -0.128663D+00  0.290603D+00
 FormGI is forming the generalized inverse of G from B-inverse, IUseBI=4.
 Leave Link  716 at Fri Jul  9 19:33:15 2021, MaxMem=  4194304000 cpu:        11.8
 (Enter /home/minenky/programs//g09/l103.exe)

 GradGradGradGradGradGradGradGradGradGradGradGradGradGradGradGradGradGrad
 Berny optimization.
 Red2BG is reusing G-inverse.
 Internal  Forces:  Max     0.000012543 RMS     0.000003312
 Search for a local minimum.
 Step number   1 out of a maximum of    2
 All quantities printed in internal units (Hartrees-Bohrs-Radians)
 Second derivative matrix not updated -- analytic derivatives used.
 ITU=  0
     Eigenvalues ---    0.01472   0.01734   0.01864   0.02428   0.02738
     Eigenvalues ---    0.03313   0.04777   0.05179   0.10660   0.11152
     Eigenvalues ---    0.11695   0.11990   0.19829   0.20117   0.27699
     Eigenvalues ---    0.36188   0.36210   0.36576   0.36793   0.40558
     Eigenvalues ---    0.40922   0.50630   0.51234   0.85622
 Angle between quadratic step and forces=  38.95 degrees.
 Linear search not attempted -- first point.
 Iteration  1 RMS(Cart)=  0.00001696 RMS(Int)=  0.00000000
 Iteration  2 RMS(Cart)=  0.00000000 RMS(Int)=  0.00000000
 ITry= 1 IFail=0 DXMaxC= 4.91D-05 DCOld= 1.00D+10 DXMaxT= 3.00D-01 DXLimC= 3.00D+00 Rises=F
 ClnCor:  largest displacement from symmetrization is 6.63D-13 for atom    10.
 Variable       Old X    -DE/DX   Delta X   Delta X   Delta X     New X
                                 (Linear)    (Quad)   (Total)
    R1        2.33689   0.00001   0.00000   0.00001   0.00001   2.33690
    R2        2.60253   0.00000   0.00000   0.00001   0.00001   2.60253
    R3        2.60253   0.00000   0.00000   0.00001   0.00001   2.60253
    R4        2.64864  -0.00001   0.00000  -0.00002  -0.00002   2.64862
    R5        2.04213   0.00000   0.00000   0.00000   0.00000   2.04214
    R6        2.64864  -0.00001   0.00000  -0.00002  -0.00002   2.64862
    R7        2.04213   0.00000   0.00000   0.00000   0.00000   2.04214
    R8        2.64570   0.00000   0.00000   0.00000   0.00000   2.64569
    R9        2.04784   0.00000   0.00000   0.00000   0.00000   2.04784
   R10        2.04784   0.00000   0.00000   0.00000   0.00000   2.04784
    A1        2.22281   0.00000   0.00000  -0.00001  -0.00001   2.22280
    A2        2.22281   0.00000   0.00000  -0.00001  -0.00001   2.22280
    A3        1.92159   0.00000   0.00000   0.00001   0.00001   1.92160
    A4        2.22105  -0.00001   0.00000  -0.00005  -0.00005   2.22100
    A5        2.14054   0.00000   0.00000   0.00004   0.00004   2.14058
    A6        1.92159   0.00000   0.00000   0.00001   0.00001   1.92160
    A7        2.22105  -0.00001   0.00000  -0.00005  -0.00005   2.22100
    A8        2.14054   0.00000   0.00000   0.00004   0.00004   2.14058
    A9        2.13878   0.00000   0.00000   0.00000   0.00000   2.13878
   A10        2.07083   0.00000   0.00000  -0.00002  -0.00002   2.07081
   A11        2.07358   0.00000   0.00000   0.00002   0.00002   2.07360
   A12        2.13878   0.00000   0.00000   0.00000   0.00000   2.13878
   A13        2.07083   0.00000   0.00000  -0.00002  -0.00002   2.07081
   A14        2.07358   0.00000   0.00000   0.00002   0.00002   2.07360
    D1        0.00000   0.00000   0.00000   0.00000   0.00000   0.00000
    D2        0.00000   0.00000   0.00000   0.00000   0.00000   0.00000
    D3        3.14159   0.00000   0.00000   0.00000   0.00000   3.14159
    D4        0.00000   0.00000   0.00000   0.00000   0.00000   0.00000
    D5        3.14159   0.00000   0.00000   0.00000   0.00000   3.14159
    D6        0.00000   0.00000   0.00000   0.00000   0.00000   0.00000
    D7        3.14159   0.00000   0.00000   0.00000   0.00000   3.14159
    D8        3.14159   0.00000   0.00000   0.00000   0.00000   3.14159
    D9        0.00000   0.00000   0.00000   0.00000   0.00000   0.00000
   D10        0.00000   0.00000   0.00000   0.00000   0.00000   0.00000
   D11        3.14159   0.00000   0.00000   0.00000   0.00000   3.14159
   D12        3.14159   0.00000   0.00000   0.00000   0.00000   3.14159
   D13        0.00000   0.00000   0.00000   0.00000   0.00000   0.00000
   D14        0.00000   0.00000   0.00000   0.00000   0.00000   0.00000
   D15        3.14159   0.00000   0.00000   0.00000   0.00000   3.14159
   D16        3.14159   0.00000   0.00000   0.00000   0.00000   3.14159
   D17        0.00000   0.00000   0.00000   0.00000   0.00000   0.00000
         Item               Value     Threshold  Converged?
 Maximum Force            0.000013     0.000015     YES
 RMS     Force            0.000003     0.000010     YES
 Maximum Displacement     0.000049     0.000060     YES
 RMS     Displacement     0.000017     0.000040     YES
 Predicted change in Energy=-9.454120D-10
 Optimization completed.
    -- Stationary point found.
                           ----------------------------
                           !   Optimized Parameters   !
                           ! (Angstroms and Degrees)  !
 --------------------------                            --------------------------
 ! Name  Definition              Value          Derivative Info.                !
 --------------------------------------------------------------------------------
 ! R1    R(1,2)                  1.2366         -DE/DX =    0.0                 !
 ! R2    R(1,3)                  1.3772         -DE/DX =    0.0                 !
 ! R3    R(2,4)                  1.3772         -DE/DX =    0.0                 !
 ! R4    R(3,5)                  1.4016         -DE/DX =    0.0                 !
 ! R5    R(3,7)                  1.0806         -DE/DX =    0.0                 !
 ! R6    R(4,6)                  1.4016         -DE/DX =    0.0                 !
 ! R7    R(4,8)                  1.0806         -DE/DX =    0.0                 !
 ! R8    R(5,6)                  1.4            -DE/DX =    0.0                 !
 ! R9    R(5,9)                  1.0837         -DE/DX =    0.0                 !
 ! R10   R(6,10)                 1.0837         -DE/DX =    0.0                 !
 ! A1    A(2,1,3)              127.3579         -DE/DX =    0.0                 !
 ! A2    A(1,2,4)              127.3579         -DE/DX =    0.0                 !
 ! A3    A(1,3,5)              110.0991         -DE/DX =    0.0                 !
 ! A4    A(1,3,7)              127.2569         -DE/DX =    0.0                 !
 ! A5    A(5,3,7)              122.644          -DE/DX =    0.0                 !
 ! A6    A(2,4,6)              110.0991         -DE/DX =    0.0                 !
 ! A7    A(2,4,8)              127.2569         -DE/DX =    0.0                 !
 ! A8    A(6,4,8)              122.644          -DE/DX =    0.0                 !
 ! A9    A(3,5,6)              122.543          -DE/DX =    0.0                 !
 ! A10   A(3,5,9)              118.6499         -DE/DX =    0.0                 !
 ! A11   A(6,5,9)              118.8071         -DE/DX =    0.0                 !
 ! A12   A(4,6,5)              122.543          -DE/DX =    0.0                 !
 ! A13   A(4,6,10)             118.6499         -DE/DX =    0.0                 !
 ! A14   A(5,6,10)             118.8071         -DE/DX =    0.0                 !
 ! D1    D(3,1,2,4)              0.0            -DE/DX =    0.0                 !
 ! D2    D(2,1,3,5)              0.0            -DE/DX =    0.0                 !
 ! D3    D(2,1,3,7)            180.0            -DE/DX =    0.0                 !
 ! D4    D(1,2,4,6)              0.0            -DE/DX =    0.0                 !
 ! D5    D(1,2,4,8)            180.0            -DE/DX =    0.0                 !
 ! D6    D(1,3,5,6)              0.0            -DE/DX =    0.0                 !
 ! D7    D(1,3,5,9)            180.0            -DE/DX =    0.0                 !
 ! D8    D(7,3,5,6)            180.0            -DE/DX =    0.0                 !
 ! D9    D(7,3,5,9)              0.0            -DE/DX =    0.0                 !
 ! D10   D(2,4,6,5)              0.0            -DE/DX =    0.0                 !
 ! D11   D(2,4,6,10)           180.0            -DE/DX =    0.0                 !
 ! D12   D(8,4,6,5)            180.0            -DE/DX =    0.0                 !
 ! D13   D(8,4,6,10)             0.0            -DE/DX =    0.0                 !
 ! D14   D(3,5,6,4)              0.0            -DE/DX =    0.0                 !
 ! D15   D(3,5,6,10)           180.0            -DE/DX =    0.0                 !
 ! D16   D(9,5,6,4)            180.0            -DE/DX =    0.0                 !
 ! D17   D(9,5,6,10)             0.0            -DE/DX =    0.0                 !
 --------------------------------------------------------------------------------
 GradGradGradGradGradGradGradGradGradGradGradGradGradGradGradGradGradGrad

 Leave Link  103 at Fri Jul  9 19:33:19 2021, MaxMem=  4194304000 cpu:        27.8
 (Enter /home/minenky/programs//g09/l9999.exe)
 1\1\GINC-CN513-10-R\Freq\RwB97XD\def2TZVP\C6H4\MINENKY\09-Jul-2021\0\\
 #P Geom=AllCheck Guess=TCheck SCRF=Check GenChk RwB97XD/def2TZVP Freq\
 \The PBEPBE optimization and frequencies\\0,1\C,0.,0.6183143847,-1.226
 7230685\C,0.,-0.6183143847,-1.2267230685\C,0.,1.4539866939,-0.13204202
 05\C,0.,-1.4539866939,-0.1320420205\C,0.,0.7000213561,1.0494890228\C,0
 .,-0.7000213561,1.0494890228\H,0.,2.5346345229,-0.1339467196\H,0.,-2.5
 346345229,-0.1339467196\H,0.,1.2222025007,1.9990527857\H,0.,-1.2222025
 007,1.9990527857\\Version=AM64L-G09RevD.01\State=1-A1\HF=-230.9024919\
 RMSD=7.314e-10\RMSF=6.173e-06\ZeroPoint=0.0758882\Thermal=0.0803207\Di
 pole=0.,0.,0.6708839\DipoleDeriv=-0.0174016,0.,0.,0.,-0.3746314,0.0965
 986,0.,0.8101107,-0.2389463,-0.0174015,0.,0.,0.,-0.3746314,-0.0965986,
 0.,-0.8101108,-0.2389463,-0.1279823,0.,0.,0.,0.4638022,0.1683189,0.,-0
 .1169413,0.1771392,-0.1279823,0.,0.,0.,0.4638022,-0.1683189,0.,0.11694
 14,0.1771392,-0.1541243,0.,0.,0.,-0.095782,-0.0186674,0.,0.0085627,0.0
 240974,-0.1541243,0.,0.,0.,-0.095782,0.0186674,0.,-0.0085627,0.0240974
 ,0.1395548,0.,0.,0.,-0.0573158,-0.0246217,0.,0.0106686,0.0839589,0.139
 5548,0.,0.,0.,-0.0573157,0.0246217,0.,-0.0106686,0.083959,0.1599533,0.
 ,0.,0.,0.0639269,-0.0363679,0.,-0.0881468,-0.0462492,0.1599533,0.,0.,0
 .,0.0639269,0.0363679,0.,0.0881468,-0.0462493\Polar=36.601104,0.,81.19
 98938,0.,0.0000002,69.1447333\PG=C02V [SGV(C6H4)]\NImag=0\\0.06064563,
 0.,1.04591212,0.,0.15400784,0.27229043,-0.03717542,0.,0.,0.06064563,0.
 ,-0.79744380,0.02334522,0.,1.04591212,0.,-0.02334522,0.02068162,0.,-0.
 15400784,0.27229043,-0.03799546,0.,0.,-0.00745327,0.,0.,0.11842805,0.,
 -0.20424154,-0.17903414,0.,-0.02466545,0.00588682,0.,0.78488942,0.,-0.
 11572601,-0.19790313,0.,-0.08732876,0.00791354,0.,0.03868846,0.5433819
 4,-0.00745327,0.,0.,-0.03799546,0.,0.,0.01182564,0.,0.,0.11842805,0.,-
 0.02466545,-0.00588682,0.,-0.20424154,0.17903414,0.,-0.01159337,0.0052
 8812,0.,0.78488942,0.,0.08732876,0.00791354,0.,0.11572601,-0.19790313,
 0.,-0.00528812,-0.06519482,0.,-0.03868846,0.54338194,0.01078443,0.,0.,
 -0.00342230,0.,0.,-0.05886035,0.,0.,0.00486588,0.,0.,0.13681265,0.,0.0
 7345656,0.02945281,0.,-0.08271796,0.02049336,0.,-0.18155329,0.05270736
 ,0.,-0.01831489,-0.08456133,0.,0.65098393,0.,-0.05119173,-0.07276403,0
 .,0.02851181,-0.02378365,0.,0.12970718,-0.23779910,0.,-0.02235836,0.02
 375736,0.,0.04845411,0.70025217,-0.00342230,0.,0.,0.01078443,0.,0.,0.0
 0486588,0.,0.,-0.05886035,0.,0.,-0.07035860,0.,0.,0.13681265,0.,-0.082
 71796,-0.02049336,0.,0.07345656,-0.02945281,0.,-0.01831489,0.08456133,
 0.,-0.18155329,-0.05270736,0.,-0.30100119,-0.03505429,0.,0.65098393,0.
 ,-0.02851181,-0.02378365,0.,0.05119173,-0.07276403,0.,0.02235836,0.023
 75736,0.,-0.12970718,-0.23779910,0.,0.03505429,-0.12131947,0.,-0.04845
 411,0.70025217,-0.00154336,0.,0.,0.00820785,0.,0.,-0.03712229,0.,0.,-0
 .00027362,0.,0.,0.00342134,0.,0.,0.00980702,0.,0.,0.02428722,0.,-0.011
 01493,-0.00159864,0.,-0.00073418,-0.00183046,0.,-0.34764265,0.00497444
 ,0.,0.00077419,-0.00055324,0.,-0.00929611,-0.00313332,0.,0.00095897,0.
 00265058,0.,0.36698781,0.,-0.02663707,-0.00186844,0.,-0.00383998,0.001
 15635,0.,0.00348445,-0.05527634,0.,-0.00005788,-0.00240852,0.,0.025642
 94,0.00453968,0.,0.00183564,-0.00285748,0.,-0.00075721,0.05538293,0.00
 820785,0.,0.,-0.00154336,0.,0.,-0.00027362,0.,0.,-0.03712229,0.,0.,0.0
 0980702,0.,0.,0.00342134,0.,0.,-0.00289679,0.,0.,0.02428722,0.,-0.0007
 3418,0.00183046,0.,-0.01101493,0.00159864,0.,0.00077419,0.00055324,0.,
 -0.34764265,-0.00497444,0.,0.00095897,-0.00265058,0.,-0.00929611,0.003
 13332,0.,-0.00014459,-0.00009909,0.,0.36698781,0.,0.00383998,0.0011563
 5,0.,0.02663707,-0.00186844,0.,0.00005788,-0.00240852,0.,-0.00348445,-
 0.05527634,0.,-0.00183564,-0.00285748,0.,-0.02564294,0.00453968,0.,0.0
 0009909,0.00031953,0.,0.00075721,0.05538293,0.00341668,0.,0.,0.0045352
 2,0.,0.,0.00408868,0.,0.,0.00249674,0.,0.,-0.03492349,0.,0.,0.00187341
 ,0.,0.,-0.00391139,0.,0.,0.00002401,0.,0.,0.02515657,0.,0.00092514,0.0
 0209288,0.,0.00052404,0.00371624,0.,0.00871746,0.01521606,0.,-0.006369
 89,-0.00106577,0.,-0.12362771,-0.11978743,0.,-0.00888830,-0.02750261,0
 .,0.00056946,-0.00064688,0.,-0.00045798,-0.00107508,0.,0.12828654,0.,-
 0.00010101,-0.00297185,0.,-0.00033626,-0.00275085,0.,-0.01355299,-0.01
 707923,0.,0.00230790,0.00060830,0.,-0.12123888,-0.27401025,0.,0.004169
 01,0.00398478,0.,0.00031370,0.00079702,0.,0.00016493,0.00021527,0.,0.1
 2866310,0.29060341,0.00453522,0.,0.,0.00341668,0.,0.,0.00249674,0.,0.,
 0.00408868,0.,0.,0.00187341,0.,0.,-0.03492349,0.,0.,0.00002401,0.,0.,-
 0.00391139,0.,0.,-0.00275643,0.,0.,0.02515657,0.,0.00052404,-0.0037162
 4,0.,0.00092514,-0.00209288,0.,-0.00636989,0.00106577,0.,0.00871746,-0
 .01521606,0.,-0.00888830,0.02750261,0.,-0.12362771,0.11978743,0.,-0.00
 045798,0.00107508,0.,0.00056946,0.00064688,0.,0.00032124,-0.00038950,0
 .,0.12828654,0.,0.00033626,-0.00275085,0.,0.00010101,-0.00297185,0.,-0
 .00230790,0.00060830,0.,0.01355299,-0.01707923,0.,-0.00416901,0.003984
 78,0.,0.12123888,-0.27401025,0.,-0.00016493,0.00021527,0.,-0.00031370,
 0.00079702,0.,0.00038950,0.00060339,0.,-0.12866310,0.29060341\\0.,-0.0
 0001625,0.00000099,0.,0.00001625,0.00000099,0.,0.00000617,-0.00001407,
 0.,-0.00000617,-0.00001407,0.,0.00000205,0.00000508,0.,-0.00000205,0.0
 0000508,0.,-0.00000167,0.00000506,0.,0.00000167,0.00000506,0.,-0.00000
 185,0.00000294,0.,0.00000185,0.00000294\\\@


 SOME PEOPLE TRY TO PULL THE WOOL OVER YOUR EYES
 USING THE WRONG YARN.
 Job cpu time:       0 days  0 hours 29 minutes 49.7 seconds.
 File lengths (MBytes):  RWF=     32 Int=      0 D2E=      0 Chk=      4 Scr=      1
 Normal termination of Gaussian 09 at Fri Jul  9 19:33:19 2021.
