 Entering Gaussian System, Link 0=g09
 Initial command:
 /home/minenky/programs//g09/l1.exe "/local/scratch/minenky/m1_00_191-07-1-C24H12_wB97XD/Gau-116017.inp" -scrdir="/local/scratch/minenky/m1_00_191-07-1-C24H12_wB97XD/"
 Entering Link 1 = /home/minenky/programs//g09/l1.exe PID=    116018.
  
 Copyright (c) 1988,1990,1992,1993,1995,1998,2003,2009,2013,
            Gaussian, Inc.  All Rights Reserved.
  
 This is part of the Gaussian(R) 09 program.  It is based on
 the Gaussian(R) 03 system (copyright 2003, Gaussian, Inc.),
 the Gaussian(R) 98 system (copyright 1998, Gaussian, Inc.),
 the Gaussian(R) 94 system (copyright 1995, Gaussian, Inc.),
 the Gaussian 92(TM) system (copyright 1992, Gaussian, Inc.),
 the Gaussian 90(TM) system (copyright 1990, Gaussian, Inc.),
 the Gaussian 88(TM) system (copyright 1988, Gaussian, Inc.),
 the Gaussian 86(TM) system (copyright 1986, Carnegie Mellon
 University), and the Gaussian 82(TM) system (copyright 1983,
 Carnegie Mellon University). Gaussian is a federally registered
 trademark of Gaussian, Inc.
  
 This software contains proprietary and confidential information,
 including trade secrets, belonging to Gaussian, Inc.
  
 This software is provided under written license and may be
 used, copied, transmitted, or stored only in accord with that
 written license.
  
 The following legend is applicable only to US Government
 contracts under FAR:
  
                    RESTRICTED RIGHTS LEGEND
  
 Use, reproduction and disclosure by the US Government is
 subject to restrictions as set forth in subparagraphs (a)
 and (c) of the Commercial Computer Software - Restricted
 Rights clause in FAR 52.227-19.
  
 Gaussian, Inc.
 340 Quinnipiac St., Bldg. 40, Wallingford CT 06492
  
  
 ---------------------------------------------------------------
 Warning -- This program may not be used in any manner that
 competes with the business of Gaussian, Inc. or will provide
 assistance to any competitor of Gaussian, Inc.  The licensee
 of this program is prohibited from giving any competitor of
 Gaussian, Inc. access to this program.  By using this program,
 the user acknowledges that Gaussian, Inc. is engaged in the
 business of creating and licensing software in the field of
 computational chemistry and represents and warrants to the
 licensee that it is not a competitor of Gaussian, Inc. and that
 it will not use this program in any manner prohibited above.
 ---------------------------------------------------------------
  

 Cite this work as:
 Gaussian 09, Revision D.01,
 M. J. Frisch, G. W. Trucks, H. B. Schlegel, G. E. Scuseria, 
 M. A. Robb, J. R. Cheeseman, G. Scalmani, V. Barone, B. Mennucci, 
 G. A. Petersson, H. Nakatsuji, M. Caricato, X. Li, H. P. Hratchian, 
 A. F. Izmaylov, J. Bloino, G. Zheng, J. L. Sonnenberg, M. Hada, 
 M. Ehara, K. Toyota, R. Fukuda, J. Hasegawa, M. Ishida, T. Nakajima, 
 Y. Honda, O. Kitao, H. Nakai, T. Vreven, J. A. Montgomery, Jr., 
 J. E. Peralta, F. Ogliaro, M. Bearpark, J. J. Heyd, E. Brothers, 
 K. N. Kudin, V. N. Staroverov, T. Keith, R. Kobayashi, J. Normand, 
 K. Raghavachari, A. Rendell, J. C. Burant, S. S. Iyengar, J. Tomasi, 
 M. Cossi, N. Rega, J. M. Millam, M. Klene, J. E. Knox, J. B. Cross, 
 V. Bakken, C. Adamo, J. Jaramillo, R. Gomperts, R. E. Stratmann, 
 O. Yazyev, A. J. Austin, R. Cammi, C. Pomelli, J. W. Ochterski, 
 R. L. Martin, K. Morokuma, V. G. Zakrzewski, G. A. Voth, 
 P. Salvador, J. J. Dannenberg, S. Dapprich, A. D. Daniels, 
 O. Farkas, J. B. Foresman, J. V. Ortiz, J. Cioslowski, 
 and D. J. Fox, Gaussian, Inc., Wallingford CT, 2013.
 
 ******************************************
 Gaussian 09:  AM64L-G09RevD.01 24-Apr-2013
                12-Jul-2021 
 ******************************************
 %Mem=32000MB
 %NProcShared=16
 Will use up to   16 processors via shared memory.
 %Chk=m1_00_191-07-1-C24H12_wB97XD
 ----------------------------------------------------------------------
 #P wB97XD/def2tzvp geom=checkpoint guess=read freq integral(Grid=ultra
 fine) # SCF(MaxCycle=380) 5d 7f GFPrint
 ----------------------------------------------------------------------
 1/10=4,29=2,30=1,38=1/1,3;
 2/12=2,40=1/2;
 3/5=44,7=101,8=11,11=2,14=-4,16=1,24=100,25=1,30=1,71=2,74=-58,75=-5,116=-2,140=1/1,2,3;
 4/5=1/1;
 5/5=2,7=380,38=6,98=1/2;
 8/6=4,10=90,11=11/1;
 11/6=1,8=1,9=11,15=111,16=1/1,2,10;
 10/6=1/2;
 6/7=2,8=2,9=2,10=2,18=1,28=1/1;
 7/8=1,10=1,25=1/1,2,3,16;
 1/10=4,30=1/3;
 99//99;
 Leave Link    1 at Mon Jul 12 20:44:43 2021, MaxMem=  4194304000 cpu:         1.6
 (Enter /home/minenky/programs//g09/l101.exe)
 ---------------------------------------
 The PBEPBE optimization and frequencies
 ---------------------------------------
 Structure from the checkpoint file:  "m1_00_191-07-1-C24H12_wB97XD.chk"
 Charge =  0 Multiplicity = 1
 Redundant internal coordinates found in file.
 C,0,0.354333932,-1.3763807484,-0.0000209807
 C,0,1.369129694,-0.3813461375,-0.0000107848
 C,0,1.0147922976,0.9950230824,-0.0000094814
 C,0,2.7224815972,-0.758302529,-0.0000085298
 C,0,-1.0147922598,-0.995023103,-0.0000108839
 C,0,0.7045701603,-2.7369262875,-0.0000017699
 C,0,-0.3543339727,1.3763807305,-0.0000124431
 C,0,2.0179067943,1.9785854569,0.0000009103
 C,0,3.7160990081,0.2546660741,-0.000000265
 C,0,3.0493710332,-2.1390654949,-0.0000067646
 C,0,-1.3691297125,0.3813461026,-0.0000159548
 C,0,-2.0179067471,-1.9785854186,0.0000066876
 C,0,-0.3277887889,-3.7103896308,0.0000049687
 C,0,2.0786246315,-3.0909283497,-0.0000053103
 C,0,-0.7045702201,2.7369262851,-0.0000030574
 C,0,1.637490226,3.3455561225,0.0000031976
 C,0,3.377125979,1.5712777317,0.000012413
 C,0,-2.7224815991,0.7583025478,-0.000006211
 C,0,-3.3771259069,-1.571277704,0.0000105016
 C,0,-1.637490223,-3.3455561133,-0.0000029207
 C,0,-2.0786246879,3.090928347,-0.0000068336
 C,0,0.3277887923,3.7103896115,0.0000022035
 C,0,-3.0493710272,2.1390654979,0.0000014188
 C,0,-3.7160990128,-0.2546660539,-0.0000025654
 H,0,4.7588871545,-0.040085362,0.0000009137
 H,0,4.0943706086,-2.4258456552,-0.000003444
 H,0,-0.0536914783,-4.7587909331,0.0000152221
 H,0,2.3447249934,-4.141391478,-0.000001599
 H,0,2.4141645241,4.1012345742,0.0000165449
 H,0,4.147974963,2.3329105039,0.0000207423
 H,0,-4.1479748727,-2.3329105139,0.0000207281
 H,0,-2.4141645201,-4.1012345635,0.0000054344
 H,0,-2.3447250629,4.1413914533,-0.0000101147
 H,0,0.0536914927,4.7587909286,0.0000096954
 H,0,-4.0943705944,2.425845657,0.000003208
 H,0,-4.7588871956,0.0400853696,0.0000061916
 Recover connectivity data from disk.
 NAtoms=     36 NQM=       36 NQMF=       0 NMMI=      0 NMMIF=      0
                NMic=       0 NMicF=      0.
                    Isotopes and Nuclear Properties:
 (Nuclear quadrupole moments (NQMom) in fm**2, nuclear magnetic moments (NMagM)
  in nuclear magnetons)

  Atom         1           2           3           4           5           6           7           8           9          10
 IAtWgt=          12          12          12          12          12          12          12          12          12          12
 AtmWgt=  12.0000000  12.0000000  12.0000000  12.0000000  12.0000000  12.0000000  12.0000000  12.0000000  12.0000000  12.0000000
 NucSpn=           0           0           0           0           0           0           0           0           0           0
 AtZEff=  -3.6000000  -3.6000000  -3.6000000  -3.6000000  -3.6000000  -3.6000000  -3.6000000  -3.6000000  -3.6000000  -3.6000000
 NQMom=    0.0000000   0.0000000   0.0000000   0.0000000   0.0000000   0.0000000   0.0000000   0.0000000   0.0000000   0.0000000
 NMagM=    0.0000000   0.0000000   0.0000000   0.0000000   0.0000000   0.0000000   0.0000000   0.0000000   0.0000000   0.0000000
 AtZNuc=   6.0000000   6.0000000   6.0000000   6.0000000   6.0000000   6.0000000   6.0000000   6.0000000   6.0000000   6.0000000

  Atom        11          12          13          14          15          16          17          18          19          20
 IAtWgt=          12          12          12          12          12          12          12          12          12          12
 AtmWgt=  12.0000000  12.0000000  12.0000000  12.0000000  12.0000000  12.0000000  12.0000000  12.0000000  12.0000000  12.0000000
 NucSpn=           0           0           0           0           0           0           0           0           0           0
 AtZEff=  -3.6000000  -3.6000000  -3.6000000  -3.6000000  -3.6000000  -3.6000000  -3.6000000  -3.6000000  -3.6000000  -3.6000000
 NQMom=    0.0000000   0.0000000   0.0000000   0.0000000   0.0000000   0.0000000   0.0000000   0.0000000   0.0000000   0.0000000
 NMagM=    0.0000000   0.0000000   0.0000000   0.0000000   0.0000000   0.0000000   0.0000000   0.0000000   0.0000000   0.0000000
 AtZNuc=   6.0000000   6.0000000   6.0000000   6.0000000   6.0000000   6.0000000   6.0000000   6.0000000   6.0000000   6.0000000

  Atom        21          22          23          24          25          26          27          28          29          30
 IAtWgt=          12          12          12          12           1           1           1           1           1           1
 AtmWgt=  12.0000000  12.0000000  12.0000000  12.0000000   1.0078250   1.0078250   1.0078250   1.0078250   1.0078250   1.0078250
 NucSpn=           0           0           0           0           1           1           1           1           1           1
 AtZEff=  -3.6000000  -3.6000000  -3.6000000  -3.6000000  -1.0000000  -1.0000000  -1.0000000  -1.0000000  -1.0000000  -1.0000000
 NQMom=    0.0000000   0.0000000   0.0000000   0.0000000   0.0000000   0.0000000   0.0000000   0.0000000   0.0000000   0.0000000
 NMagM=    0.0000000   0.0000000   0.0000000   0.0000000   2.7928460   2.7928460   2.7928460   2.7928460   2.7928460   2.7928460
 AtZNuc=   6.0000000   6.0000000   6.0000000   6.0000000   1.0000000   1.0000000   1.0000000   1.0000000   1.0000000   1.0000000

  Atom        31          32          33          34          35          36
 IAtWgt=           1           1           1           1           1           1
 AtmWgt=   1.0078250   1.0078250   1.0078250   1.0078250   1.0078250   1.0078250
 NucSpn=           1           1           1           1           1           1
 AtZEff=  -1.0000000  -1.0000000  -1.0000000  -1.0000000  -1.0000000  -1.0000000
 NQMom=    0.0000000   0.0000000   0.0000000   0.0000000   0.0000000   0.0000000
 NMagM=    2.7928460   2.7928460   2.7928460   2.7928460   2.7928460   2.7928460
 AtZNuc=   1.0000000   1.0000000   1.0000000   1.0000000   1.0000000   1.0000000
 Leave Link  101 at Mon Jul 12 20:44:43 2021, MaxMem=  4194304000 cpu:         1.2
 (Enter /home/minenky/programs//g09/l103.exe)

 GradGradGradGradGradGradGradGradGradGradGradGradGradGradGradGradGradGrad
 Berny optimization.
 Initialization pass.
                           ----------------------------
                           !    Initial Parameters    !
                           ! (Angstroms and Degrees)  !
 --------------------------                            --------------------------
 ! Name  Definition              Value          Derivative Info.                !
 --------------------------------------------------------------------------------
 ! R1    R(1,2)                  1.4212         calculate D2E/DX2 analytically  !
 ! R2    R(1,5)                  1.4212         calculate D2E/DX2 analytically  !
 ! R3    R(1,6)                  1.4049         calculate D2E/DX2 analytically  !
 ! R4    R(2,3)                  1.4212         calculate D2E/DX2 analytically  !
 ! R5    R(2,4)                  1.4049         calculate D2E/DX2 analytically  !
 ! R6    R(3,7)                  1.4212         calculate D2E/DX2 analytically  !
 ! R7    R(3,8)                  1.4049         calculate D2E/DX2 analytically  !
 ! R8    R(4,9)                  1.4189         calculate D2E/DX2 analytically  !
 ! R9    R(4,10)                 1.4189         calculate D2E/DX2 analytically  !
 ! R10   R(5,11)                 1.4212         calculate D2E/DX2 analytically  !
 ! R11   R(5,12)                 1.4049         calculate D2E/DX2 analytically  !
 ! R12   R(6,13)                 1.4189         calculate D2E/DX2 analytically  !
 ! R13   R(6,14)                 1.4189         calculate D2E/DX2 analytically  !
 ! R14   R(7,11)                 1.4212         calculate D2E/DX2 analytically  !
 ! R15   R(7,15)                 1.4049         calculate D2E/DX2 analytically  !
 ! R16   R(8,16)                 1.4189         calculate D2E/DX2 analytically  !
 ! R17   R(8,17)                 1.4189         calculate D2E/DX2 analytically  !
 ! R18   R(9,17)                 1.3595         calculate D2E/DX2 analytically  !
 ! R19   R(9,25)                 1.0836         calculate D2E/DX2 analytically  !
 ! R20   R(10,14)                1.3596         calculate D2E/DX2 analytically  !
 ! R21   R(10,26)                1.0836         calculate D2E/DX2 analytically  !
 ! R22   R(11,18)                1.4049         calculate D2E/DX2 analytically  !
 ! R23   R(12,19)                1.4189         calculate D2E/DX2 analytically  !
 ! R24   R(12,20)                1.4189         calculate D2E/DX2 analytically  !
 ! R25   R(13,20)                1.3596         calculate D2E/DX2 analytically  !
 ! R26   R(13,27)                1.0836         calculate D2E/DX2 analytically  !
 ! R27   R(14,28)                1.0836         calculate D2E/DX2 analytically  !
 ! R28   R(15,21)                1.4189         calculate D2E/DX2 analytically  !
 ! R29   R(15,22)                1.4189         calculate D2E/DX2 analytically  !
 ! R30   R(16,22)                1.3596         calculate D2E/DX2 analytically  !
 ! R31   R(16,29)                1.0836         calculate D2E/DX2 analytically  !
 ! R32   R(17,30)                1.0836         calculate D2E/DX2 analytically  !
 ! R33   R(18,23)                1.4189         calculate D2E/DX2 analytically  !
 ! R34   R(18,24)                1.4189         calculate D2E/DX2 analytically  !
 ! R35   R(19,24)                1.3595         calculate D2E/DX2 analytically  !
 ! R36   R(19,31)                1.0836         calculate D2E/DX2 analytically  !
 ! R37   R(20,32)                1.0836         calculate D2E/DX2 analytically  !
 ! R38   R(21,23)                1.3596         calculate D2E/DX2 analytically  !
 ! R39   R(21,33)                1.0836         calculate D2E/DX2 analytically  !
 ! R40   R(22,34)                1.0836         calculate D2E/DX2 analytically  !
 ! R41   R(23,35)                1.0836         calculate D2E/DX2 analytically  !
 ! R42   R(24,36)                1.0836         calculate D2E/DX2 analytically  !
 ! A1    A(2,1,5)              119.9986         calculate D2E/DX2 analytically  !
 ! A2    A(2,1,6)              120.0008         calculate D2E/DX2 analytically  !
 ! A3    A(5,1,6)              120.0005         calculate D2E/DX2 analytically  !
 ! A4    A(1,2,3)              119.9997         calculate D2E/DX2 analytically  !
 ! A5    A(1,2,4)              119.9989         calculate D2E/DX2 analytically  !
 ! A6    A(3,2,4)              120.0013         calculate D2E/DX2 analytically  !
 ! A7    A(2,3,7)              120.0016         calculate D2E/DX2 analytically  !
 ! A8    A(2,3,8)              119.9992         calculate D2E/DX2 analytically  !
 ! A9    A(7,3,8)              119.9992         calculate D2E/DX2 analytically  !
 ! A10   A(2,4,9)              118.8831         calculate D2E/DX2 analytically  !
 ! A11   A(2,4,10)             118.8837         calculate D2E/DX2 analytically  !
 ! A12   A(9,4,10)             122.2332         calculate D2E/DX2 analytically  !
 ! A13   A(1,5,11)             120.0016         calculate D2E/DX2 analytically  !
 ! A14   A(1,5,12)             119.9992         calculate D2E/DX2 analytically  !
 ! A15   A(11,5,12)            119.9992         calculate D2E/DX2 analytically  !
 ! A16   A(1,6,13)             118.8823         calculate D2E/DX2 analytically  !
 ! A17   A(1,6,14)             118.883          calculate D2E/DX2 analytically  !
 ! A18   A(13,6,14)            122.2347         calculate D2E/DX2 analytically  !
 ! A19   A(3,7,11)             119.9986         calculate D2E/DX2 analytically  !
 ! A20   A(3,7,15)             120.0005         calculate D2E/DX2 analytically  !
 ! A21   A(11,7,15)            120.0008         calculate D2E/DX2 analytically  !
 ! A22   A(3,8,16)             118.8847         calculate D2E/DX2 analytically  !
 ! A23   A(3,8,17)             118.8823         calculate D2E/DX2 analytically  !
 ! A24   A(16,8,17)            122.233          calculate D2E/DX2 analytically  !
 ! A25   A(4,9,17)             121.1148         calculate D2E/DX2 analytically  !
 ! A26   A(4,9,25)             118.6641         calculate D2E/DX2 analytically  !
 ! A27   A(17,9,25)            120.2211         calculate D2E/DX2 analytically  !
 ! A28   A(4,10,14)            121.118          calculate D2E/DX2 analytically  !
 ! A29   A(4,10,26)            118.6652         calculate D2E/DX2 analytically  !
 ! A30   A(14,10,26)           120.2168         calculate D2E/DX2 analytically  !
 ! A31   A(5,11,7)             119.9997         calculate D2E/DX2 analytically  !
 ! A32   A(5,11,18)            120.0013         calculate D2E/DX2 analytically  !
 ! A33   A(7,11,18)            119.9989         calculate D2E/DX2 analytically  !
 ! A34   A(5,12,19)            118.8823         calculate D2E/DX2 analytically  !
 ! A35   A(5,12,20)            118.8847         calculate D2E/DX2 analytically  !
 ! A36   A(19,12,20)           122.233          calculate D2E/DX2 analytically  !
 ! A37   A(6,13,20)            121.116          calculate D2E/DX2 analytically  !
 ! A38   A(6,13,27)            118.6665         calculate D2E/DX2 analytically  !
 ! A39   A(20,13,27)           120.2175         calculate D2E/DX2 analytically  !
 ! A40   A(6,14,10)            121.1156         calculate D2E/DX2 analytically  !
 ! A41   A(6,14,28)            118.6621         calculate D2E/DX2 analytically  !
 ! A42   A(10,14,28)           120.2223         calculate D2E/DX2 analytically  !
 ! A43   A(7,15,21)            118.883          calculate D2E/DX2 analytically  !
 ! A44   A(7,15,22)            118.8823         calculate D2E/DX2 analytically  !
 ! A45   A(21,15,22)           122.2347         calculate D2E/DX2 analytically  !
 ! A46   A(8,16,22)            121.1173         calculate D2E/DX2 analytically  !
 ! A47   A(8,16,29)            118.6636         calculate D2E/DX2 analytically  !
 ! A48   A(22,16,29)           120.2192         calculate D2E/DX2 analytically  !
 ! A49   A(8,17,9)             121.1193         calculate D2E/DX2 analytically  !
 ! A50   A(8,17,30)            118.663          calculate D2E/DX2 analytically  !
 ! A51   A(9,17,30)            120.2177         calculate D2E/DX2 analytically  !
 ! A52   A(11,18,23)           118.8837         calculate D2E/DX2 analytically  !
 ! A53   A(11,18,24)           118.8831         calculate D2E/DX2 analytically  !
 ! A54   A(23,18,24)           122.2332         calculate D2E/DX2 analytically  !
 ! A55   A(12,19,24)           121.1193         calculate D2E/DX2 analytically  !
 ! A56   A(12,19,31)           118.663          calculate D2E/DX2 analytically  !
 ! A57   A(24,19,31)           120.2177         calculate D2E/DX2 analytically  !
 ! A58   A(12,20,13)           121.1173         calculate D2E/DX2 analytically  !
 ! A59   A(12,20,32)           118.6636         calculate D2E/DX2 analytically  !
 ! A60   A(13,20,32)           120.2192         calculate D2E/DX2 analytically  !
 ! A61   A(15,21,23)           121.1156         calculate D2E/DX2 analytically  !
 ! A62   A(15,21,33)           118.6621         calculate D2E/DX2 analytically  !
 ! A63   A(23,21,33)           120.2223         calculate D2E/DX2 analytically  !
 ! A64   A(15,22,16)           121.116          calculate D2E/DX2 analytically  !
 ! A65   A(15,22,34)           118.6665         calculate D2E/DX2 analytically  !
 ! A66   A(16,22,34)           120.2175         calculate D2E/DX2 analytically  !
 ! A67   A(18,23,21)           121.118          calculate D2E/DX2 analytically  !
 ! A68   A(18,23,35)           118.6652         calculate D2E/DX2 analytically  !
 ! A69   A(21,23,35)           120.2168         calculate D2E/DX2 analytically  !
 ! A70   A(18,24,19)           121.1148         calculate D2E/DX2 analytically  !
 ! A71   A(18,24,36)           118.6641         calculate D2E/DX2 analytically  !
 ! A72   A(19,24,36)           120.2211         calculate D2E/DX2 analytically  !
 ! D1    D(5,1,2,3)             -0.0009         calculate D2E/DX2 analytically  !
 ! D2    D(5,1,2,4)            179.9994         calculate D2E/DX2 analytically  !
 ! D3    D(6,1,2,3)           -179.999          calculate D2E/DX2 analytically  !
 ! D4    D(6,1,2,4)              0.0013         calculate D2E/DX2 analytically  !
 ! D5    D(2,1,5,11)             0.0012         calculate D2E/DX2 analytically  !
 ! D6    D(2,1,5,12)          -179.9987         calculate D2E/DX2 analytically  !
 ! D7    D(6,1,5,11)           179.9993         calculate D2E/DX2 analytically  !
 ! D8    D(6,1,5,12)            -0.0005         calculate D2E/DX2 analytically  !
 ! D9    D(2,1,6,13)           179.9992         calculate D2E/DX2 analytically  !
 ! D10   D(2,1,6,14)            -0.0015         calculate D2E/DX2 analytically  !
 ! D11   D(5,1,6,13)             0.001          calculate D2E/DX2 analytically  !
 ! D12   D(5,1,6,14)          -179.9997         calculate D2E/DX2 analytically  !
 ! D13   D(1,2,3,7)              0.0003         calculate D2E/DX2 analytically  !
 ! D14   D(1,2,3,8)            180.0            calculate D2E/DX2 analytically  !
 ! D15   D(4,2,3,7)            180.0            calculate D2E/DX2 analytically  !
 ! D16   D(4,2,3,8)             -0.0003         calculate D2E/DX2 analytically  !
 ! D17   D(1,2,4,9)            179.9999         calculate D2E/DX2 analytically  !
 ! D18   D(1,2,4,10)            -0.0005         calculate D2E/DX2 analytically  !
 ! D19   D(3,2,4,9)              0.0002         calculate D2E/DX2 analytically  !
 ! D20   D(3,2,4,10)           179.9999         calculate D2E/DX2 analytically  !
 ! D21   D(2,3,7,11)             0.0            calculate D2E/DX2 analytically  !
 ! D22   D(2,3,7,15)           179.9996         calculate D2E/DX2 analytically  !
 ! D23   D(8,3,7,11)          -179.9997         calculate D2E/DX2 analytically  !
 ! D24   D(8,3,7,15)            -0.0001         calculate D2E/DX2 analytically  !
 ! D25   D(2,3,8,16)          -179.9999         calculate D2E/DX2 analytically  !
 ! D26   D(2,3,8,17)            -0.0001         calculate D2E/DX2 analytically  !
 ! D27   D(7,3,8,16)            -0.0002         calculate D2E/DX2 analytically  !
 ! D28   D(7,3,8,17)           179.9996         calculate D2E/DX2 analytically  !
 ! D29   D(2,4,9,17)             0.0003         calculate D2E/DX2 analytically  !
 ! D30   D(2,4,9,25)          -180.0            calculate D2E/DX2 analytically  !
 ! D31   D(10,4,9,17)         -179.9993         calculate D2E/DX2 analytically  !
 ! D32   D(10,4,9,25)            0.0004         calculate D2E/DX2 analytically  !
 ! D33   D(2,4,10,14)           -0.0001         calculate D2E/DX2 analytically  !
 ! D34   D(2,4,10,26)         -179.9999         calculate D2E/DX2 analytically  !
 ! D35   D(9,4,10,14)          179.9995         calculate D2E/DX2 analytically  !
 ! D36   D(9,4,10,26)           -0.0003         calculate D2E/DX2 analytically  !
 ! D37   D(1,5,11,7)            -0.0009         calculate D2E/DX2 analytically  !
 ! D38   D(1,5,11,18)          180.0            calculate D2E/DX2 analytically  !
 ! D39   D(12,5,11,7)          179.999          calculate D2E/DX2 analytically  !
 ! D40   D(12,5,11,18)          -0.0001         calculate D2E/DX2 analytically  !
 ! D41   D(1,5,12,19)         -179.9997         calculate D2E/DX2 analytically  !
 ! D42   D(1,5,12,20)           -0.0008         calculate D2E/DX2 analytically  !
 ! D43   D(11,5,12,19)           0.0004         calculate D2E/DX2 analytically  !
 ! D44   D(11,5,12,20)         179.9993         calculate D2E/DX2 analytically  !
 ! D45   D(1,6,13,20)           -0.0002         calculate D2E/DX2 analytically  !
 ! D46   D(1,6,13,27)          179.9997         calculate D2E/DX2 analytically  !
 ! D47   D(14,6,13,20)        -179.9994         calculate D2E/DX2 analytically  !
 ! D48   D(14,6,13,27)           0.0005         calculate D2E/DX2 analytically  !
 ! D49   D(1,6,14,10)            0.001          calculate D2E/DX2 analytically  !
 ! D50   D(1,6,14,28)         -179.9993         calculate D2E/DX2 analytically  !
 ! D51   D(13,6,14,10)        -179.9998         calculate D2E/DX2 analytically  !
 ! D52   D(13,6,14,28)          -0.0001         calculate D2E/DX2 analytically  !
 ! D53   D(3,7,11,5)             0.0003         calculate D2E/DX2 analytically  !
 ! D54   D(3,7,11,18)          179.9994         calculate D2E/DX2 analytically  !
 ! D55   D(15,7,11,5)         -179.9993         calculate D2E/DX2 analytically  !
 ! D56   D(15,7,11,18)          -0.0002         calculate D2E/DX2 analytically  !
 ! D57   D(3,7,15,21)          180.0            calculate D2E/DX2 analytically  !
 ! D58   D(3,7,15,22)            0.0003         calculate D2E/DX2 analytically  !
 ! D59   D(11,7,15,21)          -0.0004         calculate D2E/DX2 analytically  !
 ! D60   D(11,7,15,22)         179.9999         calculate D2E/DX2 analytically  !
 ! D61   D(3,8,16,22)            0.0003         calculate D2E/DX2 analytically  !
 ! D62   D(3,8,16,29)          179.9997         calculate D2E/DX2 analytically  !
 ! D63   D(17,8,16,22)        -179.9995         calculate D2E/DX2 analytically  !
 ! D64   D(17,8,16,29)          -0.0001         calculate D2E/DX2 analytically  !
 ! D65   D(3,8,17,9)             0.0007         calculate D2E/DX2 analytically  !
 ! D66   D(3,8,17,30)         -180.0            calculate D2E/DX2 analytically  !
 ! D67   D(16,8,17,9)         -179.9995         calculate D2E/DX2 analytically  !
 ! D68   D(16,8,17,30)          -0.0002         calculate D2E/DX2 analytically  !
 ! D69   D(4,9,17,8)            -0.0008         calculate D2E/DX2 analytically  !
 ! D70   D(4,9,17,30)          179.9999         calculate D2E/DX2 analytically  !
 ! D71   D(25,9,17,8)          179.9995         calculate D2E/DX2 analytically  !
 ! D72   D(25,9,17,30)           0.0002         calculate D2E/DX2 analytically  !
 ! D73   D(4,10,14,6)           -0.0002         calculate D2E/DX2 analytically  !
 ! D74   D(4,10,14,28)        -179.9999         calculate D2E/DX2 analytically  !
 ! D75   D(26,10,14,6)         179.9996         calculate D2E/DX2 analytically  !
 ! D76   D(26,10,14,28)          0.0            calculate D2E/DX2 analytically  !
 ! D77   D(5,11,18,23)         179.9994         calculate D2E/DX2 analytically  !
 ! D78   D(5,11,18,24)          -0.0005         calculate D2E/DX2 analytically  !
 ! D79   D(7,11,18,23)           0.0003         calculate D2E/DX2 analytically  !
 ! D80   D(7,11,18,24)        -179.9997         calculate D2E/DX2 analytically  !
 ! D81   D(5,12,19,24)           0.0            calculate D2E/DX2 analytically  !
 ! D82   D(5,12,19,31)         179.9998         calculate D2E/DX2 analytically  !
 ! D83   D(20,12,19,24)       -179.9989         calculate D2E/DX2 analytically  !
 ! D84   D(20,12,19,31)          0.0009         calculate D2E/DX2 analytically  !
 ! D85   D(5,12,20,13)           0.0017         calculate D2E/DX2 analytically  !
 ! D86   D(5,12,20,32)        -179.9997         calculate D2E/DX2 analytically  !
 ! D87   D(19,12,20,13)       -179.9994         calculate D2E/DX2 analytically  !
 ! D88   D(19,12,20,32)         -0.0008         calculate D2E/DX2 analytically  !
 ! D89   D(6,13,20,12)          -0.0012         calculate D2E/DX2 analytically  !
 ! D90   D(6,13,20,32)        -179.9998         calculate D2E/DX2 analytically  !
 ! D91   D(27,13,20,12)        179.9989         calculate D2E/DX2 analytically  !
 ! D92   D(27,13,20,32)          0.0003         calculate D2E/DX2 analytically  !
 ! D93   D(7,15,21,23)           0.001          calculate D2E/DX2 analytically  !
 ! D94   D(7,15,21,33)        -179.9994         calculate D2E/DX2 analytically  !
 ! D95   D(22,15,21,23)       -179.9993         calculate D2E/DX2 analytically  !
 ! D96   D(22,15,21,33)          0.0003         calculate D2E/DX2 analytically  !
 ! D97   D(7,15,22,16)          -0.0002         calculate D2E/DX2 analytically  !
 ! D98   D(7,15,22,34)        -180.0            calculate D2E/DX2 analytically  !
 ! D99   D(21,15,22,16)       -179.9999         calculate D2E/DX2 analytically  !
 ! D100  D(21,15,22,34)          0.0004         calculate D2E/DX2 analytically  !
 ! D101  D(8,16,22,15)          -0.0001         calculate D2E/DX2 analytically  !
 ! D102  D(8,16,22,34)         179.9997         calculate D2E/DX2 analytically  !
 ! D103  D(29,16,22,15)       -179.9994         calculate D2E/DX2 analytically  !
 ! D104  D(29,16,22,34)          0.0003         calculate D2E/DX2 analytically  !
 ! D105  D(11,18,23,21)          0.0003         calculate D2E/DX2 analytically  !
 ! D106  D(11,18,23,35)        179.9997         calculate D2E/DX2 analytically  !
 ! D107  D(24,18,23,21)       -179.9998         calculate D2E/DX2 analytically  !
 ! D108  D(24,18,23,35)         -0.0004         calculate D2E/DX2 analytically  !
 ! D109  D(11,18,24,19)          0.0009         calculate D2E/DX2 analytically  !
 ! D110  D(11,18,24,36)        179.9999         calculate D2E/DX2 analytically  !
 ! D111  D(23,18,24,19)       -179.999          calculate D2E/DX2 analytically  !
 ! D112  D(23,18,24,36)          0.0            calculate D2E/DX2 analytically  !
 ! D113  D(12,19,24,18)         -0.0007         calculate D2E/DX2 analytically  !
 ! D114  D(12,19,24,36)       -179.9997         calculate D2E/DX2 analytically  !
 ! D115  D(31,19,24,18)        179.9995         calculate D2E/DX2 analytically  !
 ! D116  D(31,19,24,36)          0.0006         calculate D2E/DX2 analytically  !
 ! D117  D(15,21,23,18)         -0.001          calculate D2E/DX2 analytically  !
 ! D118  D(15,21,23,35)        179.9997         calculate D2E/DX2 analytically  !
 ! D119  D(33,21,23,18)        179.9994         calculate D2E/DX2 analytically  !
 ! D120  D(33,21,23,35)          0.0001         calculate D2E/DX2 analytically  !
 --------------------------------------------------------------------------------
 Trust Radius=3.00D-01 FncErr=1.00D-07 GrdErr=1.00D-07
 Number of steps in this run=      2 maximum allowed number of steps=      2.
 GradGradGradGradGradGradGradGradGradGradGradGradGradGradGradGradGradGrad

 Leave Link  103 at Mon Jul 12 20:44:44 2021, MaxMem=  4194304000 cpu:         0.0
 (Enter /home/minenky/programs//g09/l202.exe)
                          Input orientation:                          
 ---------------------------------------------------------------------
 Center     Atomic      Atomic             Coordinates (Angstroms)
 Number     Number       Type             X           Y           Z
 ---------------------------------------------------------------------
      1          6           0        0.354334   -1.376381   -0.000021
      2          6           0        1.369130   -0.381346   -0.000011
      3          6           0        1.014792    0.995023   -0.000009
      4          6           0        2.722482   -0.758303   -0.000009
      5          6           0       -1.014792   -0.995023   -0.000011
      6          6           0        0.704570   -2.736926   -0.000002
      7          6           0       -0.354334    1.376381   -0.000012
      8          6           0        2.017907    1.978585    0.000001
      9          6           0        3.716099    0.254666    0.000000
     10          6           0        3.049371   -2.139065   -0.000007
     11          6           0       -1.369130    0.381346   -0.000016
     12          6           0       -2.017907   -1.978585    0.000007
     13          6           0       -0.327789   -3.710390    0.000005
     14          6           0        2.078625   -3.090928   -0.000005
     15          6           0       -0.704570    2.736926   -0.000003
     16          6           0        1.637490    3.345556    0.000003
     17          6           0        3.377126    1.571278    0.000012
     18          6           0       -2.722482    0.758303   -0.000006
     19          6           0       -3.377126   -1.571278    0.000011
     20          6           0       -1.637490   -3.345556   -0.000003
     21          6           0       -2.078625    3.090928   -0.000007
     22          6           0        0.327789    3.710390    0.000002
     23          6           0       -3.049371    2.139065    0.000001
     24          6           0       -3.716099   -0.254666   -0.000003
     25          1           0        4.758887   -0.040085    0.000001
     26          1           0        4.094371   -2.425846   -0.000003
     27          1           0       -0.053691   -4.758791    0.000015
     28          1           0        2.344725   -4.141391   -0.000002
     29          1           0        2.414165    4.101235    0.000017
     30          1           0        4.147975    2.332911    0.000021
     31          1           0       -4.147975   -2.332911    0.000021
     32          1           0       -2.414165   -4.101235    0.000005
     33          1           0       -2.344725    4.141391   -0.000010
     34          1           0        0.053691    4.758791    0.000010
     35          1           0       -4.094371    2.425846    0.000003
     36          1           0       -4.758887    0.040085    0.000006
 ---------------------------------------------------------------------
                    Distance matrix (angstroms):
                    1          2          3          4          5
     1  C    0.000000
     2  C    1.421233   0.000000
     3  C    2.461658   1.421248   0.000000
     4  C    2.447477   1.404869   2.447520   0.000000
     5  C    1.421246   2.461642   2.842446   3.744763   0.000000
     6  C    1.404902   2.447529   3.744821   2.826114   2.447536
     7  C    2.842518   2.461693   1.421246   3.744819   2.461658
     8  C    3.744766   2.447486   1.404861   2.826125   4.247306
     9  C    3.736546   2.431620   2.800926   1.418937   4.893164
    10  C    2.800877   2.431623   3.736579   1.418930   4.222115
    11  C    2.461693   2.842493   2.461642   4.247362   1.421248
    12  C    2.447484   3.744755   4.247306   4.894933   1.404861
    13  C    2.431643   3.736584   4.893203   4.244875   2.800926
    14  C    2.431636   2.800932   4.222172   2.419854   3.736582
    15  C    4.247420   3.744844   2.447536   4.895029   3.744821
    16  C    4.893177   3.736552   2.431616   4.244863   5.086770
    17  C    4.222080   2.800855   2.431602   2.419815   5.086732
    18  C    3.744819   4.247362   3.744763   5.652231   2.447520
    19  C    3.736546   4.893146   5.086732   6.153547   2.431602
    20  C    2.800895   4.222121   5.086770   5.069836   2.431616
    21  C    5.086859   4.893230   3.736582   6.153633   4.222172
    22  C    5.086840   4.222167   2.800926   5.069888   4.893203
    23  C    4.893217   5.086809   4.222115   6.458252   3.736579
    24  C    4.222164   5.086806   4.893164   6.458248   2.800926
    25  H    4.602801   3.406892   3.884546   2.159348   5.852118
    26  H    3.884489   3.406892   4.602841   2.159347   5.305733
    27  H    3.406932   4.602873   5.852182   4.869399   3.884542
    28  H    3.406896   3.884550   5.305796   3.404114   4.602824
    29  H    5.852108   4.602785   3.406874   4.869308   6.142441
    30  H    5.305710   3.884478   3.406872   3.404061   6.142419
    31  H    4.602796   5.852098   6.142419   7.048586   3.406872
    32  H    3.884509   5.305741   6.142441   6.128648   3.406874
    33  H    6.142534   5.852168   4.602824   7.048658   5.305796
    34  H    6.142533   5.305788   3.884542   6.128683   5.852182
    35  H    5.852170   6.142488   5.305733   7.523847   4.602841
    36  H    5.305790   6.142491   5.852118   7.523849   3.884546
                    6          7          8          9         10
     6  C    0.000000
     7  C    4.247420   0.000000
     8  C    4.894988   2.447484   0.000000
     9  C    4.244871   4.222164   2.419867   0.000000
    10  C    2.419820   4.893217   4.244875   2.484849   0.000000
    11  C    3.744844   1.421233   3.744755   5.086806   5.086809
    12  C    2.826121   3.744766   5.652167   6.153555   5.069818
    13  C    1.418942   5.086840   6.153595   5.663453   3.724818
    14  C    1.418923   5.086859   5.069877   3.724825   1.359556
    15  C    5.652322   1.404902   2.826121   5.069905   6.153647
    16  C    6.153611   2.800895   1.418917   3.724811   5.663434
    17  C    5.069830   3.736546   1.418935   1.359547   3.724791
    18  C    4.895029   2.447477   4.894933   6.458248   6.458252
    19  C    4.244877   4.222080   6.458166   7.324473   6.451531
    20  C    2.419851   4.893177   6.458205   6.451552   4.839658
    21  C    6.458333   2.431636   4.244865   6.451605   7.324560
    22  C    6.458316   2.431643   2.419844   4.839697   6.451599
    23  C    6.153647   2.800877   5.069818   7.023001   7.449635
    24  C    5.069905   3.736546   6.153555   7.449630   7.023001
    25  H    4.869336   5.305790   3.404116   1.083645   2.707058
    26  H    3.404044   5.852170   4.869365   2.707071   1.083636
    27  H    2.159374   6.142533   7.048671   6.272645   4.061029
    28  H    2.159312   6.142534   6.128697   4.604996   2.122695
    29  H    7.048628   3.884509   2.159319   4.060926   6.272546
    30  H    6.128644   4.602796   2.159337   2.122644   4.604943
    31  H    4.869335   5.305709   7.523769   8.278841   7.199956
    32  H    3.404092   5.852108   7.523793   7.520239   5.805198
    33  H    7.523926   3.406896   4.869321   7.200015   8.278914
    34  H    7.523923   3.406932   3.404069   5.805202   7.520274
    35  H    7.048691   3.884488   6.128619   8.106630   8.477704
    36  H    6.128716   4.602801   7.048597   8.477702   8.106639
                   11         12         13         14         15
    11  C    0.000000
    12  C    2.447486   0.000000
    13  C    4.222167   2.419844   0.000000
    14  C    4.893230   4.244865   2.484866   0.000000
    15  C    2.447529   4.894988   6.458316   6.458333   0.000000
    16  C    4.222121   6.458205   7.324527   6.451584   2.419851
    17  C    4.893146   6.458166   6.451543   4.839656   4.244877
    18  C    1.404869   2.826125   5.069888   6.153633   2.826114
    19  C    2.800855   1.418935   3.724816   5.663440   5.069830
    20  C    3.736552   1.418917   1.359567   3.724828   6.153611
    21  C    2.800932   5.069877   7.023059   7.449703   1.418923
    22  C    3.736584   6.153594   7.449681   7.023059   1.418942
    23  C    2.431623   4.244875   6.451599   7.324560   2.419820
    24  C    2.431620   2.419867   4.839697   6.451605   4.244871
    25  H    6.142491   7.048597   6.272592   4.060967   6.128716
    26  H    6.142488   6.128619   4.604948   2.122632   7.048691
    27  H    5.305788   3.404069   1.083640   2.707127   7.523923
    28  H    5.852168   4.869321   2.707045   1.083643   7.523926
    29  H    5.305741   7.523793   8.278876   7.199986   3.404092
    30  H    5.852098   7.523769   7.520235   5.805191   4.869335
    31  H    3.884478   2.159337   4.060945   6.272570   6.128644
    32  H    4.602785   2.159319   2.122669   4.604983   7.048628
    33  H    3.884550   6.128697   8.106695   8.477763   2.159312
    34  H    4.602873   7.048671   8.477768   8.106691   2.159374
    35  H    3.406892   4.869365   7.200036   8.278929   3.404044
    36  H    3.406892   3.404116   5.805230   7.520294   4.869336
                   16         17         18         19         20
    16  C    0.000000
    17  C    2.484833   0.000000
    18  C    5.069836   6.153547   0.000000
    19  C    7.022936   7.449535   2.419815   0.000000
    20  C    7.449596   7.022936   4.244863   2.484833   0.000000
    21  C    3.724828   5.663440   2.419854   4.839656   6.451584
    22  C    1.359567   3.724816   4.244875   6.451543   7.324527
    23  C    4.839658   6.451531   1.418930   3.724791   5.663434
    24  C    6.451552   7.324473   1.418937   1.359547   3.724811
    25  H    4.604963   2.122676   7.523849   8.278844   7.199985
    26  H    6.272586   4.060965   7.523847   7.520209   5.805178
    27  H    8.278921   7.200019   6.128683   4.604938   2.122652
    28  H    7.520277   5.805208   7.048658   6.272564   4.060959
    29  H    1.083639   2.707024   6.128648   8.106568   8.477653
    30  H    2.707025   1.083648   7.048586   8.477607   8.106577
    31  H    8.106577   8.477607   3.404061   1.083648   2.707025
    32  H    8.477653   8.106568   4.869308   2.707024   1.083639
    33  H    4.060960   6.272564   3.404114   5.805208   7.520277
    34  H    2.122652   4.604938   4.869399   7.200019   8.278921
    35  H    5.805178   7.520209   2.159347   4.060965   6.272586
    36  H    7.199985   8.278844   2.159348   2.122676   4.604963
                   21         22         23         24         25
    21  C    0.000000
    22  C    2.484866   0.000000
    23  C    1.359556   3.724818   0.000000
    24  C    3.724825   5.663453   2.484849   0.000000
    25  H    7.520294   5.805230   8.106639   8.477702   0.000000
    26  H    8.278929   7.200036   8.477704   8.106630   2.476577
    27  H    8.106692   8.477768   7.520274   5.805202   6.739963
    28  H    8.477763   8.106695   8.278914   7.200015   4.759085
    29  H    4.604984   2.122669   5.805198   7.520239   4.759018
    30  H    6.272570   4.060945   7.199956   8.278841   2.450372
    31  H    5.805191   7.520235   4.604943   2.122644   9.197241
    32  H    7.199986   8.278876   6.272546   4.060926   8.242912
    33  H    1.083643   2.707045   2.122695   4.604996   8.242940
    34  H    2.707127   1.083640   4.061029   6.272645   6.720720
    35  H    2.122632   4.604948   1.083636   2.707071   9.190266
    36  H    4.060967   6.272592   2.707058   1.083645   9.518112
                   26         27         28         29         30
    26  H    0.000000
    27  H    4.759102   0.000000
    28  H    2.450379   2.476607   0.000000
    29  H    6.739872   9.197302   8.242919   0.000000
    30  H    4.759058   8.242950   6.720736   2.476503   0.000000
    31  H    8.242869   4.758997   6.739863   9.190207   9.518018
    32  H    6.720711   2.450350   4.759059   9.518049   9.190207
    33  H    9.197312   9.190325   9.518163   4.759059   6.739863
    34  H    8.242942   9.518188   9.190325   2.450350   4.758997
    35  H    9.518109   8.242942   9.197312   6.720711   8.242869
    36  H    9.190266   6.720720   8.242940   8.242912   9.197241
                   31         32         33         34         35
    31  H    0.000000
    32  H    2.476503   0.000000
    33  H    6.720736   8.242919   0.000000
    34  H    8.242950   9.197302   2.476607   0.000000
    35  H    4.759058   6.739872   2.450379   4.759102   0.000000
    36  H    2.450372   4.759018   4.759085   6.739963   2.476577
                   36
    36  H    0.000000
 Stoichiometry    C24H12
 Framework group  C1[X(C24H12)]
 Deg. of freedom   102
 Full point group                 C1      NOp   1
 RotChk:  IX=3 Diff= 7.36D-12
 Largest Abelian subgroup         C1      NOp   1
 Largest concise Abelian subgroup C1      NOp   1
                         Standard orientation:                         
 ---------------------------------------------------------------------
 Center     Atomic      Atomic             Coordinates (Angstroms)
 Number     Number       Type             X           Y           Z
 ---------------------------------------------------------------------
      1          6           0       -1.380043    0.339789   -0.000018
      2          6           0       -0.984295   -1.025234   -0.000008
      3          6           0        0.395740   -1.365014   -0.000007
      4          6           0       -1.957251   -2.038650   -0.000006
      5          6           0       -0.395740    1.365014   -0.000008
      6          6           0       -2.744199    0.675688    0.000001
      7          6           0        1.380043   -0.339789   -0.000010
      8          6           0        0.786917   -2.714316    0.000004
      9          6           0       -1.535678   -3.393514    0.000002
     10          6           0       -3.328156   -1.672614   -0.000004
     11          6           0        0.984295    1.025234   -0.000013
     12          6           0       -0.786917    2.714316    0.000009
     13          6           0       -3.112631    2.045963    0.000008
     14          6           0       -3.706744   -0.366834   -0.000003
     15          6           0        2.744200   -0.675688    0.000000
     16          6           0        2.171025   -3.026676    0.000006
     17          6           0       -0.215550   -3.718525    0.000015
     18          6           0        1.957251    2.038650   -0.000004
     19          6           0        0.215550    3.718525    0.000013
     20          6           0       -2.171025    3.026676    0.000000
     21          6           0        3.706744    0.366834   -0.000004
     22          6           0        3.112631   -2.045963    0.000005
     23          6           0        3.328156    1.672614    0.000004
     24          6           0        1.535678    3.393514    0.000000
     25          1           0       -2.289148   -4.172339    0.000004
     26          1           0       -4.075654   -2.457162   -0.000001
     27          1           0       -4.165811    2.301086    0.000018
     28          1           0       -4.757952   -0.103691    0.000001
     29          1           0        2.468740   -4.068616    0.000019
     30          1           0        0.090168   -4.758155    0.000023
     31          1           0       -0.090168    4.758155    0.000023
     32          1           0       -2.468740    4.068616    0.000008
     33          1           0        4.757952    0.103691   -0.000007
     34          1           0        4.165811   -2.301086    0.000012
     35          1           0        4.075654    2.457162    0.000006
     36          1           0        2.289148    4.172339    0.000009
 ---------------------------------------------------------------------
 Rotational constants (GHZ):      0.3377910      0.3377824      0.1688933
 Leave Link  202 at Mon Jul 12 20:44:44 2021, MaxMem=  4194304000 cpu:         0.9
 (Enter /home/minenky/programs//g09/l301.exe)
 Standard basis: def2TZVP (5D, 7F)
 ======================================================================================================
                                       Pseudopotential Parameters
 ======================================================================================================
  Center     Atomic      Valence      Angular      Power
  Number     Number     Electrons     Momentum     of R      Exponent        Coefficient   SO-Coeffient
 ======================================================================================================
    1          6
                                   No pseudopotential on this center.
    2          6
                                   No pseudopotential on this center.
    3          6
                                   No pseudopotential on this center.
    4          6
                                   No pseudopotential on this center.
    5          6
                                   No pseudopotential on this center.
    6          6
                                   No pseudopotential on this center.
    7          6
                                   No pseudopotential on this center.
    8          6
                                   No pseudopotential on this center.
    9          6
                                   No pseudopotential on this center.
   10          6
                                   No pseudopotential on this center.
   11          6
                                   No pseudopotential on this center.
   12          6
                                   No pseudopotential on this center.
   13          6
                                   No pseudopotential on this center.
   14          6
                                   No pseudopotential on this center.
   15          6
                                   No pseudopotential on this center.
   16          6
                                   No pseudopotential on this center.
   17          6
                                   No pseudopotential on this center.
   18          6
                                   No pseudopotential on this center.
   19          6
                                   No pseudopotential on this center.
   20          6
                                   No pseudopotential on this center.
   21          6
                                   No pseudopotential on this center.
   22          6
                                   No pseudopotential on this center.
   23          6
                                   No pseudopotential on this center.
   24          6
                                   No pseudopotential on this center.
   25          1
                                   No pseudopotential on this center.
   26          1
                                   No pseudopotential on this center.
   27          1
                                   No pseudopotential on this center.
   28          1
                                   No pseudopotential on this center.
   29          1
                                   No pseudopotential on this center.
   30          1
                                   No pseudopotential on this center.
   31          1
                                   No pseudopotential on this center.
   32          1
                                   No pseudopotential on this center.
   33          1
                                   No pseudopotential on this center.
   34          1
                                   No pseudopotential on this center.
   35          1
                                   No pseudopotential on this center.
   36          1
                                   No pseudopotential on this center.
 ======================================================================================================
 Ernie: Thresh=  0.10000D-02 Tol=  0.10000D-05 Strict=F.
 AO basis set (Overlap normalization):
 Atom C1       Shell     1 S   6     bf    1 -     1         -2.607904107879          0.642108450933         -0.000034666553
      0.1357534968D+05  0.6064550360D-03
      0.2035233368D+04  0.4697908888D-02
      0.4632256236D+03  0.2433247765D-01
      0.1312001960D+03  0.9739996831D-01
      0.4285301589D+02  0.3019558425D+00
      0.1558418577D+02  0.6623360914D+00
 Atom C1       Shell     2 S   2     bf    2 -     2         -2.607904107879          0.642108450933         -0.000034666553
      0.6206713851D+01  0.6559530854D+00
      0.2576489653D+01  0.3758563329D+00
 Atom C1       Shell     3 S   1     bf    3 -     3         -2.607904107879          0.642108450933         -0.000034666553
      0.5769633942D+00  0.1000000000D+01
 Atom C1       Shell     4 S   1     bf    4 -     4         -2.607904107879          0.642108450933         -0.000034666553
      0.2297283136D+00  0.1000000000D+01
 Atom C1       Shell     5 S   1     bf    5 -     5         -2.607904107879          0.642108450933         -0.000034666553
      0.9516444003D-01  0.1000000000D+01
 Atom C1       Shell     6 P   4     bf    6 -     8         -2.607904107879          0.642108450933         -0.000034666553
      0.3469723224D+02  0.1132722000D-01
      0.7958262283D+01  0.7616965920D-01
      0.2378082688D+01  0.3019225220D+00
      0.8143320818D+00  0.7278502735D+00
 Atom C1       Shell     7 P   1     bf    9 -    11         -2.607904107879          0.642108450933         -0.000034666553
      0.2888754725D+00  0.1000000000D+01
 Atom C1       Shell     8 P   1     bf   12 -    14         -2.607904107879          0.642108450933         -0.000034666553
      0.1005682367D+00  0.1000000000D+01
 Atom C1       Shell     9 D   1     bf   15 -    19         -2.607904107879          0.642108450933         -0.000034666553
      0.1097000000D+01  0.1000000000D+01
 Atom C1       Shell    10 D   1     bf   20 -    24         -2.607904107879          0.642108450933         -0.000034666553
      0.3180000000D+00  0.1000000000D+01
 Atom C1       Shell    11 F   1     bf   25 -    31         -2.607904107879          0.642108450933         -0.000034666553
      0.7610000000D+00  0.1000000000D+01
 Atom C2       Shell    12 S   6     bf   32 -    32         -1.860048081251         -1.937411015888         -0.000015399077
      0.1357534968D+05  0.6064550360D-03
      0.2035233368D+04  0.4697908888D-02
      0.4632256236D+03  0.2433247765D-01
      0.1312001960D+03  0.9739996831D-01
      0.4285301589D+02  0.3019558425D+00
      0.1558418577D+02  0.6623360914D+00
 Atom C2       Shell    13 S   2     bf   33 -    33         -1.860048081251         -1.937411015888         -0.000015399077
      0.6206713851D+01  0.6559530854D+00
      0.2576489653D+01  0.3758563329D+00
 Atom C2       Shell    14 S   1     bf   34 -    34         -1.860048081251         -1.937411015888         -0.000015399077
      0.5769633942D+00  0.1000000000D+01
 Atom C2       Shell    15 S   1     bf   35 -    35         -1.860048081251         -1.937411015888         -0.000015399077
      0.2297283136D+00  0.1000000000D+01
 Atom C2       Shell    16 S   1     bf   36 -    36         -1.860048081251         -1.937411015888         -0.000015399077
      0.9516444003D-01  0.1000000000D+01
 Atom C2       Shell    17 P   4     bf   37 -    39         -1.860048081251         -1.937411015888         -0.000015399077
      0.3469723224D+02  0.1132722000D-01
      0.7958262283D+01  0.7616965920D-01
      0.2378082688D+01  0.3019225220D+00
      0.8143320818D+00  0.7278502735D+00
 Atom C2       Shell    18 P   1     bf   40 -    42         -1.860048081251         -1.937411015888         -0.000015399077
      0.2888754725D+00  0.1000000000D+01
 Atom C2       Shell    19 P   1     bf   43 -    45         -1.860048081251         -1.937411015888         -0.000015399077
      0.1005682367D+00  0.1000000000D+01
 Atom C2       Shell    20 D   1     bf   46 -    50         -1.860048081251         -1.937411015888         -0.000015399077
      0.1097000000D+01  0.1000000000D+01
 Atom C2       Shell    21 D   1     bf   51 -    55         -1.860048081251         -1.937411015888         -0.000015399077
      0.3180000000D+00  0.1000000000D+01
 Atom C2       Shell    22 F   1     bf   56 -    62         -1.860048081251         -1.937411015888         -0.000015399077
      0.7610000000D+00  0.1000000000D+01
 Atom C3       Shell    23 S   6     bf   63 -    63          0.747839938337         -2.579503383002         -0.000012936048
      0.1357534968D+05  0.6064550360D-03
      0.2035233368D+04  0.4697908888D-02
      0.4632256236D+03  0.2433247765D-01
      0.1312001960D+03  0.9739996831D-01
      0.4285301589D+02  0.3019558425D+00
      0.1558418577D+02  0.6623360914D+00
 Atom C3       Shell    24 S   2     bf   64 -    64          0.747839938337         -2.579503383002         -0.000012936048
      0.6206713851D+01  0.6559530854D+00
      0.2576489653D+01  0.3758563329D+00
 Atom C3       Shell    25 S   1     bf   65 -    65          0.747839938337         -2.579503383002         -0.000012936048
      0.5769633942D+00  0.1000000000D+01
 Atom C3       Shell    26 S   1     bf   66 -    66          0.747839938337         -2.579503383002         -0.000012936048
      0.2297283136D+00  0.1000000000D+01
 Atom C3       Shell    27 S   1     bf   67 -    67          0.747839938337         -2.579503383002         -0.000012936048
      0.9516444003D-01  0.1000000000D+01
 Atom C3       Shell    28 P   4     bf   68 -    70          0.747839938337         -2.579503383002         -0.000012936048
      0.3469723224D+02  0.1132722000D-01
      0.7958262283D+01  0.7616965920D-01
      0.2378082688D+01  0.3019225220D+00
      0.8143320818D+00  0.7278502735D+00
 Atom C3       Shell    29 P   1     bf   71 -    73          0.747839938337         -2.579503383002         -0.000012936048
      0.2888754725D+00  0.1000000000D+01
 Atom C3       Shell    30 P   1     bf   74 -    76          0.747839938337         -2.579503383002         -0.000012936048
      0.1005682367D+00  0.1000000000D+01
 Atom C3       Shell    31 D   1     bf   77 -    81          0.747839938337         -2.579503383002         -0.000012936048
      0.1097000000D+01  0.1000000000D+01
 Atom C3       Shell    32 D   1     bf   82 -    86          0.747839938337         -2.579503383002         -0.000012936048
      0.3180000000D+00  0.1000000000D+01
 Atom C3       Shell    33 F   1     bf   87 -    93          0.747839938337         -2.579503383002         -0.000012936048
      0.7610000000D+00  0.1000000000D+01
 Atom C4       Shell    34 S   6     bf   94 -    94         -3.698669154012         -3.852491032865         -0.000011137683
      0.1357534968D+05  0.6064550360D-03
      0.2035233368D+04  0.4697908888D-02
      0.4632256236D+03  0.2433247765D-01
      0.1312001960D+03  0.9739996831D-01
      0.4285301589D+02  0.3019558425D+00
      0.1558418577D+02  0.6623360914D+00
 Atom C4       Shell    35 S   2     bf   95 -    95         -3.698669154012         -3.852491032865         -0.000011137683
      0.6206713851D+01  0.6559530854D+00
      0.2576489653D+01  0.3758563329D+00
 Atom C4       Shell    36 S   1     bf   96 -    96         -3.698669154012         -3.852491032865         -0.000011137683
      0.5769633942D+00  0.1000000000D+01
 Atom C4       Shell    37 S   1     bf   97 -    97         -3.698669154012         -3.852491032865         -0.000011137683
      0.2297283136D+00  0.1000000000D+01
 Atom C4       Shell    38 S   1     bf   98 -    98         -3.698669154012         -3.852491032865         -0.000011137683
      0.9516444003D-01  0.1000000000D+01
 Atom C4       Shell    39 P   4     bf   99 -   101         -3.698669154012         -3.852491032865         -0.000011137683
      0.3469723224D+02  0.1132722000D-01
      0.7958262283D+01  0.7616965920D-01
      0.2378082688D+01  0.3019225220D+00
      0.8143320818D+00  0.7278502735D+00
 Atom C4       Shell    40 P   1     bf  102 -   104         -3.698669154012         -3.852491032865         -0.000011137683
      0.2888754725D+00  0.1000000000D+01
 Atom C4       Shell    41 P   1     bf  105 -   107         -3.698669154012         -3.852491032865         -0.000011137683
      0.1005682367D+00  0.1000000000D+01
 Atom C4       Shell    42 D   1     bf  108 -   112         -3.698669154012         -3.852491032865         -0.000011137683
      0.1097000000D+01  0.1000000000D+01
 Atom C4       Shell    43 D   1     bf  113 -   117         -3.698669154012         -3.852491032865         -0.000011137683
      0.3180000000D+00  0.1000000000D+01
 Atom C4       Shell    44 F   1     bf  118 -   124         -3.698669154012         -3.852491032865         -0.000011137683
      0.7610000000D+00  0.1000000000D+01
 Atom C5       Shell    45 S   6     bf  125 -   125         -0.747840009220          2.579503338268         -0.000015586388
      0.1357534968D+05  0.6064550360D-03
      0.2035233368D+04  0.4697908888D-02
      0.4632256236D+03  0.2433247765D-01
      0.1312001960D+03  0.9739996831D-01
      0.4285301589D+02  0.3019558425D+00
      0.1558418577D+02  0.6623360914D+00
 Atom C5       Shell    46 S   2     bf  126 -   126         -0.747840009220          2.579503338268         -0.000015586388
      0.6206713851D+01  0.6559530854D+00
      0.2576489653D+01  0.3758563329D+00
 Atom C5       Shell    47 S   1     bf  127 -   127         -0.747840009220          2.579503338268         -0.000015586388
      0.5769633942D+00  0.1000000000D+01
 Atom C5       Shell    48 S   1     bf  128 -   128         -0.747840009220          2.579503338268         -0.000015586388
      0.2297283136D+00  0.1000000000D+01
 Atom C5       Shell    49 S   1     bf  129 -   129         -0.747840009220          2.579503338268         -0.000015586388
      0.9516444003D-01  0.1000000000D+01
 Atom C5       Shell    50 P   4     bf  130 -   132         -0.747840009220          2.579503338268         -0.000015586388
      0.3469723224D+02  0.1132722000D-01
      0.7958262283D+01  0.7616965920D-01
      0.2378082688D+01  0.3019225220D+00
      0.8143320818D+00  0.7278502735D+00
 Atom C5       Shell    51 P   1     bf  133 -   135         -0.747840009220          2.579503338268         -0.000015586388
      0.2888754725D+00  0.1000000000D+01
 Atom C5       Shell    52 P   1     bf  136 -   138         -0.747840009220          2.579503338268         -0.000015586388
      0.1005682367D+00  0.1000000000D+01
 Atom C5       Shell    53 D   1     bf  139 -   143         -0.747840009220          2.579503338268         -0.000015586388
      0.1097000000D+01  0.1000000000D+01
 Atom C5       Shell    54 D   1     bf  144 -   148         -0.747840009220          2.579503338268         -0.000015586388
      0.3180000000D+00  0.1000000000D+01
 Atom C5       Shell    55 F   1     bf  149 -   155         -0.747840009220          2.579503338268         -0.000015586388
      0.7610000000D+00  0.1000000000D+01
 Atom C6       Shell    56 S   6     bf  156 -   156         -5.185785485908          1.276864594327          0.000001636668
      0.1357534968D+05  0.6064550360D-03
      0.2035233368D+04  0.4697908888D-02
      0.4632256236D+03  0.2433247765D-01
      0.1312001960D+03  0.9739996831D-01
      0.4285301589D+02  0.3019558425D+00
      0.1558418577D+02  0.6623360914D+00
 Atom C6       Shell    57 S   2     bf  157 -   157         -5.185785485908          1.276864594327          0.000001636668
      0.6206713851D+01  0.6559530854D+00
      0.2576489653D+01  0.3758563329D+00
 Atom C6       Shell    58 S   1     bf  158 -   158         -5.185785485908          1.276864594327          0.000001636668
      0.5769633942D+00  0.1000000000D+01
 Atom C6       Shell    59 S   1     bf  159 -   159         -5.185785485908          1.276864594327          0.000001636668
      0.2297283136D+00  0.1000000000D+01
 Atom C6       Shell    60 S   1     bf  160 -   160         -5.185785485908          1.276864594327          0.000001636668
      0.9516444003D-01  0.1000000000D+01
 Atom C6       Shell    61 P   4     bf  161 -   163         -5.185785485908          1.276864594327          0.000001636668
      0.3469723224D+02  0.1132722000D-01
      0.7958262283D+01  0.7616965920D-01
      0.2378082688D+01  0.3019225220D+00
      0.8143320818D+00  0.7278502735D+00
 Atom C6       Shell    62 P   1     bf  164 -   166         -5.185785485908          1.276864594327          0.000001636668
      0.2888754725D+00  0.1000000000D+01
 Atom C6       Shell    63 P   1     bf  167 -   169         -5.185785485908          1.276864594327          0.000001636668
      0.1005682367D+00  0.1000000000D+01
 Atom C6       Shell    64 D   1     bf  170 -   174         -5.185785485908          1.276864594327          0.000001636668
      0.1097000000D+01  0.1000000000D+01
 Atom C6       Shell    65 D   1     bf  175 -   179         -5.185785485908          1.276864594327          0.000001636668
      0.3180000000D+00  0.1000000000D+01
 Atom C6       Shell    66 F   1     bf  180 -   186         -5.185785485908          1.276864594327          0.000001636668
      0.7610000000D+00  0.1000000000D+01
 Atom C7       Shell    67 S   6     bf  187 -   187          2.607904111641         -0.642108367439         -0.000018532771
      0.1357534968D+05  0.6064550360D-03
      0.2035233368D+04  0.4697908888D-02
      0.4632256236D+03  0.2433247765D-01
      0.1312001960D+03  0.9739996831D-01
      0.4285301589D+02  0.3019558425D+00
      0.1558418577D+02  0.6623360914D+00
 Atom C7       Shell    68 S   2     bf  188 -   188          2.607904111641         -0.642108367439         -0.000018532771
      0.6206713851D+01  0.6559530854D+00
      0.2576489653D+01  0.3758563329D+00
 Atom C7       Shell    69 S   1     bf  189 -   189          2.607904111641         -0.642108367439         -0.000018532771
      0.5769633942D+00  0.1000000000D+01
 Atom C7       Shell    70 S   1     bf  190 -   190          2.607904111641         -0.642108367439         -0.000018532771
      0.2297283136D+00  0.1000000000D+01
 Atom C7       Shell    71 S   1     bf  191 -   191          2.607904111641         -0.642108367439         -0.000018532771
      0.9516444003D-01  0.1000000000D+01
 Atom C7       Shell    72 P   4     bf  192 -   194          2.607904111641         -0.642108367439         -0.000018532771
      0.3469723224D+02  0.1132722000D-01
      0.7958262283D+01  0.7616965920D-01
      0.2378082688D+01  0.3019225220D+00
      0.8143320818D+00  0.7278502735D+00
 Atom C7       Shell    73 P   1     bf  195 -   197          2.607904111641         -0.642108367439         -0.000018532771
      0.2888754725D+00  0.1000000000D+01
 Atom C7       Shell    74 P   1     bf  198 -   200          2.607904111641         -0.642108367439         -0.000018532771
      0.1005682367D+00  0.1000000000D+01
 Atom C7       Shell    75 D   1     bf  201 -   205          2.607904111641         -0.642108367439         -0.000018532771
      0.1097000000D+01  0.1000000000D+01
 Atom C7       Shell    76 D   1     bf  206 -   210          2.607904111641         -0.642108367439         -0.000018532771
      0.3180000000D+00  0.1000000000D+01
 Atom C7       Shell    77 F   1     bf  211 -   217          2.607904111641         -0.642108367439         -0.000018532771
      0.7610000000D+00  0.1000000000D+01
 Atom C8       Shell    78 S   6     bf  218 -   218          1.487056738358         -5.129313620725          0.000006701435
      0.1357534968D+05  0.6064550360D-03
      0.2035233368D+04  0.4697908888D-02
      0.4632256236D+03  0.2433247765D-01
      0.1312001960D+03  0.9739996831D-01
      0.4285301589D+02  0.3019558425D+00
      0.1558418577D+02  0.6623360914D+00
 Atom C8       Shell    79 S   2     bf  219 -   219          1.487056738358         -5.129313620725          0.000006701435
      0.6206713851D+01  0.6559530854D+00
      0.2576489653D+01  0.3758563329D+00
 Atom C8       Shell    80 S   1     bf  220 -   220          1.487056738358         -5.129313620725          0.000006701435
      0.5769633942D+00  0.1000000000D+01
 Atom C8       Shell    81 S   1     bf  221 -   221          1.487056738358         -5.129313620725          0.000006701435
      0.2297283136D+00  0.1000000000D+01
 Atom C8       Shell    82 S   1     bf  222 -   222          1.487056738358         -5.129313620725          0.000006701435
      0.9516444003D-01  0.1000000000D+01
 Atom C8       Shell    83 P   4     bf  223 -   225          1.487056738358         -5.129313620725          0.000006701435
      0.3469723224D+02  0.1132722000D-01
      0.7958262283D+01  0.7616965920D-01
      0.2378082688D+01  0.3019225220D+00
      0.8143320818D+00  0.7278502735D+00
 Atom C8       Shell    84 P   1     bf  226 -   228          1.487056738358         -5.129313620725          0.000006701435
      0.2888754725D+00  0.1000000000D+01
 Atom C8       Shell    85 P   1     bf  229 -   231          1.487056738358         -5.129313620725          0.000006701435
      0.1005682367D+00  0.1000000000D+01
 Atom C8       Shell    86 D   1     bf  232 -   236          1.487056738358         -5.129313620725          0.000006701435
      0.1097000000D+01  0.1000000000D+01
 Atom C8       Shell    87 D   1     bf  237 -   241          1.487056738358         -5.129313620725          0.000006701435
      0.3180000000D+00  0.1000000000D+01
 Atom C8       Shell    88 F   1     bf  242 -   248          1.487056738358         -5.129313620725          0.000006701435
      0.7610000000D+00  0.1000000000D+01
 Atom C9       Shell    89 S   6     bf  249 -   249         -2.902010315645         -6.412813014562          0.000004480454
      0.1357534968D+05  0.6064550360D-03
      0.2035233368D+04  0.4697908888D-02
      0.4632256236D+03  0.2433247765D-01
      0.1312001960D+03  0.9739996831D-01
      0.4285301589D+02  0.3019558425D+00
      0.1558418577D+02  0.6623360914D+00
 Atom C9       Shell    90 S   2     bf  250 -   250         -2.902010315645         -6.412813014562          0.000004480454
      0.6206713851D+01  0.6559530854D+00
      0.2576489653D+01  0.3758563329D+00
 Atom C9       Shell    91 S   1     bf  251 -   251         -2.902010315645         -6.412813014562          0.000004480454
      0.5769633942D+00  0.1000000000D+01
 Atom C9       Shell    92 S   1     bf  252 -   252         -2.902010315645         -6.412813014562          0.000004480454
      0.2297283136D+00  0.1000000000D+01
 Atom C9       Shell    93 S   1     bf  253 -   253         -2.902010315645         -6.412813014562          0.000004480454
      0.9516444003D-01  0.1000000000D+01
 Atom C9       Shell    94 P   4     bf  254 -   256         -2.902010315645         -6.412813014562          0.000004480454
      0.3469723224D+02  0.1132722000D-01
      0.7958262283D+01  0.7616965920D-01
      0.2378082688D+01  0.3019225220D+00
      0.8143320818D+00  0.7278502735D+00
 Atom C9       Shell    95 P   1     bf  257 -   259         -2.902010315645         -6.412813014562          0.000004480454
      0.2888754725D+00  0.1000000000D+01
 Atom C9       Shell    96 P   1     bf  260 -   262         -2.902010315645         -6.412813014562          0.000004480454
      0.1005682367D+00  0.1000000000D+01
 Atom C9       Shell    97 D   1     bf  263 -   267         -2.902010315645         -6.412813014562          0.000004480454
      0.1097000000D+01  0.1000000000D+01
 Atom C9       Shell    98 D   1     bf  268 -   272         -2.902010315645         -6.412813014562          0.000004480454
      0.3180000000D+00  0.1000000000D+01
 Atom C9       Shell    99 F   1     bf  273 -   279         -2.902010315645         -6.412813014562          0.000004480454
      0.7610000000D+00  0.1000000000D+01
 Atom C10      Shell   100 S   6     bf  280 -   280         -6.289304311624         -3.160783298841         -0.000007802011
      0.1357534968D+05  0.6064550360D-03
      0.2035233368D+04  0.4697908888D-02
      0.4632256236D+03  0.2433247765D-01
      0.1312001960D+03  0.9739996831D-01
      0.4285301589D+02  0.3019558425D+00
      0.1558418577D+02  0.6623360914D+00
 Atom C10      Shell   101 S   2     bf  281 -   281         -6.289304311624         -3.160783298841         -0.000007802011
      0.6206713851D+01  0.6559530854D+00
      0.2576489653D+01  0.3758563329D+00
 Atom C10      Shell   102 S   1     bf  282 -   282         -6.289304311624         -3.160783298841         -0.000007802011
      0.5769633942D+00  0.1000000000D+01
 Atom C10      Shell   103 S   1     bf  283 -   283         -6.289304311624         -3.160783298841         -0.000007802011
      0.2297283136D+00  0.1000000000D+01
 Atom C10      Shell   104 S   1     bf  284 -   284         -6.289304311624         -3.160783298841         -0.000007802011
      0.9516444003D-01  0.1000000000D+01
 Atom C10      Shell   105 P   4     bf  285 -   287         -6.289304311624         -3.160783298841         -0.000007802011
      0.3469723224D+02  0.1132722000D-01
      0.7958262283D+01  0.7616965920D-01
      0.2378082688D+01  0.3019225220D+00
      0.8143320818D+00  0.7278502735D+00
 Atom C10      Shell   106 P   1     bf  288 -   290         -6.289304311624         -3.160783298841         -0.000007802011
      0.2888754725D+00  0.1000000000D+01
 Atom C10      Shell   107 P   1     bf  291 -   293         -6.289304311624         -3.160783298841         -0.000007802011
      0.1005682367D+00  0.1000000000D+01
 Atom C10      Shell   108 D   1     bf  294 -   298         -6.289304311624         -3.160783298841         -0.000007802011
      0.1097000000D+01  0.1000000000D+01
 Atom C10      Shell   109 D   1     bf  299 -   303         -6.289304311624         -3.160783298841         -0.000007802011
      0.3180000000D+00  0.1000000000D+01
 Atom C10      Shell   110 F   1     bf  304 -   310         -6.289304311624         -3.160783298841         -0.000007802011
      0.7610000000D+00  0.1000000000D+01
 Atom C11      Shell   111 S   6     bf  311 -   311          1.860048036955          1.937411077569         -0.000025168911
      0.1357534968D+05  0.6064550360D-03
      0.2035233368D+04  0.4697908888D-02
      0.4632256236D+03  0.2433247765D-01
      0.1312001960D+03  0.9739996831D-01
      0.4285301589D+02  0.3019558425D+00
      0.1558418577D+02  0.6623360914D+00
 Atom C11      Shell   112 S   2     bf  312 -   312          1.860048036955          1.937411077569         -0.000025168911
      0.6206713851D+01  0.6559530854D+00
      0.2576489653D+01  0.3758563329D+00
 Atom C11      Shell   113 S   1     bf  313 -   313          1.860048036955          1.937411077569         -0.000025168911
      0.5769633942D+00  0.1000000000D+01
 Atom C11      Shell   114 S   1     bf  314 -   314          1.860048036955          1.937411077569         -0.000025168911
      0.2297283136D+00  0.1000000000D+01
 Atom C11      Shell   115 S   1     bf  315 -   315          1.860048036955          1.937411077569         -0.000025168911
      0.9516444003D-01  0.1000000000D+01
 Atom C11      Shell   116 P   4     bf  316 -   318          1.860048036955          1.937411077569         -0.000025168911
      0.3469723224D+02  0.1132722000D-01
      0.7958262283D+01  0.7616965920D-01
      0.2378082688D+01  0.3019225220D+00
      0.8143320818D+00  0.7278502735D+00
 Atom C11      Shell   117 P   1     bf  319 -   321          1.860048036955          1.937411077569         -0.000025168911
      0.2888754725D+00  0.1000000000D+01
 Atom C11      Shell   118 P   1     bf  322 -   324          1.860048036955          1.937411077569         -0.000025168911
      0.1005682367D+00  0.1000000000D+01
 Atom C11      Shell   119 D   1     bf  325 -   329          1.860048036955          1.937411077569         -0.000025168911
      0.1097000000D+01  0.1000000000D+01
 Atom C11      Shell   120 D   1     bf  330 -   334          1.860048036955          1.937411077569         -0.000025168911
      0.3180000000D+00  0.1000000000D+01
 Atom C11      Shell   121 F   1     bf  335 -   341          1.860048036955          1.937411077569         -0.000025168911
      0.7610000000D+00  0.1000000000D+01
 Atom C12      Shell   122 S   6     bf  342 -   342         -1.487056719656          5.129313507817          0.000017619031
      0.1357534968D+05  0.6064550360D-03
      0.2035233368D+04  0.4697908888D-02
      0.4632256236D+03  0.2433247765D-01
      0.1312001960D+03  0.9739996831D-01
      0.4285301589D+02  0.3019558425D+00
      0.1558418577D+02  0.6623360914D+00
 Atom C12      Shell   123 S   2     bf  343 -   343         -1.487056719656          5.129313507817          0.000017619031
      0.6206713851D+01  0.6559530854D+00
      0.2576489653D+01  0.3758563329D+00
 Atom C12      Shell   124 S   1     bf  344 -   344         -1.487056719656          5.129313507817          0.000017619031
      0.5769633942D+00  0.1000000000D+01
 Atom C12      Shell   125 S   1     bf  345 -   345         -1.487056719656          5.129313507817          0.000017619031
      0.2297283136D+00  0.1000000000D+01
 Atom C12      Shell   126 S   1     bf  346 -   346         -1.487056719656          5.129313507817          0.000017619031
      0.9516444003D-01  0.1000000000D+01
 Atom C12      Shell   127 P   4     bf  347 -   349         -1.487056719656          5.129313507817          0.000017619031
      0.3469723224D+02  0.1132722000D-01
      0.7958262283D+01  0.7616965920D-01
      0.2378082688D+01  0.3019225220D+00
      0.8143320818D+00  0.7278502735D+00
 Atom C12      Shell   128 P   1     bf  350 -   352         -1.487056719656          5.129313507817          0.000017619031
      0.2888754725D+00  0.1000000000D+01
 Atom C12      Shell   129 P   1     bf  353 -   355         -1.487056719656          5.129313507817          0.000017619031
      0.1005682367D+00  0.1000000000D+01
 Atom C12      Shell   130 D   1     bf  356 -   360         -1.487056719656          5.129313507817          0.000017619031
      0.1097000000D+01  0.1000000000D+01
 Atom C12      Shell   131 D   1     bf  361 -   365         -1.487056719656          5.129313507817          0.000017619031
      0.3180000000D+00  0.1000000000D+01
 Atom C12      Shell   132 F   1     bf  366 -   372         -1.487056719656          5.129313507817          0.000017619031
      0.7610000000D+00  0.1000000000D+01
 Atom C13      Shell   133 S   6     bf  373 -   373         -5.882020529259          3.866309329702          0.000014370750
      0.1357534968D+05  0.6064550360D-03
      0.2035233368D+04  0.4697908888D-02
      0.4632256236D+03  0.2433247765D-01
      0.1312001960D+03  0.9739996831D-01
      0.4285301589D+02  0.3019558425D+00
      0.1558418577D+02  0.6623360914D+00
 Atom C13      Shell   134 S   2     bf  374 -   374         -5.882020529259          3.866309329702          0.000014370750
      0.6206713851D+01  0.6559530854D+00
      0.2576489653D+01  0.3758563329D+00
 Atom C13      Shell   135 S   1     bf  375 -   375         -5.882020529259          3.866309329702          0.000014370750
      0.5769633942D+00  0.1000000000D+01
 Atom C13      Shell   136 S   1     bf  376 -   376         -5.882020529259          3.866309329702          0.000014370750
      0.2297283136D+00  0.1000000000D+01
 Atom C13      Shell   137 S   1     bf  377 -   377         -5.882020529259          3.866309329702          0.000014370750
      0.9516444003D-01  0.1000000000D+01
 Atom C13      Shell   138 P   4     bf  378 -   380         -5.882020529259          3.866309329702          0.000014370750
      0.3469723224D+02  0.1132722000D-01
      0.7958262283D+01  0.7616965920D-01
      0.2378082688D+01  0.3019225220D+00
      0.8143320818D+00  0.7278502735D+00
 Atom C13      Shell   139 P   1     bf  381 -   383         -5.882020529259          3.866309329702          0.000014370750
      0.2888754725D+00  0.1000000000D+01
 Atom C13      Shell   140 P   1     bf  384 -   386         -5.882020529259          3.866309329702          0.000014370750
      0.1005682367D+00  0.1000000000D+01
 Atom C13      Shell   141 D   1     bf  387 -   391         -5.882020529259          3.866309329702          0.000014370750
      0.1097000000D+01  0.1000000000D+01
 Atom C13      Shell   142 D   1     bf  392 -   396         -5.882020529259          3.866309329702          0.000014370750
      0.3180000000D+00  0.1000000000D+01
 Atom C13      Shell   143 F   1     bf  397 -   403         -5.882020529259          3.866309329702          0.000014370750
      0.7610000000D+00  0.1000000000D+01
 Atom C14      Shell   144 S   6     bf  404 -   404         -7.004731066187         -0.693215593006         -0.000005053778
      0.1357534968D+05  0.6064550360D-03
      0.2035233368D+04  0.4697908888D-02
      0.4632256236D+03  0.2433247765D-01
      0.1312001960D+03  0.9739996831D-01
      0.4285301589D+02  0.3019558425D+00
      0.1558418577D+02  0.6623360914D+00
 Atom C14      Shell   145 S   2     bf  405 -   405         -7.004731066187         -0.693215593006         -0.000005053778
      0.6206713851D+01  0.6559530854D+00
      0.2576489653D+01  0.3758563329D+00
 Atom C14      Shell   146 S   1     bf  406 -   406         -7.004731066187         -0.693215593006         -0.000005053778
      0.5769633942D+00  0.1000000000D+01
 Atom C14      Shell   147 S   1     bf  407 -   407         -7.004731066187         -0.693215593006         -0.000005053778
[...]
 991,-0.13988886,-0.00000180,-0.00005231,-0.00011012,0.,0.00000093,-0.0
 0000117,0.,-0.00007290,0.00010708,0.,0.00010003,0.00006946,0.,0.000070
 61,0.00036573,0.,-0.00005642,-0.00001336,0.,-0.00005173,0.00001879,0.,
 0.00087028,-0.00028020,0.00000002,-0.00000629,-0.00000760,0.,0.0000001
 5,-0.00000633,0.,0.00002681,0.00003065,0.,-0.00006175,0.00130603,0.000
 00001,0.21207894,-0.00000036,0.00013832,0.,0.00059926,-0.00025536,0.,0
 .00212311,0.00008230,0.,0.00330212,-0.00440851,-0.00000011,-0.00006057
 ,-0.00007836,0.,0.00026994,0.00002281,0.,0.00045217,0.00031529,0.,0.00
 702474,0.00834904,0.00000007,-0.02439133,-0.01666663,-0.00000021,-0.00
 139597,-0.00015615,-0.00000001,0.00003147,-0.00007378,0.,-0.00006458,0
 .00011194,0.,-0.00014313,-0.00001796,0.,0.00005913,-0.00053995,0.,0.00
 023716,0.00025924,0.,0.00139142,0.00117593,0.00000004,-0.13916266,-0.1
 9623653,-0.00000174,0.00003671,-0.00008485,0.,0.00006063,-0.00004304,0
 .,0.00008411,-0.00009120,0.,-0.00017028,-0.00006068,0.,-0.00049971,0.0
 0000581,0.,0.00003528,0.00015053,0.,0.00002026,0.00006314,0.,0.0003173
 7,0.00080825,0.00000004,0.00005383,-0.00001727,0.,0.00000491,-0.000003
 31,0.,-0.00011318,-0.00010976,0.,-0.00042651,-0.00008682,0.,0.15038363
 ,0.20743368,-0.00000002,-0.00000002,-0.00082025,0.00000004,0.00000004,
 -0.00081328,-0.00000008,0.00000003,0.00483368,0.00000004,-0.00000011,0
 .00949904,0.,0.,0.00003486,0.,0.00000001,0.00011279,0.,-0.00000002,0.0
 0011525,-0.00000015,-0.00000016,0.00279456,-0.00000024,-0.00000020,0.0
 0352960,-0.00000003,-0.00000003,0.00021382,0.,0.,0.00002654,0.,0.,0.00
 005924,0.,0.,0.00007262,0.00000002,0.,-0.00058418,0.,0.,0.00002902,0.0
 0000003,0.00000001,-0.00265926,-0.00000156,-0.00000153,-0.03678592,0.,
 0.,-0.00001798,0.,0.,-0.00000936,0.,0.,-0.00001947,0.,0.,0.00002061,0.
 ,0.,-0.00014110,0.,0.,0.00000864,0.,0.,-0.00005734,0.00000002,0.000000
 05,-0.00526230,0.,0.,0.00014131,0.,0.,-0.00000406,0.,0.,-0.00003463,0.
 ,0.,0.00021199,0.00000194,0.00000192,0.02534022,-0.00036842,-0.0015909
 6,0.,-0.00037785,0.00029654,0.00000001,0.00008600,0.00009909,0.,-0.000
 05231,-0.00011012,0.,-0.00435536,0.00328949,0.00000004,0.00010245,-0.0
 0001493,0.,-0.00001846,-0.00015462,0.,-0.00001436,-0.00010138,0.,-0.00
 005173,0.00001879,0.,-0.00005642,-0.00001336,0.,-0.00013143,0.00093471
 ,0.,-0.01681494,-0.02305249,0.00000029,0.00007061,0.00036573,-0.000000
 01,0.00010003,0.00006946,0.,-0.00020653,0.00000891,0.,-0.00007290,0.00
 010708,0.,0.00000093,-0.00000117,0.,0.00053008,0.00241138,0.00000002,-
 0.20246988,-0.13988884,0.00000195,0.00124998,-0.00183770,0.,0.00017758
 ,0.00011828,0.,0.00012853,-0.00000638,0.,0.00029784,-0.00001542,0.,0.0
 0943245,0.00761658,-0.00000010,-0.00001624,-0.00001041,0.,-0.00000311,
 0.00000445,0.,-0.00003518,0.00002397,0.,-0.00003087,0.00001914,0.,-0.0
 0000413,-0.00000612,0.,-0.00000446,-0.00000586,0.,0.21207892,0.0004521
 7,0.00031529,0.,0.00003147,-0.00007378,0.,-0.00006057,-0.00007836,0.,0
 .00003671,-0.00008485,0.,0.00212311,0.00008230,0.00000003,0.00023716,0
 .00025924,-0.00000001,-0.00000036,0.00013832,-0.00000001,-0.00006458,0
 .00011194,0.,0.00002026,0.00006314,0.,0.00003528,0.00015053,0.,0.00059
 926,-0.00025536,-0.00000002,0.00702474,0.00834904,-0.00000009,-0.00049
 971,0.00000581,0.,-0.00017028,-0.00006068,0.,0.00026994,0.00002281,0.,
 0.00008411,-0.00009120,0.,0.00006063,-0.00004304,0.,0.00330212,-0.0044
 0851,0.00000013,-0.13916264,-0.19623653,0.00000216,0.00139142,0.001175
 93,-0.00000004,0.00005913,-0.00053995,0.,-0.00014313,-0.00001796,0.,-0
 .00139597,-0.00015615,0.00000001,-0.02439133,-0.01666663,0.00000023,-0
 .00000245,0.00000710,0.,-0.00000684,-0.00000003,0.,-0.00003774,0.00001
 102,0.,0.00000224,0.00000463,0.,-0.00000835,-0.00000396,0.,-0.00000586
 ,-0.00000487,0.,0.15038362,0.20743368,0.,0.,0.00011525,0.,0.,0.0000265
 4,0.,0.,0.00003486,0.,0.,-0.00001798,0.00000006,0.00000002,0.00483368,
 0.00000001,0.00000001,0.00002902,0.00000002,0.00000001,-0.00082025,0.,
 0.,0.00005924,0.,0.,-0.00005734,0.,0.,0.00000864,-0.00000003,-0.000000
 04,-0.00081328,-0.00000006,0.00000006,0.00279456,-0.00000003,0.,-0.000
 14110,0.,0.,0.00002062,0.,0.,0.00011279,0.,0.,-0.00001947,0.,0.,-0.000
 00936,-0.00000008,0.00000005,0.00949904,0.00000205,0.00000196,-0.03678
 592,-0.00000001,0.,-0.00265926,-0.00000003,0.00000001,-0.00058418,0.,0
 .,0.00007262,0.00000004,0.00000003,0.00021382,0.00000028,0.00000029,0.
 00352960,0.,0.,0.00000487,0.,0.,-0.00000409,0.,0.,0.00014179,0.,0.,0.0
 0001351,0.,0.,-0.00000066,0.,0.,0.00000993,-0.00000215,-0.00000235,0.0
 2534022,-0.00023261,0.00058877,0.,0.00013495,-0.00000430,0.,-0.0000776
 0,-0.00005737,0.,0.00002766,0.00026261,0.,0.00019049,0.00202626,0.0000
 0003,-0.00422986,0.00338814,-0.00000003,-0.00006758,0.00002717,0.,0.00
 010780,-0.00006640,0.,-0.00002022,-0.00013929,0.,-0.00052879,0.0000724
 8,0.,0.00029357,0.00043704,0.,0.00794011,0.00656141,-0.00000006,-0.016
 99421,-0.02385632,0.00000026,-0.00018749,-0.00137778,0.,-0.00008476,0.
 00003730,0.,-0.00004147,0.00006084,0.,-0.00008693,0.00008369,0.,0.0002
 6176,0.00022995,0.,0.00117900,0.00139443,-0.00000002,-0.20181162,-0.13
 920774,0.00000154,0.00014968,0.00003074,0.,0.00006309,0.00001810,0.,-0
 .00006262,-0.00016574,0.,-0.00000291,-0.00049444,0.,-0.00000330,0.0000
 0504,0.,-0.00011007,-0.00010906,0.,0.00077035,0.00033646,-0.00000002,-
 0.00001688,0.00005398,0.,-0.00000498,-0.00000586,0.,-0.00000413,-0.000
 00835,0.,-0.00006175,-0.00042651,0.,0.21348929,0.00094943,-0.00015400,
 0.,-0.00015643,-0.00001546,0.,0.00010338,0.00008649,0.,0.00000493,-0.0
 0021168,0.,0.00320705,-0.00451667,-0.00000005,0.00250807,0.00041867,0.
 00000004,0.00029260,-0.00039201,0.,-0.00010381,-0.00001183,0.,-0.00000
 351,0.00013153,0.,0.00013050,0.00017443,0.,-0.00161994,-0.00034517,0.0
 0000001,-0.02351020,-0.01648604,0.00000033,0.00812326,0.00983132,-0.00
 000001,-0.00000573,0.00032551,0.,-0.00011323,-0.00005136,0.,-0.0000008
 3,0.00000042,0.,0.00010760,-0.00007676,0.,-0.00001627,0.00010788,0.,-0
 .00185404,0.00130868,-0.00000002,-0.13990114,-0.19687878,0.00000130,-0
 .00001650,-0.00005538,0.,0.00001783,-0.00005354,0.,0.00007362,0.000100
 91,0.,0.00036496,0.00006588,0.,-0.00000633,0.00000028,0.,0.00003296,0.
 00002815,0.,-0.00028010,0.00086621,-0.00000004,-0.00000726,-0.00000725
 ,0.,-0.00000586,-0.00000435,0.,-0.00000612,-0.00000396,0.,0.00130603,-
 0.00008682,0.,0.15035004,0.20599009,0.00000005,0.,-0.00081481,-0.00000
 001,-0.00000002,-0.00082085,0.,0.,0.00003487,0.00000002,0.,0.00011303,
 0.00000008,-0.00000005,0.00483414,-0.00000005,0.00000014,0.00949643,0.
 00000002,0.,0.00002659,0.,0.,0.00005926,0.,0.,0.00007268,0.,0.00000003
 ,-0.00058463,-0.00000002,-0.00000001,0.00011515,-0.00000012,-0.0000001
 3,0.00279156,-0.00000023,-0.00000011,0.00352678,-0.00000004,-0.0000000
 2,0.00021547,0.,0.,-0.00001791,0.,0.,-0.00000936,0.00000002,0.,-0.0000
 1948,0.,-0.00000001,0.00002913,0.00000001,-0.00000005,-0.00265802,0.00
 000200,0.00000180,-0.03678484,-0.00000001,0.,0.00000860,0.,0.,-0.00005
 736,0.,0.00000002,0.00002065,0.,0.00000003,-0.00014102,0.,0.,-0.000004
 08,0.,0.,-0.00003487,0.00000003,-0.00000006,-0.00525600,0.,0.,0.000141
 56,0.,0.,0.00000994,0.,0.,-0.00000066,-0.00000001,0.,0.00021199,-0.000
 00170,-0.00000156,0.02534004,0.00002531,-0.00016158,0.,-0.00044357,-0.
 00007440,0.,0.00031706,0.00159491,0.00000002,-0.00002855,0.00007719,0.
 ,0.00009257,0.00018192,0.,0.00009260,0.00011281,0.,-0.00556908,0.00012
 659,-0.00000004,0.00004850,0.00014143,0.,-0.00001053,0.00011029,0.,-0.
 00003881,0.00004223,0.,-0.00084311,-0.00058822,0.,-0.00026782,0.000166
 73,0.,-0.00016218,-0.00006423,0.,-0.00003683,-0.00000235,0.,-0.0030154
 4,0.02989347,0.00000003,0.00011483,-0.00043043,0.,0.00010148,-0.000167
 35,0.,-0.00330847,-0.00306198,0.00000004,-0.00009222,-0.00038683,0.,0.
 00015543,-0.00009810,0.,-0.07726802,0.06807149,-0.00000020,0.00143576,
 0.00168662,0.00000002,0.00988951,-0.02365733,0.,0.00079967,-0.00056469
 ,-0.00000001,-0.00000127,-0.00000368,0.,-0.00000437,0.00001743,0.,0.00
 000231,0.00000237,0.,0.00000061,0.00000257,0.,-0.00001688,-0.00000726,
 0.,-0.00003087,0.00000224,0.,0.00002681,-0.00011318,0.,-0.00000013,0.0
 0000446,0.,0.07769514,-0.00000206,-0.00001709,0.,0.00019121,-0.0000098
 6,0.,-0.00045398,-0.00037368,0.,-0.00007052,-0.00010860,0.,0.00002922,
 0.00002746,0.,0.00007579,0.00000447,0.,0.00130275,0.00128155,0.0000000
 4,-0.00010861,0.00031516,0.,0.00006196,0.00010460,0.,0.00004116,0.0000
 4949,0.,-0.00024468,0.00045538,0.,-0.00009293,0.00008465,0.,-0.0000405
 3,-0.00000145,0.,-0.00006401,-0.00000490,0.,-0.00019485,-0.00547882,-0
 .00000003,0.00043385,-0.00003786,0.,0.00007178,-0.00006214,0.,-0.00395
 117,-0.00054365,0.00000010,-0.00032940,-0.00026765,0.,0.00003791,-0.00
 004463,0.,0.06735504,-0.32131889,0.00000091,-0.00154984,0.00100356,-0.
 00000002,0.00835104,-0.01710778,-0.00000004,0.00081609,-0.00066168,0.,
 0.00000754,-0.00000196,0.,0.00000932,-0.00000490,0.,0.00000456,-0.0000
 1039,0.,0.00000257,-0.00000991,0.,0.00005398,-0.00000725,0.,0.00001914
 ,0.00000463,0.,0.00003065,-0.00010976,0.,-0.00000683,-0.00000295,0.,-0
 .07204770,0.34170270,0.,0.,0.00003499,0.,0.,0.00002626,0.,0.,0.0001155
 3,0.,0.,-0.00001794,0.,0.,-0.00082201,0.,0.,0.00005940,-0.00000001,0.,
 0.00483555,0.,0.00000002,0.00002927,0.,0.,0.00000862,0.,0.,-0.00005734
 ,-0.00000002,-0.00000003,-0.00081377,0.,0.,0.00011278,0.,0.,-0.0000194
 8,0.,0.,-0.00000938,0.00000008,0.,0.00279564,0.00000002,-0.00000002,-0
 .00014093,0.00000001,0.,0.00002062,0.00000011,-0.00000002,0.00949811,0
 .,0.,-0.00058466,0.,0.,0.00007289,-0.00000023,0.00000078,-0.03681855,-
 0.00000004,0.00000001,-0.00265921,-0.00000005,0.00000020,0.00352694,-0
 .00000001,0.,0.00021420,0.,0.,-0.00000409,0.,0.,0.00000486,0.,0.,-0.00
 000070,0.,0.,0.00000993,0.,0.,0.00014156,0.,0.,0.00001351,0.,0.,-0.000
 03463,0.,0.,-0.00000408,0.00000018,-0.00000092,0.02537440,-0.00005398,
 0.00014223,0.,0.00016615,-0.00010513,0.,-0.00089434,-0.00014297,0.,-0.
 00015418,-0.00029756,0.,-0.00029613,-0.00008405,0.,0.00015129,-0.00003
 189,0.,-0.00337996,-0.00270263,-0.00000002,-0.00559546,0.00025109,-0.0
 0000003,-0.00043142,0.00029329,0.,0.00008339,0.00016829,0.,0.00064449,
 -0.00103813,0.,-0.00004277,-0.00004295,0.,-0.00005687,-0.00002641,0.,-
 0.00016878,-0.00002813,0.,0.00891356,-0.02190870,-0.00000016,-0.002869
 12,0.03152513,0.00000019,0.00056170,0.00123634,0.,0.00012618,-0.000242
 20,0.,0.00008871,-0.00011793,0.,0.00001610,-0.00006011,0.,0.00141240,-
 0.00145893,0.,-0.07691978,0.06676321,0.00000053,0.00007439,0.00049181,
 0.,0.00002232,0.00021355,0.,-0.00003963,0.00015037,0.,-0.00000175,-0.0
 0000384,0.,0.00000038,0.00000302,0.,0.00000231,0.00000456,0.,0.0007703
 5,-0.00028010,0.,-0.00003518,-0.00003774,0.,0.00000015,0.00000491,0.,0
 .00000679,-0.00001119,0.,-0.00045797,0.00065563,0.,0.07836560,-0.00001
 858,0.00006279,0.,0.00004710,-0.00004719,0.,-0.00050411,0.00051203,0.,
 -0.00003925,-0.00002899,0.,-0.00035109,-0.00016247,0.,0.00000532,-0.00
 005504,0.,-0.00389134,-0.00093868,-0.00000003,0.00113006,0.00177707,-0
 .00000006,0.00023496,0.00007623,0.,0.00003273,0.00002761,0.,0.00101929
 ,-0.00069911,0.,0.00010731,-0.00009399,0.,0.00003546,0.00001576,0.,-0.
 00005196,0.00000539,0.,0.00817345,-0.01745286,-0.00000015,-0.00047253,
 -0.00431232,-0.00000005,-0.00013751,-0.00042437,0.,0.00000548,0.000242
 86,0.,-0.00007061,0.00000556,0.,-0.00005981,-0.00000647,0.,0.00178225,
 0.00106963,0.00000002,0.06748724,-0.32168333,-0.00000198,-0.00036898,-
 0.00000907,0.,-0.00002528,0.00001622,0.,0.00000788,-0.00004262,0.,0.00
 000754,-0.00000126,0.,0.00000302,-0.00000969,0.,0.00000237,-0.00001039
 ,0.,0.00033646,0.00086621,0.00000005,0.00002397,0.00001102,0.,-0.00000
 633,-0.00000331,0.,-0.00000277,-0.00001632,0.,-0.00108142,0.00031149,0
 .,-0.07328419,0.34103925,0.,0.,0.00003494,0.,0.,-0.00082226,0.,0.,-0.0
 0081499,0.,0.,0.00011298,0.,0.,0.00002631,0.,0.,0.00005940,-0.00000002
 ,-0.00000004,0.00483406,-0.00000006,0.,0.00949711,0.,0.,-0.00058508,0.
 ,0.,0.00007287,0.,0.,0.00011553,0.,0.,-0.00001793,0.,0.,-0.00000938,0.
 ,0.,-0.00001946,0.00000009,-0.00000009,0.00279094,0.,-0.00000001,0.003
 52722,0.,-0.00000001,0.00021623,0.,0.,0.00002921,0.,0.,0.00000861,0.,0
 .,-0.00005737,0.00000001,0.,-0.00265866,0.00000044,-0.00000212,-0.0368
 2325,0.,0.00000002,-0.00014110,0.,0.,0.00002059,0.,0.,-0.00003492,0.,0
 .,-0.00000411,0.,0.,0.00000995,0.,0.,-0.00000070,0.00000005,0.00000006
 ,-0.00525600,0.,0.,0.00014179,0.,0.,-0.00000406,0.,0.,0.00000486,-0.00
 000001,0.,0.00021209,-0.00000051,0.00000219,0.02537935,-0.00000820,0.0
 0018358,0.,-0.00002067,-0.00000093,0.,0.00003358,0.00002935,0.,0.00000
 821,0.00007735,0.,-0.00035129,-0.00044270,0.00000001,-0.00010872,-0.00
 006909,0.,0.00043040,-0.00026374,0.,0.00008430,-0.00009986,0.,-0.00000
 430,-0.00004377,0.,-0.00000640,-0.00006469,0.,0.00131229,0.00117520,0.
 ,0.00031661,-0.00011502,0.,0.00010805,0.00005917,0.,0.00005128,0.00003
 940,0.,-0.00067275,-0.00400337,0.00000007,-0.00028120,-0.00032297,0.,-
 0.00004532,0.00004229,0.,-0.00488766,-0.00015653,0.,-0.00003850,0.0004
 3688,0.,-0.00006360,0.00007559,0.,-0.01739573,0.00886873,-0.00000002,-
 0.00065084,0.00084250,0.,-0.31886999,0.07214534,0.00000064,0.00100714,
 -0.00155112,0.,-0.00001025,0.00000491,0.,-0.00000984,0.00000282,0.,-0.
 00000175,0.00000754,0.,-0.00000437,0.00000932,0.,-0.00011007,0.0000329
 6,0.,-0.00000311,-0.00000684,0.,-0.00000629,0.00005383,0.,0.00000496,0
 .00001855,0.,0.00082850,-0.00034755,-0.00000002,0.00000477,-0.00004685
 ,0.,0.33905725,-0.00008051,-0.00044803,0.,-0.00016024,0.00002824,0.,0.
 00018248,0.00008833,0.,0.00011447,0.00008831,0.,0.00160393,0.00030347,
 -0.00000003,0.00007925,-0.00002713,0.,-0.00061362,-0.00082006,0.,0.000
 15831,-0.00026871,0.,-0.00006696,-0.00015989,0.,-0.00000290,-0.0000349
 7,0.,-0.00000483,-0.00563145,-0.00000002,0.00013327,0.00004944,0.,0.00
 010673,-0.00001373,0.,0.00004017,-0.00004092,0.,-0.00311580,-0.0031792
 4,0.00000003,-0.00038197,-0.00007718,0.,-0.00009406,0.00015622,0.,0.02
 990882,-0.00361275,-0.00000004,-0.00042289,0.00010765,0.,-0.00016387,0
 .00010159,0.,-0.02313633,0.01021468,0.00000003,-0.00053197,0.00079321,
 0.,0.07287306,-0.08003719,-0.00000013,0.00169884,0.00146469,-0.0000000
 4,0.00000261,0.00000213,0.,0.00000282,0.00000044,0.,-0.00000384,-0.000
 00126,0.,0.00001743,-0.00000490,0.,-0.00010906,0.00002815,0.,0.0000044
 5,-0.00000003,0.,-0.00000760,-0.00001727,0.,0.00000164,-0.00003157,0.,
 0.00026062,0.00083420,0.,0.00001370,-0.00002886,0.,-0.07721037,0.08062
 089,0.,0.,0.00002639,0.,0.,0.00003492,0.,0.,-0.00082216,-0.00000001,0.
 ,0.00005935,0.00000001,0.,0.00011528,0.,0.,-0.00001790,0.,0.00000007,-
 0.00081483,-0.00000002,0.00000002,0.00011295,0.,0.00000001,-0.00001947
 ,0.,0.,-0.00000936,-0.00000007,-0.00000008,0.00484034,-0.00000001,0.00
 000001,0.00002948,-0.00000001,0.,0.00000863,0.,0.,-0.00005745,0.000000
 09,0.00000007,0.00950842,0.00000003,0.,-0.00058557,0.00000001,0.,0.000
 07288,0.00000018,-0.00000020,0.00278984,0.00000001,0.,-0.00014091,0.,0
 .,0.00002071,0.00000009,-0.00000012,0.00352916,-0.00000001,-0.00000003
 ,0.00021565,0.00000037,0.00000010,-0.03671279,0.,0.00000003,-0.0026610
 3,0.,0.,-0.00000069,0.,0.,0.00000996,0.,0.,-0.00000411,0.,0.,0.0000048
 6,0.,0.,-0.00003487,0.,0.,-0.00000409,0.,0.,0.00014131,0.,0.,0.0000135
 1,-0.00000002,-0.00000003,-0.00526199,0.,0.,0.00014174,-0.00000066,0.0
 0000017,0.02526049,-0.00004578,0.00005189,0.,0.00006326,-0.00002007,0.
 ,-0.00017020,-0.00034930,0.,-0.00005511,0.00000925,0.,0.00048269,-0.00
 052151,0.,-0.00003582,-0.00004048,0.,-0.00068691,0.00103811,0.00000001
 ,-0.00009086,0.00010725,0.,0.00001590,0.00003380,0.,0.00000310,-0.0000
 5453,0.,-0.00104182,-0.00391816,0.,0.00180057,0.00100456,0.00000007,0.
 00008470,0.00022559,0.,0.00003129,0.00003308,0.,0.00023482,0.00000126,
 0.,0.00000190,-0.00006880,0.,-0.00000851,-0.00005860,0.,-0.01771878,0.
 00866261,0.00000019,-0.00372654,-0.00048460,0.00000012,-0.00040284,-0.
 00012165,0.,-0.00000373,-0.00036919,0.,0.00001972,-0.00002588,0.,0.001
 05258,0.00178110,-0.00000004,-0.31922645,0.07230857,0.00000214,-0.0000
 0957,0.00000328,0.,-0.00001025,0.00000261,0.,-0.00003963,0.00000788,0.
 ,-0.00000127,0.00000754,0.,-0.00000330,-0.00000633,0.,-0.00001624,-0.0
 0000245,0.,0.00087028,0.00031737,-0.00000007,0.00001041,0.00002322,0.,
 -0.00003001,-0.00004653,0.,-0.00001371,-0.00002928,0.,0.00030353,-0.00
 109576,0.,0.33836257,-0.00010182,0.00016837,-0.00000002,0.00013851,-0.
 00005608,0.,-0.00008551,-0.00028397,0.,-0.00002761,0.00015218,0.,-0.00
 018775,-0.00087283,0.,-0.00029970,-0.00014884,0.,-0.00100129,0.0006380
 0,0.00000001,-0.00003980,-0.00004541,0.,-0.00002796,-0.00005759,0.,-0.
 00003147,-0.00016763,0.,-0.00274825,-0.00325602,0.00000001,0.00010995,
 -0.00567500,0.00000011,0.00028576,-0.00044583,0.,0.00016974,0.00007950
 ,0.,-0.00024918,0.00012859,0.,-0.00011670,0.00009243,0.,-0.00005980,0.
 00001943,0.,-0.02140505,0.00924423,0.00000018,0.03153294,-0.00348314,-
 0.00000022,0.00125282,0.00054716,0.,0.00049183,0.00007798,0.,0.0002139
 3,0.00001891,0.,-0.00145905,0.00139763,-0.00000002,0.07157634,-0.07971
 544,-0.00000048,0.00000328,0.00000016,0.,0.00000491,0.00000213,0.,0.00
 015037,-0.00004262,0.,-0.00000368,-0.00000196,0.,0.00000504,0.00000028
 ,0.,-0.00001041,0.00000710,0.,-0.00028020,0.00080825,-0.00000003,-0.00
 003739,-0.00003454,0.,0.00001534,0.00000644,0.,-0.00001236,-0.00001279
 ,0.,0.00064007,-0.00044652,0.,-0.07840587,0.08135742,-0.00000003,-0.00
 000001,-0.00082191,0.,0.,0.00003493,0.,0.,0.00002626,0.,0.,0.00005934,
 0.00000001,-0.00000005,-0.00081522,0.,-0.00000001,0.00011296,0.,0.,0.0
 0011544,0.,-0.00000001,-0.00001797,0.,0.,-0.00000937,0.,-0.00000002,-0
 .00001945,0.,0.,0.00484058,0.00000017,0.00000016,0.00950925,0.00000004
 ,0.00000003,-0.00058539,0.00000001,0.,0.00007285,-0.00000003,0.,0.0000
 2937,-0.00000001,0.,0.00000862,0.,0.,-0.00005741,0.00000016,0.,0.00279
 060,-0.00000042,0.00000028,0.00352741,-0.00000007,0.00000002,0.0002156
 9,0.00000003,0.00000002,-0.00014124,0.00000002,0.,0.00002061,-0.000000
 03,-0.00000006,-0.00266119,0.00000260,-0.00000078,-0.03670275,0.,0.,0.
 00000996,0.,0.,-0.00000069,0.,0.,-0.00003492,0.,0.,-0.00000409,0.,0.,-
 0.00000408,0.,0.,0.00000487,-0.00000002,-0.00000006,-0.00526229,0.,0.,
 0.00014172,0.,0.,0.00014161,0.,0.,0.00001351,0.,0.00000002,0.00021134,
 -0.00000243,0.00000044,0.02525108\\-0.00000315,-0.00000842,-0.00000352
 ,0.00002457,0.00001750,0.00000178,0.00001609,-0.00000066,-0.00000012,-
 0.00001262,0.00000120,-0.00000038,-0.00001604,0.00000062,0.00000053,0.
 00003895,-0.00000997,0.00000206,0.00000310,0.00000841,-0.00000027,-0.0
 0002500,0.00001908,-0.00000039,0.00001725,0.00002730,-0.00000065,-0.00
 000929,0.00001052,0.00000027,-0.00002459,-0.00001752,-0.00000124,0.000
 02501,-0.00001904,0.00000271,-0.00000509,-0.00001895,0.00000060,0.0000
 1845,-0.00001465,-0.00000083,-0.00003900,0.00000998,0.00000143,0.00000
 503,-0.00002129,-0.00000087,-0.00002636,-0.00001263,0.00000130,0.00001
 263,-0.00000117,0.00000020,0.00002639,0.00001263,0.00000045,-0.0000050
 4,0.00002130,-0.00000269,-0.00001848,0.00001463,-0.00000106,0.00000513
 ,0.00001895,-0.00000006,0.00000932,-0.00001052,0.00000143,-0.00001725,
 -0.00002730,-0.00000161,-0.00000421,-0.00000010,-0.00000013,-0.0000117
 0,-0.00000139,0.00000017,-0.00000669,-0.00000055,0.00000030,-0.0000059
 0,-0.00000115,-0.00000008,-0.00000313,-0.00000659,0.00000032,-0.000000
 99,-0.00000201,-0.00000008,0.00000098,0.00000201,0.00000007,0.00000314
 ,0.00000659,0.00000025,0.00000590,0.00000113,-0.00000025,0.00000669,0.
 00000055,0.00000012,0.00001170,0.00000139,-0.00000008,0.00000419,0.000
 00010,0.00000031\\\@


 ERWIN WITH HIS PSI CAN DO
 CALCULATIONS QUITE A FEW.
 BUT ONE THING HAS NOT BEEN SEEN
 JUST WHAT DOES PSI REALLY MEAN.
 -- WALTER HUCKEL, TRANS. BY FELIX BLOCH
 Job cpu time:       2 days 18 hours 46 minutes 21.2 seconds.
 File lengths (MBytes):  RWF=   1959 Int=      0 D2E=      0 Chk=     48 Scr=      1
 Normal termination of Gaussian 09 at Tue Jul 13 01:08:58 2021.
