 Entering Gaussian System, Link 0=g09
 Initial command:
 /home/minenky/programs//g09/l1.exe "/local/scratch/minenky/m1_00_120836-04-6-C32H16_wB97XD/Gau-22619.inp" -scrdir="/local/scratch/minenky/m1_00_120836-04-6-C32H16_wB97XD/"
 Entering Link 1 = /home/minenky/programs//g09/l1.exe PID=     22620.
  
 Copyright (c) 1988,1990,1992,1993,1995,1998,2003,2009,2013,
            Gaussian, Inc.  All Rights Reserved.
  
 This is part of the Gaussian(R) 09 program.  It is based on
 the Gaussian(R) 03 system (copyright 2003, Gaussian, Inc.),
 the Gaussian(R) 98 system (copyright 1998, Gaussian, Inc.),
 the Gaussian(R) 94 system (copyright 1995, Gaussian, Inc.),
 the Gaussian 92(TM) system (copyright 1992, Gaussian, Inc.),
 the Gaussian 90(TM) system (copyright 1990, Gaussian, Inc.),
 the Gaussian 88(TM) system (copyright 1988, Gaussian, Inc.),
 the Gaussian 86(TM) system (copyright 1986, Carnegie Mellon
 University), and the Gaussian 82(TM) system (copyright 1983,
 Carnegie Mellon University). Gaussian is a federally registered
 trademark of Gaussian, Inc.
  
 This software contains proprietary and confidential information,
 including trade secrets, belonging to Gaussian, Inc.
  
 This software is provided under written license and may be
 used, copied, transmitted, or stored only in accord with that
 written license.
  
 The following legend is applicable only to US Government
 contracts under FAR:
  
                    RESTRICTED RIGHTS LEGEND
  
 Use, reproduction and disclosure by the US Government is
 subject to restrictions as set forth in subparagraphs (a)
 and (c) of the Commercial Computer Software - Restricted
 Rights clause in FAR 52.227-19.
  
 Gaussian, Inc.
 340 Quinnipiac St., Bldg. 40, Wallingford CT 06492
  
  
 ---------------------------------------------------------------
 Warning -- This program may not be used in any manner that
 competes with the business of Gaussian, Inc. or will provide
 assistance to any competitor of Gaussian, Inc.  The licensee
 of this program is prohibited from giving any competitor of
 Gaussian, Inc. access to this program.  By using this program,
 the user acknowledges that Gaussian, Inc. is engaged in the
 business of creating and licensing software in the field of
 computational chemistry and represents and warrants to the
 licensee that it is not a competitor of Gaussian, Inc. and that
 it will not use this program in any manner prohibited above.
 ---------------------------------------------------------------
  

 Cite this work as:
 Gaussian 09, Revision D.01,
 M. J. Frisch, G. W. Trucks, H. B. Schlegel, G. E. Scuseria, 
 M. A. Robb, J. R. Cheeseman, G. Scalmani, V. Barone, B. Mennucci, 
 G. A. Petersson, H. Nakatsuji, M. Caricato, X. Li, H. P. Hratchian, 
 A. F. Izmaylov, J. Bloino, G. Zheng, J. L. Sonnenberg, M. Hada, 
 M. Ehara, K. Toyota, R. Fukuda, J. Hasegawa, M. Ishida, T. Nakajima, 
 Y. Honda, O. Kitao, H. Nakai, T. Vreven, J. A. Montgomery, Jr., 
 J. E. Peralta, F. Ogliaro, M. Bearpark, J. J. Heyd, E. Brothers, 
 K. N. Kudin, V. N. Staroverov, T. Keith, R. Kobayashi, J. Normand, 
 K. Raghavachari, A. Rendell, J. C. Burant, S. S. Iyengar, J. Tomasi, 
 M. Cossi, N. Rega, J. M. Millam, M. Klene, J. E. Knox, J. B. Cross, 
 V. Bakken, C. Adamo, J. Jaramillo, R. Gomperts, R. E. Stratmann, 
 O. Yazyev, A. J. Austin, R. Cammi, C. Pomelli, J. W. Ochterski, 
 R. L. Martin, K. Morokuma, V. G. Zakrzewski, G. A. Voth, 
 P. Salvador, J. J. Dannenberg, S. Dapprich, A. D. Daniels, 
 O. Farkas, J. B. Foresman, J. V. Ortiz, J. Cioslowski, 
 and D. J. Fox, Gaussian, Inc., Wallingford CT, 2013.
 
 ******************************************
 Gaussian 09:  AM64L-G09RevD.01 24-Apr-2013
                27-Jul-2019 
 ******************************************
 %Mem=32000MB
 %NProcShared=16
 Will use up to   16 processors via shared memory.
 %Chk=m1_00_120836-04-6-C32H16_wB97XD
 ----------------------------------------------------------------------
 #P wB97XD/def2tzvp opt=(tight) freq integral(Grid=ultrafine) # SCF(Max
 Cycle=380) 5d 7f GFPrint
 ----------------------------------------------------------------------
 1/7=10,14=-1,18=20,19=15,26=4,38=1/1,3;
 2/9=110,12=2,17=6,18=5,40=1/2;
 3/5=44,7=101,8=11,11=2,16=1,24=100,25=1,30=1,71=1,74=-58,75=-5/1,2,3;
 4//1;
 5/5=2,7=380,38=5/2;
 6/7=2,8=2,9=2,10=2,28=1/1;
 7//1,2,3,16;
 1/7=10,14=-1,18=20,19=15,26=4/3(2);
 2/9=110/2;
 99//99;
 2/9=110/2;
 3/5=44,7=101,8=11,11=2,16=1,25=1,30=1,71=1,74=-58,75=-5/1,2,3;
 4/5=5,16=3,69=1/1;
 5/5=2,7=380,38=5/2;
 7//1,2,3,16;
 1/7=10,14=-1,18=20,19=15,26=4/3(-5);
 2/9=110/2;
 6/7=2,8=2,9=2,10=2,19=2,28=1/1;
 99/9=1/99;
 Leave Link    1 at Sat Jul 27 13:10:17 2019, MaxMem=  4194304000 cpu:         1.9
 (Enter /home/minenky/programs//g09/l101.exe)
 ---------------------------------------
 The PBEPBE optimization and frequencies
 ---------------------------------------
 Symbolic Z-matrix:
 Charge =  0 Multiplicity = 1
 C                     5.06947   0.2042   -0.25512 
 C                     4.4817    1.40813  -0.41127 
 C                     3.04634   1.56646  -0.31292 
 C                     2.45418   2.80844  -0.39081 
 C                     1.05235   2.94259  -0.247 
 C                     0.44091   4.2283   -0.22071 
 C                    -0.903     4.35319  -0.01835 
 C                     4.28615  -0.97872   0.02272 
 C                     2.71136  -3.23066   0.59407 
 C                     4.08692  -3.33289   0.53513 
 C                     4.87802  -2.21508   0.24682 
 C                     2.08108  -1.99261   0.35754 
 C                     2.87355  -0.8616    0.07851 
 C                     2.24061   0.40305  -0.10952 
 C                     0.65961  -1.86468   0.37101 
 C                     0.02774  -0.67706   0.09859 
 C                     0.84242   0.50435  -0.05876 
 C                     0.24982   1.7939   -0.09644 
 C                    -1.43152  -0.54121   0.02704 
 C                    -4.22638  -0.17174   0.32105 
 C                    -1.98205   0.74745   0.15083 
 C                    -1.15862   1.92842   0.07727 
 C                    -1.72368   3.20294   0.14105 
 C                    -3.13543   3.34701   0.36034 
 C                    -3.92786   2.25532   0.45304 
 C                    -3.38481   0.92866   0.31225 
 C                    -2.32274  -1.63746  -0.16391 
 C                    -3.71454  -1.4487    0.04474 
 C                    -4.61486  -2.5539   -0.0616 
 C                    -4.16646  -3.78191  -0.4432 
 C                    -2.79534  -3.95924  -0.7574 
 C                    -1.91287  -2.92855  -0.62124 
 H                     6.15722   0.09079  -0.32757 
 H                     5.07848   2.30523  -0.61334 
 H                     3.06401   3.70729  -0.54395 
 H                     1.07214   5.11456  -0.35243 
 H                    -1.37177   5.3433    0.02057 
 H                     2.09878  -4.11026   0.8223 
 H                     4.57108  -4.29857   0.71562 
 H                     5.96822  -2.31691   0.20318 
 H                     0.08177  -2.77358   0.59412 
 H                    -5.30087  -0.04429   0.5034 
 H                    -3.54879   4.35825   0.44774 
 H                    -5.00661   2.35378   0.62147 
 H                    -5.67521  -2.38686   0.16078 
 H                    -4.84944  -4.63317  -0.52709 
 H                    -2.45676  -4.93566  -1.11965 
 H                    -0.85919  -3.08907  -0.88801 
 
 NAtoms=     48 NQM=       48 NQMF=       0 NMMI=      0 NMMIF=      0
                NMic=       0 NMicF=      0.
                    Isotopes and Nuclear Properties:
 (Nuclear quadrupole moments (NQMom) in fm**2, nuclear magnetic moments (NMagM)
  in nuclear magnetons)

  Atom         1           2           3           4           5           6           7           8           9          10
 IAtWgt=          12          12          12          12          12          12          12          12          12          12
 AtmWgt=  12.0000000  12.0000000  12.0000000  12.0000000  12.0000000  12.0000000  12.0000000  12.0000000  12.0000000  12.0000000
 NucSpn=           0           0           0           0           0           0           0           0           0           0
 AtZEff=   0.0000000   0.0000000   0.0000000   0.0000000   0.0000000   0.0000000   0.0000000   0.0000000   0.0000000   0.0000000
 NQMom=    0.0000000   0.0000000   0.0000000   0.0000000   0.0000000   0.0000000   0.0000000   0.0000000   0.0000000   0.0000000
 NMagM=    0.0000000   0.0000000   0.0000000   0.0000000   0.0000000   0.0000000   0.0000000   0.0000000   0.0000000   0.0000000
 AtZNuc=   6.0000000   6.0000000   6.0000000   6.0000000   6.0000000   6.0000000   6.0000000   6.0000000   6.0000000   6.0000000

  Atom        11          12          13          14          15          16          17          18          19          20
 IAtWgt=          12          12          12          12          12          12          12          12          12          12
 AtmWgt=  12.0000000  12.0000000  12.0000000  12.0000000  12.0000000  12.0000000  12.0000000  12.0000000  12.0000000  12.0000000
 NucSpn=           0           0           0           0           0           0           0           0           0           0
 AtZEff=   0.0000000   0.0000000   0.0000000   0.0000000   0.0000000   0.0000000   0.0000000   0.0000000   0.0000000   0.0000000
 NQMom=    0.0000000   0.0000000   0.0000000   0.0000000   0.0000000   0.0000000   0.0000000   0.0000000   0.0000000   0.0000000
 NMagM=    0.0000000   0.0000000   0.0000000   0.0000000   0.0000000   0.0000000   0.0000000   0.0000000   0.0000000   0.0000000
 AtZNuc=   6.0000000   6.0000000   6.0000000   6.0000000   6.0000000   6.0000000   6.0000000   6.0000000   6.0000000   6.0000000

  Atom        21          22          23          24          25          26          27          28          29          30
 IAtWgt=          12          12          12          12          12          12          12          12          12          12
 AtmWgt=  12.0000000  12.0000000  12.0000000  12.0000000  12.0000000  12.0000000  12.0000000  12.0000000  12.0000000  12.0000000
 NucSpn=           0           0           0           0           0           0           0           0           0           0
 AtZEff=   0.0000000   0.0000000   0.0000000   0.0000000   0.0000000   0.0000000   0.0000000   0.0000000   0.0000000   0.0000000
 NQMom=    0.0000000   0.0000000   0.0000000   0.0000000   0.0000000   0.0000000   0.0000000   0.0000000   0.0000000   0.0000000
 NMagM=    0.0000000   0.0000000   0.0000000   0.0000000   0.0000000   0.0000000   0.0000000   0.0000000   0.0000000   0.0000000
 AtZNuc=   6.0000000   6.0000000   6.0000000   6.0000000   6.0000000   6.0000000   6.0000000   6.0000000   6.0000000   6.0000000

  Atom        31          32          33          34          35          36          37          38          39          40
 IAtWgt=          12          12           1           1           1           1           1           1           1           1
 AtmWgt=  12.0000000  12.0000000   1.0078250   1.0078250   1.0078250   1.0078250   1.0078250   1.0078250   1.0078250   1.0078250
 NucSpn=           0           0           1           1           1           1           1           1           1           1
 AtZEff=   0.0000000   0.0000000   0.0000000   0.0000000   0.0000000   0.0000000   0.0000000   0.0000000   0.0000000   0.0000000
 NQMom=    0.0000000   0.0000000   0.0000000   0.0000000   0.0000000   0.0000000   0.0000000   0.0000000   0.0000000   0.0000000
 NMagM=    0.0000000   0.0000000   2.7928460   2.7928460   2.7928460   2.7928460   2.7928460   2.7928460   2.7928460   2.7928460
 AtZNuc=   6.0000000   6.0000000   1.0000000   1.0000000   1.0000000   1.0000000   1.0000000   1.0000000   1.0000000   1.0000000

  Atom        41          42          43          44          45          46          47          48
 IAtWgt=           1           1           1           1           1           1           1           1
 AtmWgt=   1.0078250   1.0078250   1.0078250   1.0078250   1.0078250   1.0078250   1.0078250   1.0078250
 NucSpn=           1           1           1           1           1           1           1           1
 AtZEff=   0.0000000   0.0000000   0.0000000   0.0000000   0.0000000   0.0000000   0.0000000   0.0000000
 NQMom=    0.0000000   0.0000000   0.0000000   0.0000000   0.0000000   0.0000000   0.0000000   0.0000000
 NMagM=    2.7928460   2.7928460   2.7928460   2.7928460   2.7928460   2.7928460   2.7928460   2.7928460
 AtZNuc=   1.0000000   1.0000000   1.0000000   1.0000000   1.0000000   1.0000000   1.0000000   1.0000000
 Leave Link  101 at Sat Jul 27 13:10:18 2019, MaxMem=  4194304000 cpu:         9.1
 (Enter /home/minenky/programs//g09/l103.exe)

 GradGradGradGradGradGradGradGradGradGradGradGradGradGradGradGradGradGrad
 Berny optimization.
 Initialization pass.
                           ----------------------------
                           !    Initial Parameters    !
                           ! (Angstroms and Degrees)  !
 --------------------------                            --------------------------
 ! Name  Definition              Value          Derivative Info.                !
 --------------------------------------------------------------------------------
 ! R1    R(1,2)                  1.3488         estimate D2E/DX2                !
 ! R2    R(1,8)                  1.4457         estimate D2E/DX2                !
 ! R3    R(1,33)                 1.096          estimate D2E/DX2                !
 ! R4    R(2,3)                  1.4474         estimate D2E/DX2                !
 ! R5    R(2,34)                 1.0963         estimate D2E/DX2                !
 ! R6    R(3,4)                  1.3781         estimate D2E/DX2                !
 ! R7    R(3,14)                 1.4297         estimate D2E/DX2                !
 ! R8    R(4,5)                  1.4156         estimate D2E/DX2                !
 ! R9    R(4,35)                 1.0969         estimate D2E/DX2                !
 ! R10   R(5,6)                  1.4239         estimate D2E/DX2                !
 ! R11   R(5,18)                 1.4093         estimate D2E/DX2                !
 ! R12   R(6,7)                  1.3648         estimate D2E/DX2                !
 ! R13   R(6,36)                 1.096          estimate D2E/DX2                !
 ! R14   R(7,23)                 1.422          estimate D2E/DX2                !
 ! R15   R(7,37)                 1.0962         estimate D2E/DX2                !
 ! R16   R(8,11)                 1.3889         estimate D2E/DX2                !
 ! R17   R(8,13)                 1.4185         estimate D2E/DX2                !
 ! R18   R(9,10)                 1.3806         estimate D2E/DX2                !
 ! R19   R(9,12)                 1.4093         estimate D2E/DX2                !
 ! R20   R(9,38)                 1.0959         estimate D2E/DX2                !
 ! R21   R(10,11)                1.3995         estimate D2E/DX2                !
 ! R22   R(10,39)                1.0952         estimate D2E/DX2                !
 ! R23   R(11,40)                1.0958         estimate D2E/DX2                !
 ! R24   R(12,13)                1.4089         estimate D2E/DX2                !
 ! R25   R(12,15)                1.4273         estimate D2E/DX2                !
 ! R26   R(13,14)                1.4266         estimate D2E/DX2                !
 ! R27   R(14,17)                1.4028         estimate D2E/DX2                !
 ! R28   R(15,16)                1.3726         estimate D2E/DX2                !
 ! R29   R(15,41)                1.0999         estimate D2E/DX2                !
 ! R30   R(16,17)                1.4437         estimate D2E/DX2                !
 ! R31   R(16,19)                1.4673         estimate D2E/DX2                !
 ! R32   R(17,18)                1.4197         estimate D2E/DX2                !
 ! R33   R(18,22)                1.4255         estimate D2E/DX2                !
 ! R34   R(19,21)                1.4068         estimate D2E/DX2                !
 ! R35   R(19,27)                1.4257         estimate D2E/DX2                !
 ! R36   R(20,26)                1.3854         estimate D2E/DX2                !
 ! R37   R(20,28)                1.4032         estimate D2E/DX2                !
 ! R38   R(20,42)                1.0973         estimate D2E/DX2                !
 ! R39   R(21,22)                1.4416         estimate D2E/DX2                !
 ! R40   R(21,26)                1.4236         estimate D2E/DX2                !
 ! R41   R(22,23)                1.3956         estimate D2E/DX2                !
 ! R42   R(23,24)                1.4359         estimate D2E/DX2                !
 ! R43   R(24,25)                1.3522         estimate D2E/DX2                !
 ! R44   R(24,43)                1.0959         estimate D2E/DX2                !
 ! R45   R(25,26)                1.4404         estimate D2E/DX2                !
 ! R46   R(25,44)                1.0963         estimate D2E/DX2                !
 ! R47   R(27,28)                1.42           estimate D2E/DX2                !
 ! R48   R(27,32)                1.4297         estimate D2E/DX2                !
 ! R49   R(28,29)                1.4295         estimate D2E/DX2                !
 ! R50   R(29,30)                1.3619         estimate D2E/DX2                !
 ! R51   R(29,45)                1.0962         estimate D2E/DX2                !
 ! R52   R(30,31)                1.4178         estimate D2E/DX2                !
 ! R53   R(30,46)                1.0946         estimate D2E/DX2                !
 ! R54   R(31,32)                1.3637         estimate D2E/DX2                !
 ! R55   R(31,47)                1.0951         estimate D2E/DX2                !
 ! R56   R(32,48)                1.0987         estimate D2E/DX2                !
 ! A1    A(2,1,8)              121.0963         estimate D2E/DX2                !
 ! A2    A(2,1,33)             121.1427         estimate D2E/DX2                !
 ! A3    A(8,1,33)             117.7597         estimate D2E/DX2                !
 ! A4    A(1,2,3)              121.4605         estimate D2E/DX2                !
 ! A5    A(1,2,34)             120.9673         estimate D2E/DX2                !
 ! A6    A(3,2,34)             117.5715         estimate D2E/DX2                !
 ! A7    A(2,3,4)              121.3894         estimate D2E/DX2                !
 ! A8    A(2,3,14)             118.654          estimate D2E/DX2                !
 ! A9    A(4,3,14)             119.9491         estimate D2E/DX2                !
 ! A10   A(3,4,5)              120.3435         estimate D2E/DX2                !
 ! A11   A(3,4,35)             120.4959         estimate D2E/DX2                !
 ! A12   A(5,4,35)             119.1485         estimate D2E/DX2                !
 ! A13   A(4,5,6)              120.8424         estimate D2E/DX2                !
 ! A14   A(4,5,18)             119.8365         estimate D2E/DX2                !
 ! A15   A(6,5,18)             119.3047         estimate D2E/DX2                !
 ! A16   A(5,6,7)              120.5434         estimate D2E/DX2                !
 ! A17   A(5,6,36)             118.7243         estimate D2E/DX2                !
 ! A18   A(7,6,36)             120.7272         estimate D2E/DX2                !
 ! A19   A(6,7,23)             120.7248         estimate D2E/DX2                !
 ! A20   A(6,7,37)             120.5986         estimate D2E/DX2                !
 ! A21   A(23,7,37)            118.6762         estimate D2E/DX2                !
 ! A22   A(1,8,11)             121.9017         estimate D2E/DX2                !
 ! A23   A(1,8,13)             118.6563         estimate D2E/DX2                !
 ! A24   A(11,8,13)            119.4393         estimate D2E/DX2                !
 ! A25   A(10,9,12)            120.2314         estimate D2E/DX2                !
 ! A26   A(10,9,38)            120.4232         estimate D2E/DX2                !
 ! A27   A(12,9,38)            119.3452         estimate D2E/DX2                !
 ! A28   A(9,10,11)            120.856          estimate D2E/DX2                !
 ! A29   A(9,10,39)            119.9135         estimate D2E/DX2                !
 ! A30   A(11,10,39)           119.2305         estimate D2E/DX2                !
 ! A31   A(8,11,10)            120.2221         estimate D2E/DX2                !
 ! A32   A(8,11,40)            120.0163         estimate D2E/DX2                !
 ! A33   A(10,11,40)           119.7609         estimate D2E/DX2                !
 ! A34   A(9,12,13)            119.1374         estimate D2E/DX2                !
 ! A35   A(9,12,15)            121.5061         estimate D2E/DX2                !
 ! A36   A(13,12,15)           119.347          estimate D2E/DX2                !
 ! A37   A(8,13,12)            120.1076         estimate D2E/DX2                !
 ! A38   A(8,13,14)            120.651          estimate D2E/DX2                !
 ! A39   A(12,13,14)           119.2191         estimate D2E/DX2                !
 ! A40   A(3,14,13)            119.3442         estimate D2E/DX2                !
 ! A41   A(3,14,17)            120.5375         estimate D2E/DX2                !
 ! A42   A(13,14,17)           120.0965         estimate D2E/DX2                !
 ! A43   A(12,15,16)           122.2877         estimate D2E/DX2                !
 ! A44   A(12,15,41)           116.8118         estimate D2E/DX2                !
 ! A45   A(16,15,41)           120.8917         estimate D2E/DX2                !
 ! A46   A(15,16,17)           118.0292         estimate D2E/DX2                !
 ! A47   A(15,16,19)           123.204          estimate D2E/DX2                !
 ! A48   A(17,16,19)           118.6939         estimate D2E/DX2                !
 ! A49   A(14,17,16)           120.485          estimate D2E/DX2                !
 ! A50   A(14,17,18)           118.7301         estimate D2E/DX2                !
 ! A51   A(16,17,18)           120.708          estimate D2E/DX2                !
 ! A52   A(5,18,17)            120.3639         estimate D2E/DX2                !
 ! A53   A(5,18,22)            119.9163         estimate D2E/DX2                !
 ! A54   A(17,18,22)           119.6639         estimate D2E/DX2                !
 ! A55   A(16,19,21)           118.0156         estimate D2E/DX2                !
 ! A56   A(16,19,27)           123.8512         estimate D2E/DX2                !
 ! A57   A(21,19,27)           118.133          estimate D2E/DX2                !
 ! A58   A(26,20,28)           120.0009         estimate D2E/DX2                !
 ! A59   A(26,20,42)           120.2425         estimate D2E/DX2                !
 ! A60   A(28,20,42)           119.7102         estimate D2E/DX2                !
 ! A61   A(19,21,22)           121.4936         estimate D2E/DX2                !
 ! A62   A(19,21,26)           120.8101         estimate D2E/DX2                !
 ! A63   A(22,21,26)           117.6681         estimate D2E/DX2                !
 ! A64   A(18,22,21)           119.5568         estimate D2E/DX2                !
 ! A65   A(18,22,23)           119.4585         estimate D2E/DX2                !
 ! A66   A(21,22,23)           120.9662         estimate D2E/DX2                !
 ! A67   A(7,23,22)            119.995          estimate D2E/DX2                !
 ! A68   A(7,23,24)            120.2239         estimate D2E/DX2                !
 ! A69   A(22,23,24)           119.7801         estimate D2E/DX2                !
 ! A70   A(23,24,25)           120.3738         estimate D2E/DX2                !
 ! A71   A(23,24,43)           118.3969         estimate D2E/DX2                !
 ! A72   A(25,24,43)           121.2292         estimate D2E/DX2                !
 ! A73   A(24,25,26)           121.0623         estimate D2E/DX2                !
 ! A74   A(24,25,44)           120.9782         estimate D2E/DX2                !
 ! A75   A(26,25,44)           117.9521         estimate D2E/DX2                !
 ! A76   A(20,26,21)           119.8809         estimate D2E/DX2                !
 ! A77   A(20,26,25)           120.1283         estimate D2E/DX2                !
 ! A78   A(21,26,25)           119.9881         estimate D2E/DX2                !
 ! A79   A(19,27,28)           119.3956         estimate D2E/DX2                !
 ! A80   A(19,27,32)           123.9192         estimate D2E/DX2                !
 ! A81   A(28,27,32)           116.6182         estimate D2E/DX2                !
 ! A82   A(20,28,27)           120.4935         estimate D2E/DX2                !
 ! A83   A(20,28,29)           119.2429         estimate D2E/DX2                !
 ! A84   A(27,28,29)           120.2409         estimate D2E/DX2                !
 ! A85   A(28,29,30)           120.7062         estimate D2E/DX2                !
 ! A86   A(28,29,45)           118.4453         estimate D2E/DX2                !
 ! A87   A(30,29,45)           120.8453         estimate D2E/DX2                !
 ! A88   A(29,30,31)           119.5571         estimate D2E/DX2                !
 ! A89   A(29,30,46)           121.1506         estimate D2E/DX2                !
 ! A90   A(31,30,46)           119.2855         estimate D2E/DX2                !
 ! A91   A(30,31,32)           120.608          estimate D2E/DX2                !
 ! A92   A(30,31,47)           118.9354         estimate D2E/DX2                !
 ! A93   A(32,31,47)           120.4547         estimate D2E/DX2                !
 ! A94   A(27,32,31)           121.9352         estimate D2E/DX2                !
 ! A95   A(27,32,48)           118.9817         estimate D2E/DX2                !
 ! A96   A(31,32,48)           119.0736         estimate D2E/DX2                !
 ! D1    D(8,1,2,3)             -0.2398         estimate D2E/DX2                !
 ! D2    D(8,1,2,34)           179.4691         estimate D2E/DX2                !
 ! D3    D(33,1,2,3)          -179.8073         estimate D2E/DX2                !
 ! D4    D(33,1,2,34)           -0.0984         estimate D2E/DX2                !
 ! D5    D(2,1,8,11)          -177.0107         estimate D2E/DX2                !
 ! D6    D(2,1,8,13)             2.391          estimate D2E/DX2                !
 ! D7    D(33,1,8,11)            2.5709         estimate D2E/DX2                !
 ! D8    D(33,1,8,13)         -178.0274         estimate D2E/DX2                !
 ! D9    D(1,2,3,4)            175.959          estimate D2E/DX2                !
 ! D10   D(1,2,3,14)            -3.0394         estimate D2E/DX2                !
 ! D11   D(34,2,3,4)            -3.7594         estimate D2E/DX2                !
 ! D12   D(34,2,3,14)          177.2422         estimate D2E/DX2                !
 ! D13   D(2,3,4,5)           -177.8737         estimate D2E/DX2                !
 ! D14   D(2,3,4,35)             0.8469         estimate D2E/DX2                !
 ! D15   D(14,3,4,5)             1.1118         estimate D2E/DX2                !
 ! D16   D(14,3,4,35)          179.8324         estimate D2E/DX2                !
 ! D17   D(2,3,14,13)            4.1082         estimate D2E/DX2                !
 ! D18   D(2,3,14,17)         -177.5913         estimate D2E/DX2                !
 ! D19   D(4,3,14,13)         -174.9049         estimate D2E/DX2                !
 ! D20   D(4,3,14,17)            3.3955         estimate D2E/DX2                !
 ! D21   D(3,4,5,6)            175.0401         estimate D2E/DX2                !
 ! D22   D(3,4,5,18)            -3.4762         estimate D2E/DX2                !
 ! D23   D(35,4,5,6)            -3.6976         estimate D2E/DX2                !
 ! D24   D(35,4,5,18)          177.786          estimate D2E/DX2                !
 ! D25   D(4,5,6,7)           -176.8786         estimate D2E/DX2                !
 ! D26   D(4,5,6,36)             2.303          estimate D2E/DX2                !
 ! D27   D(18,5,6,7)             1.6456         estimate D2E/DX2                !
 ! D28   D(18,5,6,36)         -179.1729         estimate D2E/DX2                !
 ! D29   D(4,5,18,17)            1.3856         estimate D2E/DX2                !
 ! D30   D(4,5,18,22)          178.6555         estimate D2E/DX2                !
 ! D31   D(6,5,18,17)         -177.1537         estimate D2E/DX2                !
 ! D32   D(6,5,18,22)            0.1162         estimate D2E/DX2                !
 ! D33   D(5,6,7,23)            -1.38           estimate D2E/DX2                !
 ! D34   D(5,6,7,37)           178.8615         estimate D2E/DX2                !
 ! D35   D(36,6,7,23)          179.455          estimate D2E/DX2                !
 ! D36   D(36,6,7,37)           -0.3036         estimate D2E/DX2                !
 ! D37   D(6,7,23,22)           -0.6739         estimate D2E/DX2                !
 ! D38   D(6,7,23,24)          179.6768         estimate D2E/DX2                !
 ! D39   D(37,7,23,22)         179.0892         estimate D2E/DX2                !
 ! D40   D(37,7,23,24)          -0.5601         estimate D2E/DX2                !
 ! D41   D(1,8,11,10)          178.9157         estimate D2E/DX2                !
 ! D42   D(1,8,11,40)           -0.7776         estimate D2E/DX2                !
 ! D43   D(13,8,11,10)          -0.4814         estimate D2E/DX2                !
 ! D44   D(13,8,11,40)         179.8252         estimate D2E/DX2                !
 ! D45   D(1,8,13,12)         -179.4955         estimate D2E/DX2                !
 ! D46   D(1,8,13,14)           -1.2257         estimate D2E/DX2                !
 ! D47   D(11,8,13,12)          -0.0787         estimate D2E/DX2                !
 ! D48   D(11,8,13,14)         178.1911         estimate D2E/DX2                !
 ! D49   D(12,9,10,11)           0.2742         estimate D2E/DX2                !
 ! D50   D(12,9,10,39)        -179.7384         estimate D2E/DX2                !
 ! D51   D(38,9,10,11)        -179.8851         estimate D2E/DX2                !
 ! D52   D(38,9,10,39)           0.1022         estimate D2E/DX2                !
 ! D53   D(10,9,12,13)          -0.8251         estimate D2E/DX2                !
 ! D54   D(10,9,12,15)         178.049          estimate D2E/DX2                !
 ! D55   D(38,9,12,13)         179.3325         estimate D2E/DX2                !
 ! D56   D(38,9,12,15)          -1.7934         estimate D2E/DX2                !
 ! D57   D(9,10,11,8)            0.3893         estimate D2E/DX2                !
 ! D58   D(9,10,11,40)        -179.9166         estimate D2E/DX2                !
 ! D59   D(39,10,11,8)        -179.5982         estimate D2E/DX2                !
 ! D60   D(39,10,11,40)          0.096          estimate D2E/DX2                !
 ! D61   D(9,12,13,8)            0.7263         estimate D2E/DX2                !
 ! D62   D(9,12,13,14)        -177.5683         estimate D2E/DX2                !
 ! D63   D(15,12,13,8)        -178.1725         estimate D2E/DX2                !
 ! D64   D(15,12,13,14)          3.533          estimate D2E/DX2                !
 ! D65   D(9,12,15,16)        -177.7614         estimate D2E/DX2                !
 ! D66   D(9,12,15,41)           1.1644         estimate D2E/DX2                !
 ! D67   D(13,12,15,16)          1.1104         estimate D2E/DX2                !
 ! D68   D(13,12,15,41)       -179.9638         estimate D2E/DX2                !
 ! D69   D(8,13,14,3)           -2.0182         estimate D2E/DX2                !
 ! D70   D(8,13,14,17)         179.6738         estimate D2E/DX2                !
 ! D71   D(12,13,14,3)         176.2669         estimate D2E/DX2                !
 ! D72   D(12,13,14,17)         -2.0412         estimate D2E/DX2                !
 ! D73   D(3,14,17,16)         177.7662         estimate D2E/DX2                !
 ! D74   D(3,14,17,18)          -5.4006         estimate D2E/DX2                !
 ! D75   D(13,14,17,16)         -3.9461         estimate D2E/DX2                !
 ! D76   D(13,14,17,18)        172.887          estimate D2E/DX2                !
 ! D77   D(12,15,16,17)         -6.9691         estimate D2E/DX2                !
 ! D78   D(12,15,16,19)        176.1803         estimate D2E/DX2                !
 ! D79   D(41,15,16,17)        174.1481         estimate D2E/DX2                !
 ! D80   D(41,15,16,19)         -2.7025         estimate D2E/DX2                !
 ! D81   D(15,16,17,14)          8.3837         estimate D2E/DX2                !
 ! D82   D(15,16,17,18)       -168.3863         estimate D2E/DX2                !
 ! D83   D(19,16,17,14)       -174.6203         estimate D2E/DX2                !
 ! D84   D(19,16,17,18)          8.6097         estimate D2E/DX2                !
 ! D85   D(15,16,19,21)        160.9139         estimate D2E/DX2                !
 ! D86   D(15,16,19,27)        -19.2572         estimate D2E/DX2                !
 ! D87   D(17,16,19,21)        -15.9168         estimate D2E/DX2                !
 ! D88   D(17,16,19,27)        163.9121         estimate D2E/DX2                !
 ! D89   D(14,17,18,5)           3.0163         estimate D2E/DX2                !
 ! D90   D(14,17,18,22)       -174.2605         estimate D2E/DX2                !
 ! D91   D(16,17,18,5)         179.8421         estimate D2E/DX2                !
 ! D92   D(16,17,18,22)          2.5654         estimate D2E/DX2                !
 ! D93   D(5,18,22,21)         176.3287         estimate D2E/DX2                !
 ! D94   D(5,18,22,23)          -2.1256         estimate D2E/DX2                !
 ! D95   D(17,18,22,21)         -6.3823         estimate D2E/DX2                !
 ! D96   D(17,18,22,23)        175.1635         estimate D2E/DX2                !
 ! D97   D(16,19,21,22)         12.4376         estimate D2E/DX2                !
 ! D98   D(16,19,21,26)       -169.5397         estimate D2E/DX2                !
 ! D99   D(27,19,21,22)       -167.4012         estimate D2E/DX2                !
 ! D100  D(27,19,21,26)         10.6214         estimate D2E/DX2                !
 ! D101  D(16,19,27,28)        167.5389         estimate D2E/DX2                !
 ! D102  D(16,19,27,32)        -15.5427         estimate D2E/DX2                !
 ! D103  D(21,19,27,28)        -12.6324         estimate D2E/DX2                !
 ! D104  D(21,19,27,32)        164.286          estimate D2E/DX2                !
 ! D105  D(28,20,26,21)         -6.0555         estimate D2E/DX2                !
 ! D106  D(28,20,26,25)        173.3431         estimate D2E/DX2                !
 ! D107  D(42,20,26,21)        176.4283         estimate D2E/DX2                !
 ! D108  D(42,20,26,25)         -4.1731         estimate D2E/DX2                !
 ! D109  D(26,20,28,27)          3.9            estimate D2E/DX2                !
 ! D110  D(26,20,28,29)       -174.3692         estimate D2E/DX2                !
 ! D111  D(42,20,28,27)       -178.5705         estimate D2E/DX2                !
 ! D112  D(42,20,28,29)          3.1603         estimate D2E/DX2                !
 ! D113  D(19,21,22,18)         -1.3474         estimate D2E/DX2                !
 ! D114  D(19,21,22,23)        177.0829         estimate D2E/DX2                !
 ! D115  D(26,21,22,18)       -179.4299         estimate D2E/DX2                !
 ! D116  D(26,21,22,23)         -0.9996         estimate D2E/DX2                !
 ! D117  D(19,21,26,20)         -1.3271         estimate D2E/DX2                !
 ! D118  D(19,21,26,25)        179.2734         estimate D2E/DX2                !
 ! D119  D(22,21,26,20)        176.7691         estimate D2E/DX2                !
 ! D120  D(22,21,26,25)         -2.6303         estimate D2E/DX2                !
 ! D121  D(18,22,23,7)           2.4126         estimate D2E/DX2                !
 ! D122  D(18,22,23,24)       -177.9365         estimate D2E/DX2                !
 ! D123  D(21,22,23,7)        -176.0193         estimate D2E/DX2                !
 ! D124  D(21,22,23,24)          3.6316         estimate D2E/DX2                !
 ! D125  D(7,23,24,25)         177.0539         estimate D2E/DX2                !
 ! D126  D(7,23,24,43)          -2.8333         estimate D2E/DX2                !
 ! D127  D(22,23,24,25)         -2.5962         estimate D2E/DX2                !
 ! D128  D(22,23,24,43)        177.5167         estimate D2E/DX2                !
 ! D129  D(23,24,25,26)         -1.0783         estimate D2E/DX2                !
 ! D130  D(23,24,25,44)        179.9297         estimate D2E/DX2                !
 ! D131  D(43,24,25,26)        178.8056         estimate D2E/DX2                !
 ! D132  D(43,24,25,44)         -0.1864         estimate D2E/DX2                !
 ! D133  D(24,25,26,20)       -175.6678         estimate D2E/DX2                !
 ! D134  D(24,25,26,21)          3.7301         estimate D2E/DX2                !
 ! D135  D(44,25,26,20)          3.3539         estimate D2E/DX2                !
 ! D136  D(44,25,26,21)       -177.2482         estimate D2E/DX2                !
 ! D137  D(19,27,28,20)          5.5816         estimate D2E/DX2                !
 ! D138  D(19,27,28,29)       -176.1665         estimate D2E/DX2                !
 ! D139  D(32,27,28,20)       -171.5583         estimate D2E/DX2                !
 ! D140  D(32,27,28,29)          6.6936         estimate D2E/DX2                !
 ! D141  D(19,27,32,31)        178.301          estimate D2E/DX2                !
 ! D142  D(19,27,32,48)         -2.8339         estimate D2E/DX2                !
 ! D143  D(28,27,32,31)         -4.702          estimate D2E/DX2                !
 ! D144  D(28,27,32,48)        174.1631         estimate D2E/DX2                !
 ! D145  D(20,28,29,30)        174.2245         estimate D2E/DX2                !
 ! D146  D(20,28,29,45)         -5.1358         estimate D2E/DX2                !
 ! D147  D(27,28,29,30)         -4.0491         estimate D2E/DX2                !
 ! D148  D(27,28,29,45)        176.5905         estimate D2E/DX2                !
 ! D149  D(28,29,30,31)         -0.9576         estimate D2E/DX2                !
 ! D150  D(28,29,30,46)       -179.9962         estimate D2E/DX2                !
 ! D151  D(45,29,30,31)        178.3873         estimate D2E/DX2                !
 ! D152  D(45,29,30,46)         -0.6512         estimate D2E/DX2                !
 ! D153  D(29,30,31,32)          3.0577         estimate D2E/DX2                !
 ! D154  D(29,30,31,47)       -176.4358         estimate D2E/DX2                !
 ! D155  D(46,30,31,32)       -177.8856         estimate D2E/DX2                !
 ! D156  D(46,30,31,47)          2.6208         estimate D2E/DX2                !
 ! D157  D(30,31,32,27)         -0.1141         estimate D2E/DX2                !
 ! D158  D(30,31,32,48)       -178.9782         estimate D2E/DX2                !
 ! D159  D(47,31,32,27)        179.3717         estimate D2E/DX2                !
 ! D160  D(47,31,32,48)          0.5077         estimate D2E/DX2                !
 --------------------------------------------------------------------------------
 Trust Radius=3.00D-01 FncErr=1.00D-07 GrdErr=1.00D-06
 Number of steps in this run=    288 maximum allowed number of steps=    288.
 GradGradGradGradGradGradGradGradGradGradGradGradGradGradGradGradGradGrad

 Leave Link  103 at Sat Jul 27 13:10:18 2019, MaxMem=  4194304000 cpu:         0.3
 (Enter /home/minenky/programs//g09/l202.exe)
                          Input orientation:                          
 ---------------------------------------------------------------------
 Center     Atomic      Atomic             Coordinates (Angstroms)
 Number     Number       Type             X           Y           Z
 ---------------------------------------------------------------------
      1          6           0        5.069465    0.204199   -0.255116
      2          6           0        4.481698    1.408129   -0.411269
      3          6           0        3.046339    1.566461   -0.312921
      4          6           0        2.454179    2.808439   -0.390810
      5          6           0        1.052346    2.942590   -0.246999
      6          6           0        0.440908    4.228303   -0.220712
      7          6           0       -0.902997    4.353188   -0.018347
      8          6           0        4.286148   -0.978721    0.022716
      9          6           0        2.711361   -3.230665    0.594070
     10          6           0        4.086921   -3.332888    0.535126
     11          6           0        4.878025   -2.215079    0.246818
     12          6           0        2.081076   -1.992610    0.357537
     13          6           0        2.873553   -0.861601    0.078508
     14          6           0        2.240605    0.403047   -0.109522
     15          6           0        0.659611   -1.864676    0.371013
     16          6           0        0.027742   -0.677061    0.098592
     17          6           0        0.842417    0.504347   -0.058755
     18          6           0        0.249819    1.793895   -0.096440
     19          6           0       -1.431517   -0.541210    0.027044
     20          6           0       -4.226382   -0.171736    0.321050
     21          6           0       -1.982052    0.747452    0.150833
     22          6           0       -1.158619    1.928418    0.077267
     23          6           0       -1.723677    3.202937    0.141052
     24          6           0       -3.135431    3.347013    0.360342
     25          6           0       -3.927856    2.255319    0.453043
     26          6           0       -3.384807    0.928664    0.312249
     27          6           0       -2.322741   -1.637459   -0.163913
     28          6           0       -3.714543   -1.448703    0.044744
     29          6           0       -4.614861   -2.553898   -0.061600
     30          6           0       -4.166464   -3.781909   -0.443205
     31          6           0       -2.795345   -3.959239   -0.757405
     32          6           0       -1.912873   -2.928552   -0.621235
     33          1           0        6.157220    0.090791   -0.327568
     34          1           0        5.078477    2.305230   -0.613343
     35          1           0        3.064008    3.707286   -0.543946
     36          1           0        1.072145    5.114563   -0.352432
     37          1           0       -1.371767    5.343303    0.020571
     38          1           0        2.098781   -4.110265    0.822296
     39          1           0        4.571082   -4.298575    0.715619
     40          1           0        5.968218   -2.316905    0.203182
     41          1           0        0.081774   -2.773580    0.594123
     42          1           0       -5.300869   -0.044289    0.503404
     43          1           0       -3.548788    4.358251    0.447742
     44          1           0       -5.006613    2.353776    0.621473
     45          1           0       -5.675213   -2.386857    0.160781
     46          1           0       -4.849445   -4.633173   -0.527087
     47          1           0       -2.456765   -4.935660   -1.119646
     48          1           0       -0.859193   -3.089072   -0.888013
 ---------------------------------------------------------------------
                    Distance matrix (angstroms):
                    1          2          3          4          5
     1  C    0.000000
     2  C    1.348815   0.000000
     3  C    2.439700   1.447410   0.000000
     4  C    3.693264   2.464167   1.378125   0.000000
     5  C    4.861697   3.760586   2.423651   1.415561   0.000000
     6  C    6.133363   4.931296   3.725879   2.469455   1.423941
     7  C    7.276020   6.150016   4.842507   3.714244   2.421866
     8  C    1.445709   2.433851   2.850917   4.227256   5.089881
     9  C    4.252065   5.065886   4.893594   6.124288   6.447387
    10  C    3.755111   4.850644   5.079923   6.421768   7.014413
    11  C    2.478204   3.703753   4.238918   5.614030   6.440592
    12  C    3.759227   4.233092   3.748097   4.873325   5.077395
    13  C    2.463588   2.824480   2.465474   3.723618   4.230203
    14  C    2.839575   2.474618   1.429724   2.431183   2.807159
    15  C    4.911119   5.092304   4.235202   5.063482   4.862713
    16  C    5.130370   4.944259   3.783472   4.275023   3.777713
    17  C    4.242238   3.766357   2.459666   2.831409   2.454492
    18  C    5.077529   4.261072   2.814093   2.444413   1.409332
    19  C    6.549658   6.241646   4.960751   5.147172   4.287369
    20  C    9.321269   8.880479   7.504380   7.349699   6.155215
    21  C    7.084053   6.521695   5.115717   4.921503   3.766228
    22  C    6.470891   5.685291   4.238506   3.747778   2.453988
    23  C    7.436139   6.483292   5.063319   4.230010   2.815079
    24  C    8.807746   7.897804   6.468225   5.665513   4.250871
    25  C    9.255289   8.496197   7.049867   6.461300   5.075905
    26  C    8.504203   7.914244   6.492862   6.174269   4.904791
    27  C    7.618709   7.459033   6.254145   6.529659   5.689900
    28  C    8.943198   8.691823   7.411387   7.507735   6.487819
    29  C   10.071282   9.928107   8.702558   8.878872   7.897024
    30  C   10.061154  10.086041   8.980344   9.341753   8.514303
    31  C    8.913010   9.048966   8.053335   8.572827   7.918363
    32  C    7.661672   7.729257   6.700297   7.213688   6.588086
    33  H    1.096048   2.133017   3.443167   4.593705   5.847990
    34  H    2.131370   1.096252   2.183029   2.681358   4.092696
    35  H    4.046838   2.704362   2.153326   1.096935   2.172492
    36  H    6.332433   5.036484   4.060545   2.688810   2.174621
    37  H    8.244748   7.066480   5.821977   4.607888   3.422184
    38  H    5.347932   6.136175   5.866158   7.033235   7.209797
    39  H    4.633108   5.817588   6.146657   7.497674   8.108181
    40  H    2.715467   4.057483   4.887154   6.242632   7.213234
    41  H    5.870727   6.152791   5.333605   6.144700   5.858677
    42  H   10.401006   9.932007   8.540304   8.311344   7.060304
    43  H    9.592937   8.598245   7.201972   6.256253   4.863866
    44  H   10.340040   9.591081   8.145121   7.542867   6.149140
    45  H   11.060499  10.857807   9.587418   9.663455   8.592399
    46  H   11.038972  11.116697  10.041152  10.427803   9.607381
    47  H    9.154763   9.428028   8.556433   9.198893   8.668459
    48  H    6.811400   6.998372   6.103925   6.782792   6.359702
                    6          7          8          9         10
     6  C    0.000000
     7  C    1.364781   0.000000
     8  C    6.477517   7.440306   0.000000
     9  C    7.839326   8.423388   2.806715   0.000000
    10  C    8.428304   9.180489   2.417511   1.380612   0.000000
    11  C    7.837332   8.754008   1.388929   2.417939   1.399451
    12  C    6.459434   7.022473   2.449983   1.409251   2.418946
    13  C    5.649285   6.439390   1.418539   2.429932   2.790702
    14  C    4.228932   5.049175   2.472046   3.731020   4.216831
    15  C    6.125550   6.423020   3.749399   2.474946   3.732162
    16  C    4.933078   5.116968   4.269751   3.737406   4.870412
    17  C    3.749038   4.226308   3.750388   4.227227   5.060027
    18  C    2.445057   2.808036   4.898321   5.637570   6.434760
    19  C    5.129875   4.923061   5.734381   4.971733   6.205221
    20  C    6.437192   5.624501   8.555897   7.587085   8.896612
    21  C    4.257359   3.767535   6.502800   6.168468   7.323202
    22  C    2.817224   2.440081   6.172512   6.469928   7.443565
    23  C    2.422329   1.421971   7.322449   7.827261   8.754162
    24  C    3.728874   2.477814   8.596848   8.803718   9.839411
    25  C    4.840735   3.711205   8.838215   8.613658   9.770949
    26  C    5.080134   4.242174   7.909835   7.385303   8.604488
    27  C    6.484454   6.158305   6.644258   5.334325   6.666850
    28  C    7.040358   6.447536   8.014513   6.690993   8.040738
    29  C    8.460755   7.841406   9.039704   7.386573   8.756936
    30  C    9.243424   8.775564   8.917488   6.977413   8.323288
    31  C    8.820273   8.557081   7.722669   5.716740   7.030543
    32  C    7.544619   7.376114   6.530265   4.790801   6.123576
    33  H    7.057383   8.252897   2.183453   4.873954   4.092915
    34  H    5.035813   6.350290   3.437541   6.140620   5.838710
    35  H    2.693806   4.053463   4.875796   7.039503   7.195470
    36  H    1.096023   2.143009   6.899178   8.557203   9.013105
    37  H    2.141783   1.096170   8.484102   9.513872  10.263447
    38  H    8.565520   9.019279   3.902624   1.095919   2.153946
    39  H    9.520646  10.264368   3.403342   2.147968   1.095236
    40  H    8.577330   9.578769   2.157004   3.405123   2.163720
    41  H    7.058280   7.220507   4.607036   2.669017   4.044441
    42  H    7.193566   6.241099   9.644434   8.623053   9.947185
    43  H    4.047393   2.686536   9.489475   9.838827  10.838141
    44  H    5.822251   4.609412   9.890371   9.526481  10.725575
    45  H    9.017362   8.260408  10.061342   8.440046   9.815007
    46  H   10.325089   9.827917   9.854763   7.771088   9.092726
    47  H    9.653124   9.482076   7.901217   5.705555   6.937360
    48  H    7.461872   7.493028   5.635382   3.868523   5.152554
                   11         12         13         14         15
    11  C    0.000000
    12  C    2.807967   0.000000
    13  C    2.424487   1.408921   0.000000
    14  C    3.733302   2.445969   1.426644   0.000000
    15  C    4.234763   1.427273   2.448112   2.805890   0.000000
    16  C    5.090453   2.452325   2.851859   2.471175   1.372553
    17  C    4.875939   2.818221   2.451565   1.402772   2.414620
    18  C    6.132699   4.230510   3.737145   2.428551   3.711008
    19  C    6.531498   3.814983   4.317282   3.794042   2.498539
    20  C    9.331183   6.565130   7.137493   6.506742   5.171216
    21  C    7.473049   4.905065   5.115778   4.244671   3.721569
    22  C    7.323823   5.093980   4.903327   3.730465   4.216611
    23  C    8.540992   6.443346   6.136685   4.859805   5.604788
    24  C    9.755267   7.464819   7.341646   6.147315   6.447028
    25  C    9.877780   7.359435   7.490970   6.465084   6.166518
    26  C    8.840916   6.197722   6.513582   5.665635   4.915640
    27  C    7.235563   4.448779   5.259486   4.999075   3.038453
    28  C    8.629043   5.829482   6.614290   6.238314   4.405986
    29  C    9.503937   6.732480   7.678532   7.466140   5.336876
    30  C    9.205100   6.547865   7.639517   7.660009   5.256400
    31  C    7.932916   5.374960   6.513870   6.694033   4.194907
    32  C    6.883230   4.217298   5.260399   5.349091   2.955345
    33  H    2.698758   4.628702   3.443025   3.935088   5.876697
    34  H    4.605785   5.329019   3.920353   3.453353   6.154952
    35  H    6.244227   5.853856   4.615024   3.432887   6.137184
    36  H    8.280548   7.213453   6.256622   4.860318   7.028750
    37  H    9.810211   8.114881   7.518440   6.121462   7.496951
    38  H    3.412785   2.168128   3.421594   4.610681   2.705094
    39  H    2.157532   3.412599   3.885911   5.311989   4.619764
    40  H    1.095807   3.903699   3.422047   4.625042   5.330477
    41  H    4.841133   2.159420   3.422799   3.904693   1.099901
    42  H   10.410958   7.636121   8.226160   7.579553   6.233672
    43  H   10.689257   8.487457   8.284302   7.033581   7.512745
    44  H   10.895910   8.318417   8.528216   7.540681   7.068533
    45  H   10.554986   7.768793   8.684156   8.397428   6.359785
    46  H   10.053346   7.469086   8.616043   8.706703   6.230639
    47  H    7.941531   5.606746   6.815116   7.182438   4.622208
    48  H    5.913321   3.376211   4.452996   4.733887   2.321865
                   16         17         18         19         20
    16  C    0.000000
    17  C    1.443669   0.000000
    18  C    2.488570   1.419692   0.000000
    19  C    1.467314   2.504262   2.880079   0.000000
    20  C    4.289803   5.127774   4.906564   2.834470   0.000000
    21  C    2.463988   2.842649   2.477385   1.406791   2.431233
    22  C    2.862940   2.459802   1.425471   2.485168   3.725754
    23  C    4.257188   3.729229   2.436491   3.757258   4.205276
    24  C    5.125168   4.907104   3.752432   4.258250   3.684197
    25  C    4.936724   5.107186   4.238846   3.772765   2.448904
    26  C    3.777498   4.264635   3.758477   2.461140   1.385354
    27  C    2.552654   3.823169   4.289150   1.425660   2.450996
    28  C    3.821391   4.958932   5.123528   2.456840   1.403200
    29  C    5.010184   6.255778   6.524541   3.767287   2.443775
    30  C    5.246426   6.603687   7.121333   4.266521   3.690667
    31  C    4.413076   5.800433   6.542816   3.762753   4.190002
    32  C    3.058324   4.437657   5.220551   2.520193   3.720250
    33  H    6.192069   5.337642   6.152347   7.623261  10.407152
    34  H    5.908539   4.636264   4.883092   7.133886   9.674132
    35  H    5.371616   3.928064   3.432344   6.211722   8.303300
    36  H    5.902297   4.625268   3.430537   6.196781   7.514846
    37  H    6.181383   5.322067   3.904040   5.884820   6.217296
    38  H    4.074290   4.863059   6.254745   5.082675   7.467994
    39  H    5.842775   6.129491   7.513385   7.114993   9.725320
    40  H    6.163545   5.856783   7.049010   7.611846  10.418517
    41  H    2.154963   3.427775   4.622440   2.755922   5.040275
    42  H    5.381298   6.193302   5.877828   3.930106   1.097278
    43  H    6.186100   5.864452   4.615351   5.353928   4.582135
    44  H    5.899500   6.172054   5.334692   4.638491   2.660305
    45  H    5.954071   7.133495   7.256090   4.629606   2.651709
    46  H    6.311042   7.681845   8.215543   5.360359   4.583881
    47  H    5.078636   6.450098   7.325261   4.655880   5.282246
    48  H    2.752787   4.061503   5.069503   2.767035   4.616345
                   21         22         23         24         25
    21  C    0.000000
    22  C    1.441574   0.000000
    23  C    2.469061   1.395621   0.000000
    24  C    2.851648   2.449558   1.435931   0.000000
    25  C    2.480151   2.813672   2.419447   1.352156   0.000000
    26  C    1.423592   2.451660   2.821520   2.431648   1.440395
    27  C    2.429595   3.758833   4.886851   5.077428   4.255673
    28  C    2.799263   4.235416   5.060689   4.840854   3.732558
    29  C    4.227969   5.661807   6.445243   6.098155   4.885222
    30  C    5.063560   6.475018   7.422711   7.247775   6.108053
    31  C    4.862024   6.167662   7.297428   7.399077   6.431835
    32  C    3.756844   4.964571   6.181588   6.468451   5.664516
    33  H    8.179720   7.553957   8.486083   9.870642  10.344240
    34  H    7.270605   6.286516   6.902484   8.336766   9.069383
    35  H    5.891184   4.623943   4.862665   6.275395   7.210295
    36  H    5.352855   3.913115   3.422639   4.619088   5.815847
    37  H    4.638024   3.422001   2.172447   2.685355   4.031906
    38  H    6.379770   6.901551   8.279988   9.122575   8.773674
    39  H    8.290050   8.486012   9.809526  10.861473  10.735661
    40  H    8.520552   8.296410   9.467722  10.722924  10.904125
    41  H    4.105307   4.890246   6.259687   6.918579   6.433263
    42  H    3.430118   4.607755   4.844799   4.026228   2.678786
    43  H    3.947238   3.428447   2.181706   1.095949   2.136831
    44  H    3.456841   3.909494   3.424842   2.134485   1.096256
    45  H    4.843906   6.247255   6.845496   6.274359   4.968749
    46  H    6.134545   7.552610   8.462946   8.210283   7.018639
    47  H    5.842707   7.087549   8.268224   8.441186   7.506506
    48  H    4.130245   5.118264   6.433947   6.939945   6.306951
                   26         27         28         29         30
    26  C    0.000000
    27  C    2.817747   0.000000
    28  C    2.414986   1.419958   0.000000
    29  C    3.712282   2.470657   1.429454   0.000000
    30  C    4.834376   2.841828   2.426144   1.361871   0.000000
    31  C    5.038176   2.442591   2.791265   2.402034   1.417793
    32  C    4.232741   1.429705   2.424767   2.784655   2.416317
    33  H    9.600087   8.655829   9.998018  11.095173  11.026769
    34  H    8.624315   8.397904   9.583438  10.857087  11.070281
    35  H    7.073967   7.597880   8.536950   9.919683  10.410471
    36  H    6.150445   7.559801   8.133055   9.551540  10.324654
    37  H    4.860704   7.047654   7.184743   8.537575   9.554837
    38  H    7.464629   5.161127   6.440747   6.948132   6.400204
    39  H    9.528006   7.441768   8.787686   9.382405   8.829186
    40  H    9.900741   8.326848   9.722897  10.589043  10.260401
    41  H    5.079690   2.765336   4.058219   4.747275   4.487795
    42  H    2.157423   3.442783   2.167759   2.662325   4.019048
    43  H    3.436178   6.150273   5.823281   7.012399   8.212035
    44  H    2.181013   4.873393   4.057204   4.970445   6.283790
    45  H    4.032565   3.450521   2.176654   1.096221   2.141796
    46  H    5.812373   3.935789   3.428680   2.143617   1.094600
    47  H    6.107526   3.436498   3.885445   3.383731   2.170665
    48  H    4.895054   2.184828   3.422553   3.882579   3.408214
                   31         32         33         34         35
    31  C    0.000000
    32  C    1.363677   0.000000
    33  H    9.835442   8.621431   0.000000
    34  H   10.062871   8.733355   2.479737   0.000000
    35  H    9.651589   8.295158   4.763803   2.455334   0.000000
    36  H    9.871948   8.583372   7.148209   4.900114   2.446349
    37  H    9.442940   8.314343   9.186716   7.158030   4.761442
    38  H    5.144971   4.424205   5.953317   7.217909   7.994522
    39  H    7.519920   6.760607   4.782322   6.755281   8.243275
    40  H    8.967721   7.947664   2.472735   4.777288   6.729303
    41  H    3.392672   2.340882   6.779763   7.226294   7.224302
    42  H    4.816028   4.589369  11.488976  10.700382   9.227265
    43  H    8.438051   7.544298  10.631036   8.931433   6.718353
    44  H    6.829727   6.246482  11.430352  10.160519   8.265900
    45  H    3.407212   3.880746  12.098913  11.758264  10.677508
    46  H    2.174066   3.396771  11.979245  12.112493  11.497229
    47  H    1.095104   2.138391  10.004665  10.462633  10.271848
    48  H    2.126719   1.098717   7.723709   8.026820   7.854957
                   36         37         38         39         40
    36  H    0.000000
    37  H    2.482773   0.000000
    38  H    9.355822  10.102347   0.000000
    39  H   10.099033  11.347527   2.481756   0.000000
    40  H    8.916667  10.610727   4.309522   2.478224   0.000000
    41  H    8.006223   8.265927   2.430453   4.742811   5.917061
    42  H    8.243877   6.685590   8.449182  10.751716  11.499880
    43  H    4.750295   2.427390  10.185828  11.872013  11.627163
    44  H    6.746979   4.744518   9.607849  11.661684  11.934703
    45  H   10.102550   8.848428   7.990163  10.437867  11.643718
    46  H   11.406756  10.579426   7.097331   9.508028  11.086939
    47  H   10.679363  10.398769   5.020499   7.291413   8.921215
    48  H    8.444912   8.496658   3.566174   5.789855   6.957045
                   41         42         43         44         45
    41  H    0.000000
    42  H    6.035736   0.000000
    43  H    8.004088   4.738696   0.000000
    44  H    7.223726   2.418934   2.484624   0.000000
    45  H    5.786211   2.396904   7.078171   4.809663   0.000000
    46  H    5.388146   4.724781   9.137161   7.082468   2.490179
    47  H    3.749103   5.886317   9.488203   7.916381   4.300500
    48  H    1.783727   5.561945   8.029993   7.007441   4.978667
                   46         47         48
    46  H    0.000000
    47  H    2.483454   0.000000
    48  H    4.293790   2.452708   0.000000
 Stoichiometry    C32H16
 Framework group  C1[X(C32H16)]
 Deg. of freedom   138
 Full point group                 C1      NOp   1
 Largest Abelian subgroup         C1      NOp   1
 Largest concise Abelian subgroup C1      NOp   1
                         Standard orientation:                         
 ---------------------------------------------------------------------
 Center     Atomic      Atomic             Coordinates (Angstroms)
 Number     Number       Type             X           Y           Z
 ---------------------------------------------------------------------
      1          6           0       -5.072497    0.204906    0.250332
      2          6           0       -4.487700    1.410220    0.406957
      3          6           0       -3.052640    1.571939    0.309771
      4          6           0       -2.463475    2.815311    0.388135
      5          6           0       -1.061847    2.952770    0.245460
      6          6           0       -0.453424    4.239923    0.219664
      7          6           0        0.890346    4.367979    0.018387
      8          6           0       -4.286165   -0.976162   -0.026862
      9          6           0       -2.705606   -3.224384   -0.596932
     10          6           0       -4.080968   -3.329853   -0.539102
     11          6           0       -4.874942   -2.213914   -0.251439
     12          6           0       -2.078436   -1.984845   -0.359892
     13          6           0       -2.873806   -0.855709   -0.081509
     14          6           0       -2.243998    0.410429    0.107029
     15          6           0       -0.657268   -1.853557   -0.372217
     16          6           0       -0.028424   -0.664453   -0.099289
     17          6           0       -0.846012    0.515029    0.057395
     18          6           0       -0.256489    1.805972    0.095554
     19          6           0        1.430452   -0.525159   -0.026559
     20          6           0        4.224674   -0.149090   -0.318302
     21          6           0        1.978044    0.764798   -0.149906
     22          6           0        1.151767    1.943818   -0.077012
     23          6           0        1.713867    3.219667   -0.140344
     24          6           0        3.125455    3.367074   -0.358490
     25          6           0        3.920529    2.277253   -0.450544
     26          6           0        3.380498    0.949320   -0.310186
     27          6           0        2.324106   -1.619301    0.165124
     28          6           0        3.715627   -1.427261   -0.042406
     29          6           0        4.618465   -2.530328    0.064672
     30          6           0        4.172658   -3.759393    0.445917
     31          6           0        2.801707   -3.939958    0.759007
     32          6           0        1.916915   -2.911357    0.622119
     33          1           0       -6.160040    0.088931    0.321902
     34          1           0       -5.086757    2.305910    0.608544
     35          1           0       -3.075547    3.712716    0.540774
     36          1           0       -1.086857    5.124690    0.350869
     37          1           0        1.356810    5.359197   -0.020154
     38          1           0       -2.090767   -4.102536   -0.824658
     39          1           0       -4.562703   -4.296681   -0.719984
     40          1           0       -5.964926   -2.318313   -0.208686
     41          1           0       -0.077106   -2.761095   -0.594856
     42          1           0        5.299005   -0.019108   -0.499785
     43          1           0        3.536495    4.379285   -0.445558
     44          1           0        4.999186    2.378256   -0.618101
     45          1           0        5.678599   -2.360785   -0.156851
     46          1           0        4.857578   -4.609043    0.530355
     47          1           0        2.465139   -4.917175    1.120977
     48          1           0        0.863401   -3.074362    0.888043
 ---------------------------------------------------------------------
 Rotational constants (GHZ):      0.2098207      0.1364850      0.0839640
 Leave Link  202 at Sat Jul 27 13:10:18 2019, MaxMem=  4194304000 cpu:         1.1
 (Enter /home/minenky/programs//g09/l301.exe)
 Standard basis: def2TZVP (5D, 7F)
 ======================================================================================================
                                       Pseudopotential Parameters
 ======================================================================================================
  Center     Atomic      Valence      Angular      Power
  Number     Number     Electrons     Momentum     of R      Exponent        Coefficient   SO-Coeffient
 ======================================================================================================
    1          6
                                   No pseudopotential on this center.
    2          6
                                   No pseudopotential on this center.
    3          6
                                   No pseudopotential on this center.
    4          6
                                   No pseudopotential on this center.
    5          6
                                   No pseudopotential on this center.
    6          6
                                   No pseudopotential on this center.
    7          6
                                   No pseudopotential on this center.
    8          6
                                   No pseudopotential on this center.
    9          6
                                   No pseudopotential on this center.
   10          6
                                   No pseudopotential on this center.
   11          6
                                   No pseudopotential on this center.
   12          6
                                   No pseudopotential on this center.
   13          6
                                   No pseudopotential on this center.
   14          6
                                   No pseudopotential on this center.
   15          6
                                   No pseudopotential on this center.
   16          6
                                   No pseudopotential on this center.
   17          6
                                   No pseudopotential on this center.
   18          6
                                   No pseudopotential on this center.
   19          6
                                   No pseudopotential on this center.
   20          6
                                   No pseudopotential on this center.
   21          6
                                   No pseudopotential on this center.
   22          6
                                   No pseudopotential on this center.
   23          6
                                   No pseudopotential on this center.
   24          6
                                   No pseudopotential on this center.
   25          6
                                   No pseudopotential on this center.
   26          6
                                   No pseudopotential on this center.
   27          6
                                   No pseudopotential on this center.
   28          6
                                   No pseudopotential on this center.
   29          6
                                   No pseudopotential on this center.
   30          6
                                   No pseudopotential on this center.
   31          6
                                   No pseudopotential on this center.
   32          6
                                   No pseudopotential on this center.
   33          1
                                   No pseudopotential on this center.
   34          1
                                   No pseudopotential on this center.
   35          1
                                   No pseudopotential on this center.
   36          1
                                   No pseudopotential on this center.
   37          1
                                   No pseudopotential on this center.
   38          1
                                   No pseudopotential on this center.
   39          1
                                   No pseudopotential on this center.
   40          1
                                   No pseudopotential on this center.
   41          1
                                   No pseudopotential on this center.
   42          1
                                   No pseudopotential on this center.
   43          1
                                   No pseudopotential on this center.
   44          1
                                   No pseudopotential on this center.
   45          1
                                   No pseudopotential on this center.
   46          1
                                   No pseudopotential on this center.
   47          1
                                   No pseudopotential on this center.
   48          1
                                   No pseudopotential on this center.
 ======================================================================================================
 Ernie: Thresh=  0.10000D-02 Tol=  0.10000D-05 Strict=F.
 AO basis set (Overlap normalization):
 Atom C1       Shell     1 S   6     bf    1 -     1         -9.585630778530          0.387216627674          0.473058041658
      0.1357534968D+05  0.6064550360D-03
      0.2035233368D+04  0.4697908888D-02
      0.4632256236D+03  0.2433247765D-01
      0.1312001960D+03  0.9739996831D-01
      0.4285301589D+02  0.3019558425D+00
      0.1558418577D+02  0.6623360914D+00
 Atom C1       Shell     2 S   2     bf    2 -     2         -9.585630778530          0.387216627674          0.473058041658
      0.6206713851D+01  0.6559530854D+00
      0.2576489653D+01  0.3758563329D+00
 Atom C1       Shell     3 S   1     bf    3 -     3         -9.585630778530          0.387216627674          0.473058041658
      0.5769633942D+00  0.1000000000D+01
 Atom C1       Shell     4 S   1     bf    4 -     4         -9.585630778530          0.387216627674          0.473058041658
      0.2297283136D+00  0.1000000000D+01
 Atom C1       Shell     5 S   1     bf    5 -     5         -9.585630778530          0.387216627674          0.473058041658
      0.9516444003D-01  0.1000000000D+01
 Atom C1       Shell     6 P   4     bf    6 -     8         -9.585630778530          0.387216627674          0.473058041658
      0.3469723224D+02  0.1132722000D-01
      0.7958262283D+01  0.7616965920D-01
      0.2378082688D+01  0.3019225220D+00
      0.8143320818D+00  0.7278502735D+00
 Atom C1       Shell     7 P   1     bf    9 -    11         -9.585630778530          0.387216627674          0.473058041658
      0.2888754725D+00  0.1000000000D+01
 Atom C1       Shell     8 P   1     bf   12 -    14         -9.585630778530          0.387216627674          0.473058041658
      0.1005682367D+00  0.1000000000D+01
 Atom C1       Shell     9 D   1     bf   15 -    19         -9.585630778530          0.387216627674          0.473058041658
      0.1097000000D+01  0.1000000000D+01
 Atom C1       Shell    10 D   1     bf   20 -    24         -9.585630778530          0.387216627674          0.473058041658
      0.3180000000D+00  0.1000000000D+01
 Atom C1       Shell    11 F   1     bf   25 -    31         -9.585630778530          0.387216627674          0.473058041658
      0.7610000000D+00  0.1000000000D+01
 Atom C2       Shell    12 S   6     bf   32 -    32         -8.480523242316          2.664929333370          0.769036357728
      0.1357534968D+05  0.6064550360D-03
      0.2035233368D+04  0.4697908888D-02
      0.4632256236D+03  0.2433247765D-01
      0.1312001960D+03  0.9739996831D-01
      0.4285301589D+02  0.3019558425D+00
      0.1558418577D+02  0.6623360914D+00
 Atom C2       Shell    13 S   2     bf   33 -    33         -8.480523242316          2.664929333370          0.769036357728
      0.6206713851D+01  0.6559530854D+00
      0.2576489653D+01  0.3758563329D+00
 Atom C2       Shell    14 S   1     bf   34 -    34         -8.480523242316          2.664929333370          0.769036357728
      0.5769633942D+00  0.1000000000D+01
 Atom C2       Shell    15 S   1     bf   35 -    35         -8.480523242316          2.664929333370          0.769036357728
      0.2297283136D+00  0.1000000000D+01
 Atom C2       Shell    16 S   1     bf   36 -    36         -8.480523242316          2.664929333370          0.769036357728
      0.9516444003D-01  0.1000000000D+01
 Atom C2       Shell    17 P   4     bf   37 -    39         -8.480523242316          2.664929333370          0.769036357728
      0.3469723224D+02  0.1132722000D-01
      0.7958262283D+01  0.7616965920D-01
      0.2378082688D+01  0.3019225220D+00
      0.8143320818D+00  0.7278502735D+00
 Atom C2       Shell    18 P   1     bf   40 -    42         -8.480523242316          2.664929333370          0.769036357728
      0.2888754725D+00  0.1000000000D+01
 Atom C2       Shell    19 P   1     bf   43 -    45         -8.480523242316          2.664929333370          0.769036357728
      0.1005682367D+00  0.1000000000D+01
 Atom C2       Shell    20 D   1     bf   46 -    50         -8.480523242316          2.664929333370          0.769036357728
      0.1097000000D+01  0.1000000000D+01
 Atom C2       Shell    21 D   1     bf   51 -    55         -8.480523242316          2.664929333370          0.769036357728
      0.3180000000D+00  0.1000000000D+01
 Atom C2       Shell    22 F   1     bf   56 -    62         -8.480523242316          2.664929333370          0.769036357728
      0.7610000000D+00  0.1000000000D+01
 Atom C3       Shell    23 S   6     bf   63 -    63         -5.768652756656          2.970535124889          0.585381452151
      0.1357534968D+05  0.6064550360D-03
      0.2035233368D+04  0.4697908888D-02
      0.4632256236D+03  0.2433247765D-01
      0.1312001960D+03  0.9739996831D-01
      0.4285301589D+02  0.3019558425D+00
      0.1558418577D+02  0.6623360914D+00
 Atom C3       Shell    24 S   2     bf   64 -    64         -5.768652756656          2.970535124889          0.585381452151
      0.6206713851D+01  0.6559530854D+00
      0.2576489653D+01  0.3758563329D+00
 Atom C3       Shell    25 S   1     bf   65 -    65         -5.768652756656          2.970535124889          0.585381452151
      0.5769633942D+00  0.1000000000D+01
 Atom C3       Shell    26 S   1     bf   66 -    66         -5.768652756656          2.970535124889          0.585381452151
      0.2297283136D+00  0.1000000000D+01
 Atom C3       Shell    27 S   1     bf   67 -    67         -5.768652756656          2.970535124889          0.585381452151
      0.9516444003D-01  0.1000000000D+01
 Atom C3       Shell    28 P   4     bf   68 -    70         -5.768652756656          2.970535124889          0.585381452151
      0.3469723224D+02  0.1132722000D-01
      0.7958262283D+01  0.7616965920D-01
      0.2378082688D+01  0.3019225220D+00
      0.8143320818D+00  0.7278502735D+00
 Atom C3       Shell    29 P   1     bf   71 -    73         -5.768652756656          2.970535124889          0.585381452151
      0.2888754725D+00  0.1000000000D+01
 Atom C3       Shell    30 P   1     bf   74 -    76         -5.768652756656          2.970535124889          0.585381452151
      0.1005682367D+00  0.1000000000D+01
 Atom C3       Shell    31 D   1     bf   77 -    81         -5.768652756656          2.970535124889          0.585381452151
      0.1097000000D+01  0.1000000000D+01
 Atom C3       Shell    32 D   1     bf   82 -    86         -5.768652756656          2.970535124889          0.585381452151
      0.3180000000D+00  0.1000000000D+01
 Atom C3       Shell    33 F   1     bf   87 -    93         -5.768652756656          2.970535124889          0.585381452151
      0.7610000000D+00  0.1000000000D+01
 Atom C4       Shell    34 S   6     bf   94 -    94         -4.655293463040          5.320167550850          0.733469627078
      0.1357534968D+05  0.6064550360D-03
      0.2035233368D+04  0.4697908888D-02
      0.4632256236D+03  0.2433247765D-01
      0.1312001960D+03  0.9739996831D-01
      0.4285301589D+02  0.3019558425D+00
      0.1558418577D+02  0.6623360914D+00
 Atom C4       Shell    35 S   2     bf   95 -    95         -4.655293463040          5.320167550850          0.733469627078
      0.6206713851D+01  0.6559530854D+00
      0.2576489653D+01  0.3758563329D+00
 Atom C4       Shell    36 S   1     bf   96 -    96         -4.655293463040          5.320167550850          0.733469627078
      0.5769633942D+00  0.1000000000D+01
 Atom C4       Shell    37 S   1     bf   97 -    97         -4.655293463040          5.320167550850          0.733469627078
      0.2297283136D+00  0.1000000000D+01
 Atom C4       Shell    38 S   1     bf   98 -    98         -4.655293463040          5.320167550850          0.733469627078
      0.9516444003D-01  0.1000000000D+01
 Atom C4       Shell    39 P   4     bf   99 -   101         -4.655293463040          5.320167550850          0.733469627078
      0.3469723224D+02  0.1132722000D-01
      0.7958262283D+01  0.7616965920D-01
      0.2378082688D+01  0.3019225220D+00
      0.8143320818D+00  0.7278502735D+00
 Atom C4       Shell    40 P   1     bf  102 -   104         -4.655293463040          5.320167550850          0.733469627078
      0.2888754725D+00  0.1000000000D+01
 Atom C4       Shell    41 P   1     bf  105 -   107         -4.655293463040          5.320167550850          0.733469627078
      0.1005682367D+00  0.1000000000D+01
 Atom C4       Shell    42 D   1     bf  108 -   112         -4.655293463040          5.320167550850          0.733469627078
      0.1097000000D+01  0.1000000000D+01
 Atom C4       Shell    43 D   1     bf  113 -   117         -4.655293463040          5.320167550850          0.733469627078
      0.3180000000D+00  0.1000000000D+01
 Atom C4       Shell    44 F   1     bf  118 -   124         -4.655293463040          5.320167550850          0.733469627078
      0.7610000000D+00  0.1000000000D+01
 Atom C5       Shell    45 S   6     bf  125 -   125         -2.006599633990          5.579926004798          0.463851804430
      0.1357534968D+05  0.6064550360D-03
      0.2035233368D+04  0.4697908888D-02
      0.4632256236D+03  0.2433247765D-01
      0.1312001960D+03  0.9739996831D-01
      0.4285301589D+02  0.3019558425D+00
      0.1558418577D+02  0.6623360914D+00
 Atom C5       Shell    46 S   2     bf  126 -   126         -2.006599633990          5.579926004798          0.463851804430
      0.6206713851D+01  0.6559530854D+00
      0.2576489653D+01  0.3758563329D+00
 Atom C5       Shell    47 S   1     bf  127 -   127         -2.006599633990          5.579926004798          0.463851804430
      0.5769633942D+00  0.1000000000D+01
 Atom C5       Shell    48 S   1     bf  128 -   128         -2.006599633990          5.579926004798          0.463851804430
      0.2297283136D+00  0.1000000000D+01
 Atom C5       Shell    49 S   1     bf  129 -   129         -2.006599633990          5.579926004798          0.463851804430
      0.9516444003D-01  0.1000000000D+01
 Atom C5       Shell    50 P   4     bf  130 -   132         -2.006599633990          5.579926004798          0.463851804430
      0.3469723224D+02  0.1132722000D-01
      0.7958262283D+01  0.7616965920D-01
      0.2378082688D+01  0.3019225220D+00
      0.8143320818D+00  0.7278502735D+00
 Atom C5       Shell    51 P   1     bf  133 -   135         -2.006599633990          5.579926004798          0.463851804430
      0.2888754725D+00  0.1000000000D+01
 Atom C5       Shell    52 P   1     bf  136 -   138         -2.006599633990          5.579926004798          0.463851804430
      0.1005682367D+00  0.1000000000D+01
 Atom C5       Shell    53 D   1     bf  139 -   143         -2.006599633990          5.579926004798          0.463851804430
      0.1097000000D+01  0.1000000000D+01
 Atom C5       Shell    54 D   1     bf  144 -   148         -2.006599633990          5.579926004798          0.463851804430
      0.3180000000D+00  0.1000000000D+01
 Atom C5       Shell    55 F   1     bf  149 -   155         -2.006599633990          5.579926004798          0.463851804430
      0.7610000000D+00  0.1000000000D+01
 Atom C6       Shell    56 S   6     bf  156 -   156         -0.856846757699          8.012292751401          0.415104194938
      0.1357534968D+05  0.6064550360D-03
      0.2035233368D+04  0.4697908888D-02
      0.4632256236D+03  0.2433247765D-01
[...]
 0000226,0.00000197,0.00001968,-0.00002739,-0.00000159,-0.00003198,0.00
 000483,0.00000490,0.00004304,0.00001834,-0.00000615,-0.00000088,0.0000
 0483,-0.00000247,-0.00001041,-0.00000298,0.00000392,0.00000461,0.00001
 084,-0.00000115,0.00000185,-0.00000881,0.00000210,0.00000369,0.0000167
 6,0.00000732,0.00000923,-0.00001173,-0.00000074,-0.00000496,-0.0000205
 3,0.00000946,-0.00000985,-0.00001455,0.00005791,-0.00005302,-0.0003217
 7,-0.00013724,-0.00008975,0.00003758,-0.00001840,0.00001121,0.00002582
 ,-0.00000874,-0.00120292,0.00035606,0.00006796,-0.00170863,0.00093354,
 0.00112681,-0.00020329,0.00024918,0.00004283,0.00005442,-0.00003587,0.
 00000449,-0.00009093,-0.00003148,0.00000908,0.00003852,0.00005825,-0.0
 0000146,0.00000477,-0.00008446,-0.00004702,0.00050847,0.00021003,0.000
 00194,-0.00256549,-0.00304234,-0.00144181,-0.02297050,0.00651021,0.005
 15472,0.03635125,-0.06403806,-0.01302935,0.02899745,0.00141512,-0.0060
 0746,0.00074188,-0.00417432,-0.00384083,-0.00020124,-0.00140805,-0.000
 02460,0.00000069,-0.00000036,-0.00000056,-0.00000077,0.00000110,-0.000
 00050,0.00000140,0.00000079,-0.00000024,0.00000168,0.00000120,-0.00000
 121,-0.00000195,-0.00000281,-0.00000022,-0.00000170,0.00000239,-0.0000
 0527,-0.00000042,-0.00000103,-0.00000089,0.00000091,0.00000060,-0.0000
 0056,0.00001319,0.00000159,-0.00003131,0.00059592,-0.00060875,-0.00024
 174,0.00000633,0.00000528,0.00000331,0.00000711,-0.00003412,-0.0000040
 5,-0.03966433,0.06358715,-0.00000214,-0.00000091,-0.00000108,-0.000001
 43,-0.00000171,-0.00000394,-0.00000504,0.00000036,-0.00000128,-0.00000
 372,-0.00000088,0.00000059,0.00000438,0.00000860,-0.00000481,0.0000049
 0,-0.00000177,-0.00000134,-0.00000222,-0.00000716,-0.00000439,-0.00000
 039,-0.00000512,0.00000189,0.00000574,0.00000038,-0.00000129,-0.000000
 57,0.00000486,-0.00000021,0.00000708,-0.00000165,-0.00000172,-0.000015
 86,-0.00001498,-0.00001297,0.00000464,0.00000431,0.00000774,0.00000909
 ,-0.00001652,-0.00000391,0.00002890,0.00006369,-0.00009657,-0.00002662
 ,-0.00015253,0.00028546,-0.00004381,0.00000875,0.00001444,-0.00000422,
 0.00000754,0.00000448,-0.00014337,0.00004550,-0.00002890,-0.00067137,0
 .00057924,-0.00243464,-0.00000866,0.00002427,-0.00007676,0.00000578,0.
 00000173,0.00002451,0.00000857,0.00000362,0.00001088,-0.00002928,0.000
 00839,-0.00000273,0.00005497,0.00002824,0.00013438,-0.00001240,0.00002
 839,-0.00015761,0.00158291,-0.00245520,0.00387066,-0.00476914,-0.00137
 408,0.00339215,0.06109526,-0.01101824,-0.05026802,0.01080877,-0.001940
 83,0.00166950,0.00089425,-0.00419717,0.00781546,-0.00010693,0.00147532
 ,-0.00049040,0.00000147,-0.00000011,0.00000111,0.00000040,0.00000164,0
 .00000069,0.00000125,0.00000139,0.00000034,0.00000206,0.00000098,0.000
 00145,-0.00000069,0.00000188,0.00000257,-0.00000088,0.00000129,0.00000
 098,0.00000059,-0.00000102,0.00000138,0.00000138,0.00000045,0.00000037
 ,-0.00004115,-0.00002555,0.00000352,0.00016037,0.00001027,0.00023769,-
 0.00000134,0.00000459,-0.00001844,-0.00000433,-0.00000100,0.00001186,-
 0.06766820,0.01705816,0.04172219,-0.00000048,0.00000148,-0.00000026,0.
 00000225,-0.00000066,-0.00000015,0.00000959,-0.00001311,-0.00000101,-0
 .00002029,-0.00000150,0.00000245,0.00000431,-0.00003539,0.00000323,-0.
 00003648,0.00003073,0.00000450,0.00004580,0.00002286,-0.00000942,-0.00
 000497,0.00000993,-0.00000046,-0.00002567,0.00000607,-0.00000280,0.000
 01627,0.00000552,-0.00000347,-0.00001453,-0.00001143,0.00000454,0.0000
 7080,-0.00005329,-0.00000440,-0.00000847,-0.00001529,0.00000910,-0.000
 01785,0.00000499,-0.00000005,-0.00003797,0.00001276,-0.00009873,0.0000
 3365,-0.00001328,-0.00001289,0.00001789,0.00004780,-0.00000577,0.00001
 878,-0.00000105,-0.00000562,-0.00006005,-0.00032521,-0.00027365,0.0004
 0011,-0.00015088,-0.00002454,-0.00021991,0.00020057,0.00007628,-0.0000
 2641,-0.00006113,0.00001751,-0.00007827,-0.00000554,0.00001135,0.00009
 426,0.00003086,-0.00000079,0.00002544,-0.00005975,-0.00002792,0.000144
 48,0.00031718,-0.00015112,0.00000748,0.00106108,0.00019302,0.00008739,
 0.00230622,0.00256981,0.01061386,0.00993673,0.00148039,-0.17266616,-0.
 13941725,-0.01171413,-0.01296857,-0.02483316,-0.00450534,-0.00461516,0
 .00165033,0.00324249,-0.00000407,-0.00000004,0.00000040,-0.00000192,-0
 .00000292,0.00000088,-0.00000152,-0.00000279,0.00000058,-0.00000273,-0
 .00000223,0.00000002,0.00000230,-0.00000264,-0.00000023,0.00000670,-0.
 00000512,0.00000490,-0.00000545,0.00000395,-0.00000051,-0.00000400,-0.
 00000091,0.00000029,0.00000910,-0.00004106,0.00007435,-0.00000102,-0.0
 0001353,0.00004405,0.00000409,0.00000253,0.00000168,0.00000281,-0.0000
 0326,-0.00000184,0.00061897,-0.00003945,-0.00118719,0.17864120,-0.0000
 0095,0.00000582,-0.00000035,0.00001047,-0.00000057,-0.00000100,-0.0000
 0523,0.00001065,0.00000055,0.00001632,-0.00000039,-0.00000179,-0.00001
 729,0.00002752,0.00000076,0.00003287,-0.00002655,-0.00000280,-0.000049
 66,-0.00001294,0.00001037,0.00000455,-0.00000007,-0.00000071,-0.000000
 87,-0.00000743,0.00000204,-0.00001042,-0.00001012,0.00000224,-0.000011
 90,0.00001501,-0.00000192,0.00000272,0.00000374,0.00000383,-0.00001613
 ,0.00000790,-0.00000103,-0.00000799,-0.00001238,0.00000282,-0.00001901
 ,-0.00001794,-0.00001585,0.00000026,0.00002731,0.00000082,-0.00002882,
 0.00000699,-0.00000232,-0.00002884,-0.00001858,0.00000500,0.00007083,0
 .00030214,0.00026549,-0.00122524,-0.00016566,0.00007110,0.00023088,-0.
 00014028,-0.00008843,0.00005264,0.00006482,-0.00001740,0.00010572,-0.0
 0000584,-0.00001382,-0.00004130,-0.00011453,-0.00001656,-0.00015559,0.
 00005756,0.00006765,0.00013326,-0.00059020,0.00015596,0.00044137,-0.00
 030339,0.00004591,0.00312024,-0.00262019,-0.00405792,-0.02043499,-0.01
 680617,-0.00184002,-0.13831065,-0.22521345,-0.02566676,0.00459447,0.00
 652253,0.00032489,0.00100554,0.00162332,-0.00138183,-0.00000339,0.0000
 0093,-0.00000019,-0.00000210,-0.00000333,0.00000047,-0.00000325,-0.000
 00364,0.00000011,-0.00000389,-0.00000302,0.00000076,0.00000194,-0.0000
 0330,-0.00000082,0.00000319,-0.00000013,0.00000106,-0.00000244,0.00000
 320,-0.00000078,-0.00000308,-0.00000037,0.00000007,-0.00000001,-0.0000
 0402,0.00000467,0.00004331,-0.00000317,-0.00008854,-0.00001313,-0.0000
 1924,-0.00000316,0.00001273,0.00000130,-0.00000151,0.00061557,0.000426
 39,0.00148674,0.14989791,0.23656543,-0.00000180,0.,-0.00000061,0.00000
 359,-0.00000143,-0.00000244,-0.00001108,0.00000573,0.00000215,0.000010
 64,-0.00000716,-0.00000260,0.00000206,0.00002444,-0.00000113,0.0000077
 8,-0.00000165,-0.00000360,-0.00001603,-0.00001933,-0.00000611,0.000008
 56,-0.00000177,-0.00000178,0.00000013,-0.00001660,0.00000265,-0.000010
 11,-0.00001139,-0.00000007,-0.00000744,0.00001445,-0.00000318,-0.00001
 951,0.00003124,0.00000968,-0.00000933,0.00001916,-0.00001319,0.0000217
 4,-0.00002249,0.00000383,0.00008148,-0.00003501,0.00005913,-0.00000072
 ,-0.00009325,-0.00001293,-0.00001420,0.00001150,0.00001986,-0.00000856
 ,-0.00001900,-0.00000654,-0.00015121,0.00023302,-0.00067035,-0.0005246
 8,-0.00036062,0.00014721,0.00000355,0.00003373,0.00007446,-0.00000709,
 -0.00000068,0.00006989,0.00000559,0.00003399,-0.00001221,0.00002766,-0
 .00003000,0.00006096,-0.00003550,-0.00000335,-0.00004328,-0.00005422,-
 0.00005923,-0.00076015,0.00038799,-0.00030137,-0.00098454,0.00210598,-
 0.00377627,0.00846588,-0.00751140,-0.00718171,0.00302110,-0.01139344,-
 0.02624252,-0.04269233,0.00457395,0.00688447,0.00323398,0.00283329,-0.
 00167171,0.00412105,0.00000022,0.00000044,0.00000081,-0.00000057,-0.00
 000005,0.00000103,-0.00000130,-0.00000065,0.00000149,0.00000010,-0.000
 00169,0.00000097,-0.00000004,0.00000058,0.00000175,0.00000022,0.000002
 60,0.00000299,-0.00000206,0.00000113,0.00000175,0.00000056,0.00000050,
 0.00000081,0.00001960,0.00001935,-0.00001570,0.00005966,-0.00002140,0.
 00019228,-0.00000172,-0.00000346,0.00000752,0.00000144,-0.00000021,-0.
 00000624,-0.00086879,0.00156250,-0.00468558,0.01113489,0.02984328,0.03
 221894,-0.00000799,-0.00000285,0.00000224,0.00000437,0.00000213,-0.000
 00113,-0.00000666,-0.00000564,0.00000264,-0.00000845,0.00000758,-0.000
 00171,0.00001693,0.00002942,-0.00000429,0.00001761,-0.00000861,-0.0000
 0456,-0.00001468,-0.00002422,-0.00000098,0.00000399,0.00000282,-0.0000
 0054,-0.00002036,-0.00001916,0.00002331,-0.00000099,0.00001341,0.00000
 728,-0.00001039,0.00000306,-0.00000175,0.00003180,0.00000626,-0.000003
 02,-0.00000820,-0.00001092,-0.00000096,0.00000157,0.00000130,-0.000002
 39,-0.00006071,-0.00008513,-0.00004429,-0.00003029,0.00004650,0.000076
 95,-0.00002106,0.00002839,0.00000189,-0.00001383,-0.00001000,0.0000030
 8,0.00079015,-0.00051135,-0.00021794,0.00014073,0.00030828,-0.00015651
 ,-0.00011122,-0.00023647,-0.00021461,0.00009134,-0.00003837,0.00000594
 ,0.00001871,-0.00000399,0.00001189,-0.00003633,-0.00001930,0.00000054,
 0.00001469,0.00005160,0.00001914,-0.00013060,-0.00009580,0.00002018,-0
 .00222871,-0.00360023,0.00138140,-0.00066927,-0.00074149,-0.00014179,-
 0.00543539,-0.00075549,0.00230133,-0.00423799,0.02756335,0.01171888,-0
 .08604665,0.07549975,0.04053749,0.00965343,-0.01990416,-0.00887920,0.0
 0000175,-0.00000002,-0.00000037,-0.00000039,0.00000142,-0.00000035,-0.
 00000030,0.00000086,0.00000047,0.00000134,-0.00000013,0.00000075,-0.00
 000237,-0.00000099,0.00000353,-0.00000214,0.00001006,-0.00002769,-0.00
 000457,-0.00000055,-0.00000335,0.00000319,0.00000183,-0.00000188,0.000
 00943,-0.00002870,-0.00000869,0.00004007,-0.00007405,-0.00001342,0.000
 00015,0.00000259,-0.00000218,0.00000287,-0.00000826,-0.00000046,-0.000
 45249,0.00139329,0.00024435,0.00071334,-0.00026242,-0.00086835,0.08736
 339,-0.00001264,0.00000839,0.00000200,0.00001933,0.00000076,-0.0000008
 3,-0.00001014,0.00003677,-0.00000008,0.00003639,-0.00001361,-0.0000017
 0,-0.00002103,0.00004106,-0.00000384,0.00003920,-0.00006338,0.00000050
 ,-0.00006486,-0.00002663,0.00000472,0.00001353,-0.00001215,-0.00000322
 ,0.00000103,-0.00003872,0.00002606,-0.00003230,0.00000085,0.00000846,-
 0.00000958,0.00003398,-0.00000460,-0.00003022,0.00004531,0.00003342,-0
 .00001821,0.00001729,-0.00001267,0.00000337,-0.00004653,0.00001464,0.0
 0005713,0.00002068,0.00009522,0.00016582,-0.00000928,-0.00007822,-0.00
 005354,0.00000841,-0.00001231,-0.00002271,-0.00002326,0.00000092,0.001
 02416,-0.00017316,-0.00030525,0.00009680,0.00048093,0.00030876,-0.0001
 5361,-0.00054880,0.00014719,0.00018616,0.00002377,0.00004247,0.0000759
 1,-0.00004261,-0.00002491,-0.00013730,-0.00006418,0.00003118,-0.000016
 31,0.00015359,-0.00001379,-0.00035895,-0.00018796,-0.00003442,-0.00458
 998,-0.00106223,-0.00294382,-0.00049401,-0.00026237,0.00043750,-0.0000
 0225,0.00231719,-0.00128249,-0.00081615,0.00081419,-0.00022674,0.07345
 406,-0.26775055,-0.10274125,0.01007076,-0.01576819,-0.00975496,-0.0000
 0269,0.00000107,-0.00000189,-0.00000334,-0.00000240,-0.00000059,-0.000
 00382,-0.00000392,-0.00000063,-0.00000298,-0.00000284,0.00000082,-0.00
 000293,-0.00000898,-0.00000317,0.00000144,0.00000742,-0.00002093,-0.00
 000662,0.00000261,-0.00000474,-0.00000152,0.00000100,-0.00000257,0.000
 06929,-0.00003166,-0.00006408,0.00001853,-0.00001208,-0.00001917,-0.00
 000114,-0.00000980,0.00000309,0.00000830,-0.00000208,-0.00000293,-0.00
 012575,-0.00003233,-0.00006127,0.00066774,0.00029218,0.00086894,-0.079
 17285,0.28182409,-0.00000961,-0.00001541,0.00000438,-0.00000025,0.0000
 1088,-0.00000358,0.00000082,-0.00008203,0.00000662,-0.00007939,0.00005
 465,-0.00000061,0.00007937,-0.00008883,0.00000198,-0.00011598,0.000071
 79,0.00000875,0.00011936,0.00007622,-0.00001490,-0.00001916,0.00004025
 ,-0.00000332,-0.00009762,0.00000746,0.00000230,0.00006739,0.00003837,-
 0.00000581,-0.00003011,-0.00004882,0.00000801,0.00022078,-0.00006372,-
 0.00005641,-0.00000089,-0.00008109,0.00003609,-0.00002136,0.00008590,-
 0.00002013,-0.00034488,-0.00018795,-0.00029979,-0.00007943,-0.00001342
 ,0.00022171,0.00000490,0.00005862,-0.00001405,0.00006474,-0.00001760,-
 0.00000446,-0.00014754,-0.00106859,0.00013956,-0.00012702,-0.00079606,
 -0.00076532,-0.00044781,0.00060070,-0.00059914,-0.00013570,-0.00010472
 ,-0.00006889,-0.00021368,0.00000352,0.00008302,0.00024608,0.00007506,-
 0.00006367,-0.00001941,-0.00023853,0.00006207,0.00060737,0.00042846,0.
 00008322,0.00131238,-0.00098616,0.00856204,-0.00008818,0.00144203,-0.0
 0056443,0.00274133,-0.00148663,0.00403822,-0.00055968,-0.00677001,-0.0
 0010808,0.04248295,-0.10257123,-0.08498987,0.00082783,-0.00439766,0.00
 219926,0.00000010,0.00000067,0.00000118,-0.00000058,-0.00000009,0.0000
 0114,-0.00000120,0.00000019,0.00000236,-0.00000285,0.00000037,-0.00000
 112,0.00000390,0.00000061,0.00000964,-0.00000829,0.00001031,-0.0000134
 0,-0.00000831,0.00000264,0.00000086,0.00000237,0.00000159,0.00000001,-
 0.00007659,-0.00009307,0.00010145,0.00000652,0.00000531,0.00004564,-0.
 00000022,0.00000048,-0.00001000,-0.00000328,0.00000257,0.00000109,0.00
 011864,-0.00052372,0.00000314,-0.00058867,0.00092548,-0.00189186,-0.04
 443963,0.11358461,0.07829123,-0.00001498,0.00001408,0.00000399,0.00001
 200,-0.00000127,-0.00000063,0.00001922,0.00007759,-0.00004944,0.000022
 67,-0.00006858,0.00000551,-0.00003894,-0.00000326,-0.00001511,-0.00001
 681,0.00002764,-0.00000092,0.00003320,-0.00000088,-0.00000019,0.000007
 60,-0.00005915,0.00002265,0.00007849,0.00000003,0.00001896,-0.00004779
 ,0.00001765,0.00001797,0.00002179,0.00002493,-0.00001746,-0.00039108,-
 0.00041051,-0.00011309,-0.00008890,-0.00000744,0.00021529,-0.00017771,
 -0.00002558,-0.00003248,-0.00259231,-0.00003526,-0.00389564,0.00079711
 ,-0.00148489,-0.00048164,0.00031025,0.00037352,0.00027909,0.00011935,-
 0.00002426,-0.00002408,-0.00127107,-0.00056191,-0.00134634,-0.00035059
 ,-0.00034798,0.00012433,-0.00011187,0.00026623,0.00013467,-0.00018122,
 0.00005718,0.00002340,0.00002517,-0.00002507,-0.00000265,-0.00003855,0
 .00000868,0.00001050,0.00003898,0.00003609,-0.00003064,0.00014805,0.00
 000760,0.00003072,-0.00513897,0.00082350,0.00225837,0.00186481,0.00093
 170,0.00197910,0.00055096,-0.00042197,-0.00051089,-0.00033032,-0.00399
 479,0.00077053,-0.01502544,0.00446100,0.00685863,-0.31195289,0.0332996
 2,0.09328042,0.00000112,-0.00000208,-0.00000194,0.00000066,0.00000269,
 0.00000113,0.00000350,0.00000290,0.00000683,0.00000258,0.00000142,-0.0
 0000101,0.00000013,0.00000392,0.00000072,0.00002259,0.00002389,-0.0000
 4769,0.00000468,-0.00000383,0.00000010,0.00000377,0.00000296,-0.000001
 10,-0.00224383,-0.00259662,-0.00251853,-0.00005897,0.00011902,-0.00012
 552,0.00000229,0.00000602,0.00000284,-0.00000331,-0.00000046,-0.000004
 26,-0.00010538,0.00006364,-0.00017616,-0.00076891,0.00026183,0.0002284
 9,0.00064121,0.00015848,-0.00123952,0.33621768,0.00001091,-0.00000274,
 -0.00000057,-0.00000058,0.00000013,0.00000163,-0.00007256,0.00006921,-
 0.00000682,0.00014640,0.00002486,-0.00001614,-0.00007959,-0.00000647,0
 .00001155,0.00002340,-0.00004396,0.00000045,-0.00006551,-0.00000349,0.
 00001766,0.00001057,-0.00004419,0.00001652,0.00016697,0.00000881,-0.00
 007767,-0.00006598,-0.00012123,0.00000612,0.00002856,0.00007690,-0.000
 01900,-0.00049551,0.00020605,0.00004590,-0.00002229,0.00016113,-0.0000
 3458,0.00007082,-0.00006951,-0.00000063,-0.00137414,0.00012637,-0.0008
 2864,0.00020051,-0.00086868,-0.00052658,-0.00020275,-0.00029155,0.0001
 8258,0.00004842,0.00009808,-0.00002934,0.00041473,0.00101961,0.0011140
 3,0.00137064,0.00046901,0.00006999,0.00010078,-0.00027606,0.00018464,0
 .00012041,0.00011363,-0.00004805,0.00011161,-0.00000455,-0.00004097,-0
 .00001551,-0.00012303,0.00000821,-0.00012239,0.00008085,-0.00000255,-0
 .00011868,-0.00004023,0.00004770,0.02663825,0.00067027,-0.00828205,0.0
 0027398,-0.00473224,-0.00299627,-0.00002378,-0.00061900,0.00008969,-0.
 00316751,-0.00252921,-0.00360566,-0.02539939,0.00674321,0.00704998,0.0
 3297591,-0.06092995,-0.01769442,0.00000879,0.00000086,-0.00000146,0.00
 000531,0.00000378,-0.00000279,-0.00000125,0.00000329,-0.00000101,-0.00
 000169,0.00000443,-0.00000240,-0.00000409,0.00000559,-0.00000121,-0.00
 000248,-0.00004293,0.00007956,0.00001855,-0.00000736,0.00000482,0.0000
 0479,-0.00000436,0.00000551,-0.00032339,0.00056211,-0.00056087,0.00017
 156,-0.00037711,-0.00019825,-0.00001166,-0.00000255,0.00000461,-0.0000
 0581,0.00001117,-0.00000430,0.00011084,0.00002771,0.00041714,-0.001105
 41,0.00014211,0.00029293,0.00064727,0.00006818,0.00210659,-0.03099805,
 0.06044305,-0.00000196,-0.00001645,0.00000343,0.00001701,0.00000792,-0
 .00001110,-0.00010208,0.00000993,0.00001654,0.00008770,0.00004076,-0.0
 0002837,0.00002308,0.00001651,-0.00001279,-0.00005205,0.00004007,0.000
 00350,0.00001295,-0.00002865,-0.00001120,0.00005923,0.00002087,-0.0000
 2560,0.00000847,-0.00016168,0.00007620,-0.00004110,-0.00008013,-0.0000
 0253,-0.00003530,0.00009119,-0.00001869,-0.00020502,0.00037104,0.00001
 754,0.00000842,0.00013487,-0.00009244,0.00018111,-0.00003709,-0.000001
 06,-0.00150608,-0.00079378,-0.00041685,0.00056936,-0.00070863,-0.00038
 003,-0.00021253,0.00000502,0.00010598,0.00014840,0.00000713,-0.0000241
 7,-0.00095005,-0.00014278,-0.00201498,0.00075313,-0.00026175,0.0000450
 4,-0.00052443,0.00083505,0.00015150,-0.00012642,-0.00015559,0.00011006
 ,-0.00015926,0.00017403,0.00003489,0.00024710,-0.00007293,-0.00004685,
 -0.00008672,-0.00007765,0.00002640,0.00035242,0.00024253,-0.00022420,0
 .01070023,0.00260288,0.00096936,0.00078734,-0.00254449,0.00371882,-0.0
 0069043,-0.00122052,-0.00113306,0.00006697,-0.00241267,0.00799454,-0.0
 0304031,-0.00055865,0.00564310,0.09306420,-0.01947438,-0.07150263,0.00
 001255,0.00000453,0.00000156,0.00000149,0.00000503,0.00000181,-0.00000
 537,0.00000215,0.00000571,0.00000022,-0.00000166,0.00000263,-0.0000035
 8,0.00000624,0.00000282,-0.00003820,0.00006678,-0.00004088,0.00000370,
 -0.00000310,0.00000750,0.00001745,0.00000667,0.00000066,-0.00212728,-0
 .00116949,-0.00305399,0.00011484,-0.00025334,0.00011426,-0.00000738,0.
 00000423,-0.00000135,0.00000121,-0.00000056,0.00000003,-0.00010872,0.0
 0025612,-0.00092287,-0.00025579,-0.00001655,0.00009424,-0.00132122,0.0
 0201656,-0.00441614,-0.09563732,0.02322444,0.06523367\\-0.00000002,0.0
 0000093,0.00000052,-0.00000099,0.00000244,0.00000038,-0.00000002,-0.00
 000044,0.00000040,-0.00000219,0.00000200,0.00000051,-0.00000008,-0.000
 00096,0.00000012,-0.00000218,0.00000102,0.00000073,-0.00000047,0.00000
 018,0.00000010,-0.00000063,0.00000270,-0.00000024,-0.00000011,0.000001
 55,0.,0.00000241,0.00000185,-0.00000047,0.00000106,0.00000019,0.000000
 58,0.00000125,-0.00000023,0.00000016,0.00000041,0.00000026,0.00000024,
 0.00000084,0.00000198,-0.00000011,-0.00000009,0.00000025,-0.00000059,0
 .00000087,0.00000037,0.00000023,-0.00000128,0.00000082,0.00000005,-0.0
 0000018,-0.00000029,0.00000028,-0.00000008,-0.00000305,-0.00000004,-0.
 00000082,-0.00000403,-0.00000056,-0.00000120,0.00000101,0.00000016,-0.
 00000128,-0.00000095,0.00000005,-0.00000242,-0.00000083,0.00000048,0.0
 0000060,-0.00000018,-0.00000003,-0.00000131,-0.00000350,-0.00000002,0.
 00000146,0.00000063,-0.00000011,0.00000073,0.00000081,0.00000020,0.000
 00031,0.00000161,0.00000010,0.00000056,-0.00000258,-0.00000092,0.00000
 003,-0.00000023,0.00000013,0.00000409,-0.00000024,-0.00000076,0.000000
 12,-0.00000306,-0.00000120,-0.00000016,0.00000210,0.00000028,-0.000000
 61,0.00000139,0.00000043,-0.00000120,0.00000087,0.00000049,-0.00000173
 ,0.00000027,0.00000049,-0.00000172,-0.00000061,0.00000046,0.00000142,0
 .00000063,-0.00000030,0.00000109,0.00000145,-0.00000010,0.00000051,0.0
 0000202,0.00000003,0.00000102,0.00000030,-0.00000046,0.00000026,-0.000
 00162,-0.00000016,-0.00000176,-0.00000147,0.00000024,-0.00000062,-0.00
 000120,-0.00000005,0.00000081,-0.00000228,-0.00000058,0.00000151,-0.00
 000152,-0.00000073,0.00000101,-0.00000066,-0.00000062,0.00000077,0.000
 00032,0.00000019\\\@


 Just remember, when you're over the hill, you begin to pick up speed.
 -- Charles Schulz
 Job cpu time:      25 days 20 hours 23 minutes 21.5 seconds.
 File lengths (MBytes):  RWF=   4421 Int=      0 D2E=      0 Chk=     85 Scr=      1
 Normal termination of Gaussian 09 at Tue Jul 30 01:32:32 2019.
