 Entering Gaussian System, Link 0=g09
 Initial command:
 /home/minenky/programs//g09/l1.exe "/local/scratch/minenky/m1_00_109587-16-8-C32H18_wB97XD/Gau-6393.inp" -scrdir="/local/scratch/minenky/m1_00_109587-16-8-C32H18_wB97XD/"
 Entering Link 1 = /home/minenky/programs//g09/l1.exe PID=      6394.
  
 Copyright (c) 1988,1990,1992,1993,1995,1998,2003,2009,2013,
            Gaussian, Inc.  All Rights Reserved.
  
 This is part of the Gaussian(R) 09 program.  It is based on
 the Gaussian(R) 03 system (copyright 2003, Gaussian, Inc.),
 the Gaussian(R) 98 system (copyright 1998, Gaussian, Inc.),
 the Gaussian(R) 94 system (copyright 1995, Gaussian, Inc.),
 the Gaussian 92(TM) system (copyright 1992, Gaussian, Inc.),
 the Gaussian 90(TM) system (copyright 1990, Gaussian, Inc.),
 the Gaussian 88(TM) system (copyright 1988, Gaussian, Inc.),
 the Gaussian 86(TM) system (copyright 1986, Carnegie Mellon
 University), and the Gaussian 82(TM) system (copyright 1983,
 Carnegie Mellon University). Gaussian is a federally registered
 trademark of Gaussian, Inc.
  
 This software contains proprietary and confidential information,
 including trade secrets, belonging to Gaussian, Inc.
  
 This software is provided under written license and may be
 used, copied, transmitted, or stored only in accord with that
 written license.
  
 The following legend is applicable only to US Government
 contracts under FAR:
  
                    RESTRICTED RIGHTS LEGEND
  
 Use, reproduction and disclosure by the US Government is
 subject to restrictions as set forth in subparagraphs (a)
 and (c) of the Commercial Computer Software - Restricted
 Rights clause in FAR 52.227-19.
  
 Gaussian, Inc.
 340 Quinnipiac St., Bldg. 40, Wallingford CT 06492
  
  
 ---------------------------------------------------------------
 Warning -- This program may not be used in any manner that
 competes with the business of Gaussian, Inc. or will provide
 assistance to any competitor of Gaussian, Inc.  The licensee
 of this program is prohibited from giving any competitor of
 Gaussian, Inc. access to this program.  By using this program,
 the user acknowledges that Gaussian, Inc. is engaged in the
 business of creating and licensing software in the field of
 computational chemistry and represents and warrants to the
 licensee that it is not a competitor of Gaussian, Inc. and that
 it will not use this program in any manner prohibited above.
 ---------------------------------------------------------------
  

 Cite this work as:
 Gaussian 09, Revision D.01,
 M. J. Frisch, G. W. Trucks, H. B. Schlegel, G. E. Scuseria, 
 M. A. Robb, J. R. Cheeseman, G. Scalmani, V. Barone, B. Mennucci, 
 G. A. Petersson, H. Nakatsuji, M. Caricato, X. Li, H. P. Hratchian, 
 A. F. Izmaylov, J. Bloino, G. Zheng, J. L. Sonnenberg, M. Hada, 
 M. Ehara, K. Toyota, R. Fukuda, J. Hasegawa, M. Ishida, T. Nakajima, 
 Y. Honda, O. Kitao, H. Nakai, T. Vreven, J. A. Montgomery, Jr., 
 J. E. Peralta, F. Ogliaro, M. Bearpark, J. J. Heyd, E. Brothers, 
 K. N. Kudin, V. N. Staroverov, T. Keith, R. Kobayashi, J. Normand, 
 K. Raghavachari, A. Rendell, J. C. Burant, S. S. Iyengar, J. Tomasi, 
 M. Cossi, N. Rega, J. M. Millam, M. Klene, J. E. Knox, J. B. Cross, 
 V. Bakken, C. Adamo, J. Jaramillo, R. Gomperts, R. E. Stratmann, 
 O. Yazyev, A. J. Austin, R. Cammi, C. Pomelli, J. W. Ochterski, 
 R. L. Martin, K. Morokuma, V. G. Zakrzewski, G. A. Voth, 
 P. Salvador, J. J. Dannenberg, S. Dapprich, A. D. Daniels, 
 O. Farkas, J. B. Foresman, J. V. Ortiz, J. Cioslowski, 
 and D. J. Fox, Gaussian, Inc., Wallingford CT, 2013.
 
 ******************************************
 Gaussian 09:  AM64L-G09RevD.01 24-Apr-2013
                27-Jul-2019 
 ******************************************
 %Mem=32000MB
 %NProcShared=16
 Will use up to   16 processors via shared memory.
 %Chk=m1_00_109587-16-8-C32H18_wB97XD
 ----------------------------------------------------------------------
 #P wB97XD/def2tzvp opt=(tight) freq integral(Grid=ultrafine) # SCF(Max
 Cycle=380) 5d 7f GFPrint
 ----------------------------------------------------------------------
 1/7=10,14=-1,18=20,19=15,26=4,38=1/1,3;
 2/9=110,12=2,17=6,18=5,40=1/2;
 3/5=44,7=101,8=11,11=2,16=1,24=100,25=1,30=1,71=1,74=-58,75=-5/1,2,3;
 4//1;
 5/5=2,7=380,38=5/2;
 6/7=2,8=2,9=2,10=2,28=1/1;
 7//1,2,3,16;
 1/7=10,14=-1,18=20,19=15,26=4/3(2);
 2/9=110/2;
 99//99;
 2/9=110/2;
 3/5=44,7=101,8=11,11=2,16=1,25=1,30=1,71=1,74=-58,75=-5/1,2,3;
 4/5=5,16=3,69=1/1;
 5/5=2,7=380,38=5/2;
 7//1,2,3,16;
 1/7=10,14=-1,18=20,19=15,26=4/3(-5);
 2/9=110/2;
 6/7=2,8=2,9=2,10=2,19=2,28=1/1;
 99/9=1/99;
 Leave Link    1 at Sat Jul 27 10:01:39 2019, MaxMem=  4194304000 cpu:         1.6
 (Enter /home/minenky/programs//g09/l101.exe)
 ---------------------------------------
 The PBEPBE optimization and frequencies
 ---------------------------------------
 Symbolic Z-matrix:
 Charge =  0 Multiplicity = 1
 C                    -4.54577   2.81976   0. 
 C                    -2.13483   2.82954   0. 
 C                    -3.35024   3.5144    0. 
 C                    -4.54447   1.41548   0. 
 C                    -5.77852   0.67551   0. 
 C                    -5.77827  -0.67745   0. 
 C                    -4.54395  -1.41698   0. 
 C                    -4.54469  -2.82128   0. 
 C                    -3.34886  -3.51546   0. 
 C                    -2.13371  -2.83011   0. 
 C                    -3.31933   0.71821   0. 
 C                    -3.31907  -0.71923   0. 
 C                    -2.10061  -1.43836   0. 
 C                    -2.10113   1.4378    0. 
 C                    -0.84049   0.70594   0. 
 C                    -0.84025  -0.70607   0. 
 C                     0.37762  -1.38412   0. 
 C                     0.37722   1.38434   0. 
 C                     1.59865   0.70503   0. 
 C                     1.59886  -0.70445   0. 
 C                     2.85951   1.43173   0. 
 C                     4.07583   0.72842   0. 
 C                     5.28339   1.44905   0. 
 C                     5.28529   2.83009   0. 
 C                     4.07501   3.52954   0. 
 C                     2.87978   2.8378    0. 
 C                     4.07603  -0.72718   0. 
 C                     2.8599   -1.43081   0. 
 C                     2.88054  -2.83687   0. 
 C                     4.07595  -3.52828   0. 
 C                     5.28603  -2.82852   0. 
 C                     5.28377  -1.44748   0. 
 H                    -5.49985   3.35888   0. 
 H                    -1.18541   3.38697   0. 
 H                    -3.35208   4.60944   0. 
 H                    -6.71801   1.24013   0. 
 H                    -6.71757  -1.24241   0. 
 H                    -5.49857  -3.36077   0. 
 H                    -3.35024  -4.61051   0. 
 H                    -1.18405  -3.38716   0. 
 H                     0.37544  -2.49129   0. 
 H                     0.37474   2.49152   0. 
 H                     6.23253   0.89148   0. 
 H                     6.23241   3.37923   0. 
 H                     4.07771   4.62431   0. 
 H                     1.92207   3.38071   0. 
 H                     1.92297  -3.38003   0. 
 H                     4.07895  -4.62306   0. 
 H                     6.2333   -3.37739   0. 
 H                     6.23277  -0.88967   0. 
 
 NAtoms=     50 NQM=       50 NQMF=       0 NMMI=      0 NMMIF=      0
                NMic=       0 NMicF=      0.
                    Isotopes and Nuclear Properties:
 (Nuclear quadrupole moments (NQMom) in fm**2, nuclear magnetic moments (NMagM)
  in nuclear magnetons)

  Atom         1           2           3           4           5           6           7           8           9          10
 IAtWgt=          12          12          12          12          12          12          12          12          12          12
 AtmWgt=  12.0000000  12.0000000  12.0000000  12.0000000  12.0000000  12.0000000  12.0000000  12.0000000  12.0000000  12.0000000
 NucSpn=           0           0           0           0           0           0           0           0           0           0
 AtZEff=   0.0000000   0.0000000   0.0000000   0.0000000   0.0000000   0.0000000   0.0000000   0.0000000   0.0000000   0.0000000
 NQMom=    0.0000000   0.0000000   0.0000000   0.0000000   0.0000000   0.0000000   0.0000000   0.0000000   0.0000000   0.0000000
 NMagM=    0.0000000   0.0000000   0.0000000   0.0000000   0.0000000   0.0000000   0.0000000   0.0000000   0.0000000   0.0000000
 AtZNuc=   6.0000000   6.0000000   6.0000000   6.0000000   6.0000000   6.0000000   6.0000000   6.0000000   6.0000000   6.0000000

  Atom        11          12          13          14          15          16          17          18          19          20
 IAtWgt=          12          12          12          12          12          12          12          12          12          12
 AtmWgt=  12.0000000  12.0000000  12.0000000  12.0000000  12.0000000  12.0000000  12.0000000  12.0000000  12.0000000  12.0000000
 NucSpn=           0           0           0           0           0           0           0           0           0           0
 AtZEff=   0.0000000   0.0000000   0.0000000   0.0000000   0.0000000   0.0000000   0.0000000   0.0000000   0.0000000   0.0000000
 NQMom=    0.0000000   0.0000000   0.0000000   0.0000000   0.0000000   0.0000000   0.0000000   0.0000000   0.0000000   0.0000000
 NMagM=    0.0000000   0.0000000   0.0000000   0.0000000   0.0000000   0.0000000   0.0000000   0.0000000   0.0000000   0.0000000
 AtZNuc=   6.0000000   6.0000000   6.0000000   6.0000000   6.0000000   6.0000000   6.0000000   6.0000000   6.0000000   6.0000000

  Atom        21          22          23          24          25          26          27          28          29          30
 IAtWgt=          12          12          12          12          12          12          12          12          12          12
 AtmWgt=  12.0000000  12.0000000  12.0000000  12.0000000  12.0000000  12.0000000  12.0000000  12.0000000  12.0000000  12.0000000
 NucSpn=           0           0           0           0           0           0           0           0           0           0
 AtZEff=   0.0000000   0.0000000   0.0000000   0.0000000   0.0000000   0.0000000   0.0000000   0.0000000   0.0000000   0.0000000
 NQMom=    0.0000000   0.0000000   0.0000000   0.0000000   0.0000000   0.0000000   0.0000000   0.0000000   0.0000000   0.0000000
 NMagM=    0.0000000   0.0000000   0.0000000   0.0000000   0.0000000   0.0000000   0.0000000   0.0000000   0.0000000   0.0000000
 AtZNuc=   6.0000000   6.0000000   6.0000000   6.0000000   6.0000000   6.0000000   6.0000000   6.0000000   6.0000000   6.0000000

  Atom        31          32          33          34          35          36          37          38          39          40
 IAtWgt=          12          12           1           1           1           1           1           1           1           1
 AtmWgt=  12.0000000  12.0000000   1.0078250   1.0078250   1.0078250   1.0078250   1.0078250   1.0078250   1.0078250   1.0078250
 NucSpn=           0           0           1           1           1           1           1           1           1           1
 AtZEff=   0.0000000   0.0000000   0.0000000   0.0000000   0.0000000   0.0000000   0.0000000   0.0000000   0.0000000   0.0000000
 NQMom=    0.0000000   0.0000000   0.0000000   0.0000000   0.0000000   0.0000000   0.0000000   0.0000000   0.0000000   0.0000000
 NMagM=    0.0000000   0.0000000   2.7928460   2.7928460   2.7928460   2.7928460   2.7928460   2.7928460   2.7928460   2.7928460
 AtZNuc=   6.0000000   6.0000000   1.0000000   1.0000000   1.0000000   1.0000000   1.0000000   1.0000000   1.0000000   1.0000000

  Atom        41          42          43          44          45          46          47          48          49          50
 IAtWgt=           1           1           1           1           1           1           1           1           1           1
 AtmWgt=   1.0078250   1.0078250   1.0078250   1.0078250   1.0078250   1.0078250   1.0078250   1.0078250   1.0078250   1.0078250
 NucSpn=           1           1           1           1           1           1           1           1           1           1
 AtZEff=   0.0000000   0.0000000   0.0000000   0.0000000   0.0000000   0.0000000   0.0000000   0.0000000   0.0000000   0.0000000
 NQMom=    0.0000000   0.0000000   0.0000000   0.0000000   0.0000000   0.0000000   0.0000000   0.0000000   0.0000000   0.0000000
 NMagM=    2.7928460   2.7928460   2.7928460   2.7928460   2.7928460   2.7928460   2.7928460   2.7928460   2.7928460   2.7928460
 AtZNuc=   1.0000000   1.0000000   1.0000000   1.0000000   1.0000000   1.0000000   1.0000000   1.0000000   1.0000000   1.0000000
 Leave Link  101 at Sat Jul 27 10:01:41 2019, MaxMem=  4194304000 cpu:        11.4
 (Enter /home/minenky/programs//g09/l103.exe)

 GradGradGradGradGradGradGradGradGradGradGradGradGradGradGradGradGradGrad
 Berny optimization.
 Initialization pass.
                           ----------------------------
                           !    Initial Parameters    !
                           ! (Angstroms and Degrees)  !
 --------------------------                            --------------------------
 ! Name  Definition              Value          Derivative Info.                !
 --------------------------------------------------------------------------------
 ! R1    R(1,3)                  1.3827         estimate D2E/DX2                !
 ! R2    R(1,4)                  1.4043         estimate D2E/DX2                !
 ! R3    R(1,33)                 1.0959         estimate D2E/DX2                !
 ! R4    R(2,3)                  1.3951         estimate D2E/DX2                !
 ! R5    R(2,14)                 1.3922         estimate D2E/DX2                !
 ! R6    R(2,34)                 1.101          estimate D2E/DX2                !
 ! R7    R(3,35)                 1.095          estimate D2E/DX2                !
 ! R8    R(4,5)                  1.4389         estimate D2E/DX2                !
 ! R9    R(4,11)                 1.4097         estimate D2E/DX2                !
 ! R10   R(5,6)                  1.353          estimate D2E/DX2                !
 ! R11   R(5,36)                 1.0961         estimate D2E/DX2                !
 ! R12   R(6,7)                  1.4389         estimate D2E/DX2                !
 ! R13   R(6,37)                 1.0961         estimate D2E/DX2                !
 ! R14   R(7,8)                  1.4043         estimate D2E/DX2                !
 ! R15   R(7,12)                 1.4097         estimate D2E/DX2                !
 ! R16   R(8,9)                  1.3827         estimate D2E/DX2                !
 ! R17   R(8,38)                 1.0959         estimate D2E/DX2                !
 ! R18   R(9,10)                 1.3951         estimate D2E/DX2                !
 ! R19   R(9,39)                 1.095          estimate D2E/DX2                !
 ! R20   R(10,13)                1.3921         estimate D2E/DX2                !
 ! R21   R(10,40)                1.101          estimate D2E/DX2                !
 ! R22   R(11,12)                1.4374         estimate D2E/DX2                !
 ! R23   R(11,14)                1.4149         estimate D2E/DX2                !
 ! R24   R(12,13)                1.4148         estimate D2E/DX2                !
 ! R25   R(13,16)                1.4576         estimate D2E/DX2                !
 ! R26   R(14,15)                1.4577         estimate D2E/DX2                !
 ! R27   R(15,16)                1.412          estimate D2E/DX2                !
 ! R28   R(15,18)                1.3939         estimate D2E/DX2                !
 ! R29   R(16,17)                1.3939         estimate D2E/DX2                !
 ! R30   R(17,20)                1.3976         estimate D2E/DX2                !
 ! R31   R(17,41)                1.1072         estimate D2E/DX2                !
 ! R32   R(18,19)                1.3976         estimate D2E/DX2                !
 ! R33   R(18,42)                1.1072         estimate D2E/DX2                !
 ! R34   R(19,20)                1.4095         estimate D2E/DX2                !
 ! R35   R(19,21)                1.4553         estimate D2E/DX2                !
 ! R36   R(20,28)                1.4553         estimate D2E/DX2                !
 ! R37   R(21,22)                1.405          estimate D2E/DX2                !
 ! R38   R(21,26)                1.4062         estimate D2E/DX2                !
 ! R39   R(22,23)                1.4062         estimate D2E/DX2                !
 ! R40   R(22,27)                1.4556         estimate D2E/DX2                !
 ! R41   R(23,24)                1.381          estimate D2E/DX2                !
 ! R42   R(23,43)                1.1008         estimate D2E/DX2                !
 ! R43   R(24,25)                1.3979         estimate D2E/DX2                !
 ! R44   R(24,44)                1.0948         estimate D2E/DX2                !
 ! R45   R(25,26)                1.381          estimate D2E/DX2                !
 ! R46   R(25,45)                1.0948         estimate D2E/DX2                !
 ! R47   R(26,46)                1.1009         estimate D2E/DX2                !
 ! R48   R(27,28)                1.405          estimate D2E/DX2                !
 ! R49   R(27,32)                1.4062         estimate D2E/DX2                !
 ! R50   R(28,29)                1.4062         estimate D2E/DX2                !
 ! R51   R(29,30)                1.381          estimate D2E/DX2                !
 ! R52   R(29,47)                1.1009         estimate D2E/DX2                !
 ! R53   R(30,31)                1.3978         estimate D2E/DX2                !
 ! R54   R(30,48)                1.0948         estimate D2E/DX2                !
 ! R55   R(31,32)                1.381          estimate D2E/DX2                !
 ! R56   R(31,49)                1.0948         estimate D2E/DX2                !
 ! R57   R(32,50)                1.1008         estimate D2E/DX2                !
 ! A1    A(3,1,4)              120.1049         estimate D2E/DX2                !
 ! A2    A(3,1,33)             120.3724         estimate D2E/DX2                !
 ! A3    A(4,1,33)             119.5227         estimate D2E/DX2                !
 ! A4    A(3,2,14)             120.7876         estimate D2E/DX2                !
 ! A5    A(3,2,34)             120.1815         estimate D2E/DX2                !
 ! A6    A(14,2,34)            119.0309         estimate D2E/DX2                !
 ! A7    A(1,3,2)              120.4418         estimate D2E/DX2                !
 ! A8    A(1,3,35)             120.0616         estimate D2E/DX2                !
 ! A9    A(2,3,35)             119.4966         estimate D2E/DX2                !
 ! A10   A(1,4,5)              120.895          estimate D2E/DX2                !
 ! A11   A(1,4,11)             119.699          estimate D2E/DX2                !
 ! A12   A(5,4,11)             119.406          estimate D2E/DX2                !
 ! A13   A(4,5,6)              120.9374         estimate D2E/DX2                !
 ! A14   A(4,5,36)             118.0464         estimate D2E/DX2                !
 ! A15   A(6,5,36)             121.0162         estimate D2E/DX2                !
 ! A16   A(5,6,7)              120.9382         estimate D2E/DX2                !
 ! A17   A(5,6,37)             121.0149         estimate D2E/DX2                !
 ! A18   A(7,6,37)             118.0469         estimate D2E/DX2                !
 ! A19   A(6,7,8)              120.8973         estimate D2E/DX2                !
 ! A20   A(6,7,12)             119.4045         estimate D2E/DX2                !
 ! A21   A(8,7,12)             119.6982         estimate D2E/DX2                !
 ! A22   A(7,8,9)              120.1049         estimate D2E/DX2                !
 ! A23   A(7,8,38)             119.5217         estimate D2E/DX2                !
 ! A24   A(9,8,38)             120.3734         estimate D2E/DX2                !
 ! A25   A(8,9,10)             120.4416         estimate D2E/DX2                !
 ! A26   A(8,9,39)             120.063          estimate D2E/DX2                !
 ! A27   A(10,9,39)            119.4953         estimate D2E/DX2                !
 ! A28   A(9,10,13)            120.7857         estimate D2E/DX2                !
 ! A29   A(9,10,40)            120.1819         estimate D2E/DX2                !
 ! A30   A(13,10,40)           119.0324         estimate D2E/DX2                !
 ! A31   A(4,11,12)            119.6565         estimate D2E/DX2                !
 ! A32   A(4,11,14)            119.7838         estimate D2E/DX2                !
 ! A33   A(12,11,14)           120.5597         estimate D2E/DX2                !
 ! A34   A(7,12,11)            119.6573         estimate D2E/DX2                !
 ! A35   A(7,12,13)            119.7832         estimate D2E/DX2                !
 ! A36   A(11,12,13)           120.5594         estimate D2E/DX2                !
 ! A37   A(10,13,12)           119.1863         estimate D2E/DX2                !
 ! A38   A(10,13,16)           121.5197         estimate D2E/DX2                !
 ! A39   A(12,13,16)           119.294          estimate D2E/DX2                !
 ! A40   A(2,14,11)            119.183          estimate D2E/DX2                !
 ! A41   A(2,14,15)            121.5244         estimate D2E/DX2                !
 ! A42   A(11,14,15)           119.2926         estimate D2E/DX2                !
 ! A43   A(14,15,16)           120.1469         estimate D2E/DX2                !
 ! A44   A(14,15,18)           120.7401         estimate D2E/DX2                !
 ! A45   A(16,15,18)           119.113          estimate D2E/DX2                !
 ! A46   A(13,16,15)           120.1475         estimate D2E/DX2                !
 ! A47   A(13,16,17)           120.7363         estimate D2E/DX2                !
 ! A48   A(15,16,17)           119.1163         estimate D2E/DX2                !
 ! A49   A(16,17,20)           121.796          estimate D2E/DX2                !
 ! A50   A(16,17,41)           118.9936         estimate D2E/DX2                !
 ! A51   A(20,17,41)           119.2103         estimate D2E/DX2                !
 ! A52   A(15,18,19)           121.7962         estimate D2E/DX2                !
 ! A53   A(15,18,42)           118.9948         estimate D2E/DX2                !
 ! A54   A(19,18,42)           119.2089         estimate D2E/DX2                !
 ! A55   A(18,19,20)           119.0893         estimate D2E/DX2                !
 ! A56   A(18,19,21)           120.9618         estimate D2E/DX2                !
 ! A57   A(20,19,21)           119.949          estimate D2E/DX2                !
 ! A58   A(17,20,19)           119.0892         estimate D2E/DX2                !
 ! A59   A(17,20,28)           120.9607         estimate D2E/DX2                !
 ! A60   A(19,20,28)           119.95           estimate D2E/DX2                !
 ! A61   A(19,21,22)           120.0051         estimate D2E/DX2                !
 ! A62   A(19,21,26)           120.783          estimate D2E/DX2                !
 ! A63   A(22,21,26)           119.2119         estimate D2E/DX2                !
 ! A64   A(21,22,23)           119.135          estimate D2E/DX2                !
 ! A65   A(21,22,27)           120.0454         estimate D2E/DX2                !
 ! A66   A(23,22,27)           120.8196         estimate D2E/DX2                !
 ! A67   A(22,23,24)           120.9058         estimate D2E/DX2                !
 ! A68   A(22,23,43)           118.7411         estimate D2E/DX2                !
 ! A69   A(24,23,43)           120.3531         estimate D2E/DX2                !
 ! A70   A(23,24,25)           119.9459         estimate D2E/DX2                !
 ! A71   A(23,24,44)           120.1837         estimate D2E/DX2                !
 ! A72   A(25,24,44)           119.8704         estimate D2E/DX2                !
 ! A73   A(24,25,26)           119.9156         estimate D2E/DX2                !
 ! A74   A(24,25,45)           119.8829         estimate D2E/DX2                !
 ! A75   A(26,25,45)           120.2015         estimate D2E/DX2                !
 ! A76   A(21,26,25)           120.8857         estimate D2E/DX2                !
 ! A77   A(21,26,46)           118.7223         estimate D2E/DX2                !
 ! A78   A(25,26,46)           120.3919         estimate D2E/DX2                !
 ! A79   A(22,27,28)           120.0456         estimate D2E/DX2                !
 ! A80   A(22,27,32)           120.8197         estimate D2E/DX2                !
 ! A81   A(28,27,32)           119.1348         estimate D2E/DX2                !
 ! A82   A(20,28,27)           120.005          estimate D2E/DX2                !
 ! A83   A(20,28,29)           120.7826         estimate D2E/DX2                !
 ! A84   A(27,28,29)           119.2124         estimate D2E/DX2                !
 ! A85   A(28,29,30)           120.8854         estimate D2E/DX2                !
 ! A86   A(28,29,47)           118.7224         estimate D2E/DX2                !
 ! A87   A(30,29,47)           120.3922         estimate D2E/DX2                !
 ! A88   A(29,30,31)           119.9156         estimate D2E/DX2                !
 ! A89   A(29,30,48)           120.2018         estimate D2E/DX2                !
 ! A90   A(31,30,48)           119.8826         estimate D2E/DX2                !
 ! A91   A(30,31,32)           119.9461         estimate D2E/DX2                !
 ! A92   A(30,31,49)           119.8709         estimate D2E/DX2                !
 ! A93   A(32,31,49)           120.1831         estimate D2E/DX2                !
 ! A94   A(27,32,31)           120.9059         estimate D2E/DX2                !
 ! A95   A(27,32,50)           118.7411         estimate D2E/DX2                !
 ! A96   A(31,32,50)           120.3531         estimate D2E/DX2                !
 ! D1    D(4,1,3,2)              0.0            estimate D2E/DX2                !
 ! D2    D(4,1,3,35)           180.0            estimate D2E/DX2                !
 ! D3    D(33,1,3,2)           180.0            estimate D2E/DX2                !
 ! D4    D(33,1,3,35)            0.0            estimate D2E/DX2                !
 ! D5    D(3,1,4,5)            180.0            estimate D2E/DX2                !
 ! D6    D(3,1,4,11)             0.0            estimate D2E/DX2                !
 ! D7    D(33,1,4,5)             0.0            estimate D2E/DX2                !
 ! D8    D(33,1,4,11)          180.0            estimate D2E/DX2                !
 ! D9    D(14,2,3,1)             0.0            estimate D2E/DX2                !
 ! D10   D(14,2,3,35)          180.0            estimate D2E/DX2                !
 ! D11   D(34,2,3,1)           180.0            estimate D2E/DX2                !
 ! D12   D(34,2,3,35)            0.0            estimate D2E/DX2                !
 ! D13   D(3,2,14,11)            0.0            estimate D2E/DX2                !
 ! D14   D(3,2,14,15)          180.0            estimate D2E/DX2                !
 ! D15   D(34,2,14,11)         180.0            estimate D2E/DX2                !
 ! D16   D(34,2,14,15)           0.0            estimate D2E/DX2                !
 ! D17   D(1,4,5,6)            180.0            estimate D2E/DX2                !
 ! D18   D(1,4,5,36)             0.0            estimate D2E/DX2                !
 ! D19   D(11,4,5,6)             0.0            estimate D2E/DX2                !
 ! D20   D(11,4,5,36)          180.0            estimate D2E/DX2                !
 ! D21   D(1,4,11,12)          180.0            estimate D2E/DX2                !
 ! D22   D(1,4,11,14)            0.0            estimate D2E/DX2                !
 ! D23   D(5,4,11,12)            0.0            estimate D2E/DX2                !
 ! D24   D(5,4,11,14)          180.0            estimate D2E/DX2                !
 ! D25   D(4,5,6,7)              0.0            estimate D2E/DX2                !
 ! D26   D(4,5,6,37)           180.0            estimate D2E/DX2                !
 ! D27   D(36,5,6,7)           180.0            estimate D2E/DX2                !
 ! D28   D(36,5,6,37)            0.0            estimate D2E/DX2                !
 ! D29   D(5,6,7,8)            180.0            estimate D2E/DX2                !
 ! D30   D(5,6,7,12)             0.0            estimate D2E/DX2                !
 ! D31   D(37,6,7,8)             0.0            estimate D2E/DX2                !
 ! D32   D(37,6,7,12)          180.0            estimate D2E/DX2                !
 ! D33   D(6,7,8,9)            180.0            estimate D2E/DX2                !
 ! D34   D(6,7,8,38)             0.0            estimate D2E/DX2                !
 ! D35   D(12,7,8,9)             0.0            estimate D2E/DX2                !
 ! D36   D(12,7,8,38)          180.0            estimate D2E/DX2                !
 ! D37   D(6,7,12,11)            0.0            estimate D2E/DX2                !
 ! D38   D(6,7,12,13)          180.0            estimate D2E/DX2                !
 ! D39   D(8,7,12,11)          180.0            estimate D2E/DX2                !
 ! D40   D(8,7,12,13)            0.0            estimate D2E/DX2                !
 ! D41   D(7,8,9,10)             0.0            estimate D2E/DX2                !
 ! D42   D(7,8,9,39)           180.0            estimate D2E/DX2                !
 ! D43   D(38,8,9,10)          180.0            estimate D2E/DX2                !
 ! D44   D(38,8,9,39)            0.0            estimate D2E/DX2                !
 ! D45   D(8,9,10,13)            0.0            estimate D2E/DX2                !
 ! D46   D(8,9,10,40)          180.0            estimate D2E/DX2                !
 ! D47   D(39,9,10,13)         180.0            estimate D2E/DX2                !
 ! D48   D(39,9,10,40)           0.0            estimate D2E/DX2                !
 ! D49   D(9,10,13,12)           0.0            estimate D2E/DX2                !
 ! D50   D(9,10,13,16)         180.0            estimate D2E/DX2                !
 ! D51   D(40,10,13,12)        180.0            estimate D2E/DX2                !
 ! D52   D(40,10,13,16)          0.0            estimate D2E/DX2                !
 ! D53   D(4,11,12,7)            0.0            estimate D2E/DX2                !
 ! D54   D(4,11,12,13)         180.0            estimate D2E/DX2                !
 ! D55   D(14,11,12,7)         180.0            estimate D2E/DX2                !
 ! D56   D(14,11,12,13)          0.0            estimate D2E/DX2                !
 ! D57   D(4,11,14,2)            0.0            estimate D2E/DX2                !
 ! D58   D(4,11,14,15)         180.0            estimate D2E/DX2                !
 ! D59   D(12,11,14,2)         180.0            estimate D2E/DX2                !
 ! D60   D(12,11,14,15)          0.0            estimate D2E/DX2                !
 ! D61   D(7,12,13,10)           0.0            estimate D2E/DX2                !
 ! D62   D(7,12,13,16)         180.0            estimate D2E/DX2                !
 ! D63   D(11,12,13,10)        180.0            estimate D2E/DX2                !
 ! D64   D(11,12,13,16)          0.0            estimate D2E/DX2                !
 ! D65   D(10,13,16,15)        180.0            estimate D2E/DX2                !
 ! D66   D(10,13,16,17)          0.0            estimate D2E/DX2                !
 ! D67   D(12,13,16,15)          0.0            estimate D2E/DX2                !
 ! D68   D(12,13,16,17)        180.0            estimate D2E/DX2                !
 ! D69   D(2,14,15,16)         180.0            estimate D2E/DX2                !
 ! D70   D(2,14,15,18)           0.0            estimate D2E/DX2                !
 ! D71   D(11,14,15,16)          0.0            estimate D2E/DX2                !
 ! D72   D(11,14,15,18)        180.0            estimate D2E/DX2                !
 ! D73   D(14,15,16,13)          0.0            estimate D2E/DX2                !
 ! D74   D(14,15,16,17)        180.0            estimate D2E/DX2                !
 ! D75   D(18,15,16,13)        180.0            estimate D2E/DX2                !
 ! D76   D(18,15,16,17)          0.0            estimate D2E/DX2                !
 ! D77   D(14,15,18,19)        180.0            estimate D2E/DX2                !
 ! D78   D(14,15,18,42)          0.0            estimate D2E/DX2                !
 ! D79   D(16,15,18,19)          0.0            estimate D2E/DX2                !
 ! D80   D(16,15,18,42)        180.0            estimate D2E/DX2                !
 ! D81   D(13,16,17,20)        180.0            estimate D2E/DX2                !
 ! D82   D(13,16,17,41)          0.0            estimate D2E/DX2                !
 ! D83   D(15,16,17,20)          0.0            estimate D2E/DX2                !
 ! D84   D(15,16,17,41)        180.0            estimate D2E/DX2                !
 ! D85   D(16,17,20,19)          0.0            estimate D2E/DX2                !
 ! D86   D(16,17,20,28)        180.0            estimate D2E/DX2                !
 ! D87   D(41,17,20,19)        180.0            estimate D2E/DX2                !
 ! D88   D(41,17,20,28)          0.0            estimate D2E/DX2                !
 ! D89   D(15,18,19,20)          0.0            estimate D2E/DX2                !
 ! D90   D(15,18,19,21)        180.0            estimate D2E/DX2                !
 ! D91   D(42,18,19,20)        180.0            estimate D2E/DX2                !
 ! D92   D(42,18,19,21)          0.0            estimate D2E/DX2                !
 ! D93   D(18,19,20,17)          0.0            estimate D2E/DX2                !
 ! D94   D(18,19,20,28)        180.0            estimate D2E/DX2                !
 ! D95   D(21,19,20,17)        180.0            estimate D2E/DX2                !
 ! D96   D(21,19,20,28)          0.0            estimate D2E/DX2                !
 ! D97   D(18,19,21,22)        180.0            estimate D2E/DX2                !
 ! D98   D(18,19,21,26)          0.0            estimate D2E/DX2                !
 ! D99   D(20,19,21,22)          0.0            estimate D2E/DX2                !
 ! D100  D(20,19,21,26)        180.0            estimate D2E/DX2                !
 ! D101  D(17,20,28,27)        180.0            estimate D2E/DX2                !
 ! D102  D(17,20,28,29)          0.0            estimate D2E/DX2                !
 ! D103  D(19,20,28,27)          0.0            estimate D2E/DX2                !
 ! D104  D(19,20,28,29)        180.0            estimate D2E/DX2                !
 ! D105  D(19,21,22,23)        180.0            estimate D2E/DX2                !
 ! D106  D(19,21,22,27)          0.0            estimate D2E/DX2                !
 ! D107  D(26,21,22,23)          0.0            estimate D2E/DX2                !
 ! D108  D(26,21,22,27)        180.0            estimate D2E/DX2                !
 ! D109  D(19,21,26,25)        180.0            estimate D2E/DX2                !
 ! D110  D(19,21,26,46)          0.0            estimate D2E/DX2                !
 ! D111  D(22,21,26,25)          0.0            estimate D2E/DX2                !
 ! D112  D(22,21,26,46)        180.0            estimate D2E/DX2                !
 ! D113  D(21,22,23,24)          0.0            estimate D2E/DX2                !
 ! D114  D(21,22,23,43)        180.0            estimate D2E/DX2                !
 ! D115  D(27,22,23,24)        180.0            estimate D2E/DX2                !
 ! D116  D(27,22,23,43)          0.0            estimate D2E/DX2                !
 ! D117  D(21,22,27,28)          0.0            estimate D2E/DX2                !
 ! D118  D(21,22,27,32)        180.0            estimate D2E/DX2                !
 ! D119  D(23,22,27,28)        180.0            estimate D2E/DX2                !
 ! D120  D(23,22,27,32)          0.0            estimate D2E/DX2                !
 ! D121  D(22,23,24,25)          0.0            estimate D2E/DX2                !
 ! D122  D(22,23,24,44)        180.0            estimate D2E/DX2                !
 ! D123  D(43,23,24,25)        180.0            estimate D2E/DX2                !
 ! D124  D(43,23,24,44)          0.0            estimate D2E/DX2                !
 ! D125  D(23,24,25,26)          0.0            estimate D2E/DX2                !
 ! D126  D(23,24,25,45)        180.0            estimate D2E/DX2                !
 ! D127  D(44,24,25,26)        180.0            estimate D2E/DX2                !
 ! D128  D(44,24,25,45)          0.0            estimate D2E/DX2                !
 ! D129  D(24,25,26,21)          0.0            estimate D2E/DX2                !
 ! D130  D(24,25,26,46)        180.0            estimate D2E/DX2                !
 ! D131  D(45,25,26,21)        180.0            estimate D2E/DX2                !
 ! D132  D(45,25,26,46)          0.0            estimate D2E/DX2                !
 ! D133  D(22,27,28,20)          0.0            estimate D2E/DX2                !
 ! D134  D(22,27,28,29)        180.0            estimate D2E/DX2                !
 ! D135  D(32,27,28,20)        180.0            estimate D2E/DX2                !
 ! D136  D(32,27,28,29)          0.0            estimate D2E/DX2                !
 ! D137  D(22,27,32,31)        180.0            estimate D2E/DX2                !
 ! D138  D(22,27,32,50)          0.0            estimate D2E/DX2                !
 ! D139  D(28,27,32,31)          0.0            estimate D2E/DX2                !
 ! D140  D(28,27,32,50)        180.0            estimate D2E/DX2                !
 ! D141  D(20,28,29,30)        180.0            estimate D2E/DX2                !
 ! D142  D(20,28,29,47)          0.0            estimate D2E/DX2                !
 ! D143  D(27,28,29,30)          0.0            estimate D2E/DX2                !
 ! D144  D(27,28,29,47)        180.0            estimate D2E/DX2                !
 ! D145  D(28,29,30,31)          0.0            estimate D2E/DX2                !
 ! D146  D(28,29,30,48)        180.0            estimate D2E/DX2                !
 ! D147  D(47,29,30,31)        180.0            estimate D2E/DX2                !
 ! D148  D(47,29,30,48)          0.0            estimate D2E/DX2                !
 ! D149  D(29,30,31,32)          0.0            estimate D2E/DX2                !
 ! D150  D(29,30,31,49)        180.0            estimate D2E/DX2                !
 ! D151  D(48,30,31,32)        180.0            estimate D2E/DX2                !
 ! D152  D(48,30,31,49)          0.0            estimate D2E/DX2                !
 ! D153  D(30,31,32,27)          0.0            estimate D2E/DX2                !
 ! D154  D(30,31,32,50)        180.0            estimate D2E/DX2                !
 ! D155  D(49,31,32,27)        180.0            estimate D2E/DX2                !
 ! D156  D(49,31,32,50)          0.0            estimate D2E/DX2                !
 --------------------------------------------------------------------------------
 Trust Radius=3.00D-01 FncErr=1.00D-07 GrdErr=1.00D-06
 Number of steps in this run=    300 maximum allowed number of steps=    300.
 GradGradGradGradGradGradGradGradGradGradGradGradGradGradGradGradGradGrad

 Leave Link  103 at Sat Jul 27 10:01:41 2019, MaxMem=  4194304000 cpu:         0.4
 (Enter /home/minenky/programs//g09/l202.exe)
                          Input orientation:                          
 ---------------------------------------------------------------------
 Center     Atomic      Atomic             Coordinates (Angstroms)
 Number     Number       Type             X           Y           Z
 ---------------------------------------------------------------------
      1          6           0       -4.545766    2.819759    0.000000
      2          6           0       -2.134832    2.829544    0.000000
      3          6           0       -3.350239    3.514398    0.000000
      4          6           0       -4.544467    1.415479    0.000000
      5          6           0       -5.778521    0.675507    0.000000
      6          6           0       -5.778271   -0.677452    0.000000
      7          6           0       -4.543953   -1.416983    0.000000
      8          6           0       -4.544695   -2.821281    0.000000
      9          6           0       -3.348859   -3.515463    0.000000
     10          6           0       -2.133708   -2.830113    0.000000
     11          6           0       -3.319334    0.718207    0.000000
     12          6           0       -3.319069   -0.719231    0.000000
     13          6           0       -2.100606   -1.438359    0.000000
     14          6           0       -2.101127    1.437800    0.000000
     15          6           0       -0.840492    0.705944    0.000000
     16          6           0       -0.840251   -0.706074    0.000000
     17          6           0        0.377622   -1.384115    0.000000
     18          6           0        0.377215    1.384344    0.000000
     19          6           0        1.598653    0.705030    0.000000
     20          6           0        1.598856   -0.704455    0.000000
     21          6           0        2.859511    1.431731    0.000000
     22          6           0        4.075831    0.728420    0.000000
     23          6           0        5.283391    1.449047    0.000000
     24          6           0        5.285285    2.830092    0.000000
     25          6           0        4.075009    3.529536    0.000000
     26          6           0        2.879779    2.837801    0.000000
     27          6           0        4.076025   -0.727178    0.000000
     28          6           0        2.859902   -1.430813    0.000000
     29          6           0        2.880538   -2.836873    0.000000
     30          6           0        4.075949   -3.528283    0.000000
     31          6           0        5.286032   -2.828517    0.000000
     32          6           0        5.283771   -1.447483    0.000000
     33          1           0       -5.499846    3.358885    0.000000
     34          1           0       -1.185406    3.386975    0.000000
     35          1           0       -3.352080    4.609441    0.000000
     36          1           0       -6.718009    1.240135    0.000000
     37          1           0       -6.717566   -1.242407    0.000000
     38          1           0       -5.498573   -3.360771    0.000000
     39          1           0       -3.350238   -4.610512    0.000000
     40          1           0       -1.184054   -3.387158    0.000000
     41          1           0        0.375441   -2.491294    0.000000
     42          1           0        0.374744    2.491521    0.000000
     43          1           0        6.232535    0.891483    0.000000
     44          1           0        6.232406    3.379231    0.000000
     45          1           0        4.077714    4.624312    0.000000
     46          1           0        1.922072    3.380709    0.000000
     47          1           0        1.922974   -3.380033    0.000000
     48          1           0        4.078955   -4.623058    0.000000
     49          1           0        6.233303   -3.377394    0.000000
     50          1           0        6.232765   -0.889666    0.000000
 ---------------------------------------------------------------------
                    Distance matrix (angstroms):
                    1          2          3          4          5
     1  C    0.000000
     2  C    2.410954   0.000000
     3  C    1.382682   1.395077   0.000000
     4  C    1.404281   2.793908   2.414879   0.000000
     5  C    2.473358   4.232770   3.735753   1.438905   0.000000
     6  C    3.708039   5.057041   4.844269   2.429533   1.352959
     7  C    4.236743   4.882300   5.073803   2.832462   2.429542
     8  C    5.641040   6.143229   6.447290   4.236760   3.708079
     9  C    6.447296   6.460107   7.029861   5.073822   4.844326
    10  C    6.143213   5.659656   6.460090   4.882295   5.057077
    11  C    2.433240   2.420907   2.796362   1.409659   2.459557
    12  C    3.745562   3.741152   4.233743   2.461419   2.827401
    13  C    4.910232   4.268040   5.107973   3.757239   4.242109
    14  C    2.808215   1.392152   2.423332   2.443442   3.755571
    15  C    4.265826   2.486964   3.766463   3.771322   4.938122
    16  C    5.114914   3.765174   4.910440   4.268747   5.127892
    17  C    6.473971   4.905848   6.155678   5.662569   6.491543
    18  C    5.127978   2.898100   4.293139   4.921781   6.196413
    19  C    6.498151   4.295634   5.690701   6.184065   7.377233
    20  C    7.083535   5.140970   6.503250   6.498810   7.505331
    21  C    7.534238   5.186265   6.549694   7.403996   8.671071
    22  C    8.871620   6.556452   7.931469   8.647635   9.854494
    23  C    9.924272   7.545582   8.877231   9.827915  11.088925
    24  C    9.831057   7.420117   8.662595   9.931020  11.271647
    25  C    8.649945   6.249169   7.425264   8.874942  10.258534
    26  C    7.425567   5.014617   6.266650   7.559261   8.924218
    27  C    9.322878   7.157165   8.552214   8.882785   9.953874
    28  C    8.538810   6.564907   7.938574   7.932595   8.891509
    29  C    9.335281   7.567180   8.897259   8.556471   9.344309
    30  C   10.706615   8.887956  10.234628   9.937421  10.713656
    31  C   11.338751   9.331821  10.715304  10.707484  11.606141
    32  C   10.715836   8.563213   9.958232  10.236738  11.264164
    33  H    1.095867   3.406394   2.155225   2.165543   2.697809
    34  H    3.407895   1.100971   2.168579   3.894879   5.333737
    35  H    2.151243   2.156323   1.095045   3.409279   4.622061
    36  H    2.685862   4.850952   4.063761   2.180604   1.096103
    37  H    4.606290   6.130435   5.828043   3.433179   2.135463
    38  H    6.253542   7.045193   7.203005   4.870614   4.045975
    39  H    7.525837   7.538677   8.124910   6.143187   5.817092
    40  H    7.058819   6.288987   7.233521   5.861543   6.133055
    41  H    7.240550   5.883263   7.067462   6.282385   6.920974
    42  H    4.931446   2.532238   3.862871   5.035524   6.415650
    43  H   10.949430   8.588883   9.935252  10.789733  12.012997
    44  H   10.792682   8.385274   9.583598  10.954328  12.311477
    45  H    8.810268   6.466600   7.510419   9.199924  10.617835
    46  H    6.492118   4.094173   5.274005   6.758569   8.161939
    47  H    8.960024   7.417859   8.679859   8.051380   8.704047
    48  H   11.392161   9.703217  11.018670  10.527456  11.191274
    49  H   12.433544  10.418817  11.804281  11.795420  12.677141
    50  H   11.398972   9.156921  10.546551  11.020999  12.112834
                    6          7          8          9         10
     6  C    0.000000
     7  C    1.438905   0.000000
     8  C    2.473401   1.404298   0.000000
     9  C    3.735820   2.414926   1.382719   0.000000
    10  C    4.232822   2.793960   2.411003   1.395098   0.000000
    11  C    2.827407   2.461448   3.745595   4.233773   3.741160
    12  C    2.459557   1.409680   2.433264   2.796392   2.420930
    13  C    3.755555   2.443440   2.808210   2.423324   1.392147
    14  C    4.242132   3.757285   4.910275   5.107999   4.268037
    15  C    5.127908   4.268775   5.114923   4.910416   3.765117
    16  C    4.938102   3.771312   4.265794   3.766402   2.486879
    17  C    6.196320   4.921684   5.127831   4.292937   2.897876
    18  C    6.491611   5.662626   6.473985   6.155628   4.905750
    19  C    7.505349   6.498811   7.083473   6.503111   5.140793
    20  C    7.377177   6.183995   6.498013   5.690488   4.295400
    21  C    8.891565   7.932619   8.538757   7.938425   6.564720
    22  C    9.953884   8.882760   9.322760   8.551992   7.156922
    23  C   11.264207  10.236738  10.715735   9.958017   8.562977
    24  C   11.606254  10.707547  11.338718  10.715154   9.331634
    25  C   10.713817   9.937532  10.706641  10.234541   8.887817
    26  C    9.344454   8.556575   9.335310   8.897185   7.567054
    27  C    9.854422   8.647534   8.871420   7.931169   6.556152
    28  C    8.670962   7.403868   7.534020   6.549388   5.185960
    29  C    8.924017   7.559044   7.425249   6.266249   5.014251
    30  C   10.258308   8.874699   8.649587   7.424819   6.248782
    31  C   11.271463   9.930812   9.830730   8.662173   7.419740
    32  C   11.088810   9.827771   9.924014   8.876872   7.545241
    33  H    4.045928   4.870590   6.253540   7.203014   7.045181
    34  H    6.133023   5.861557   7.058842   7.233546   6.288994
    35  H    5.817013   6.143155   7.525819   8.124905   7.538659
    36  H    2.135473   3.433191   4.606342   5.828112   6.130475
    37  H    1.096107   2.180613   2.685928   4.063862   4.851037
    38  H    2.697857   2.165551   1.095871   2.155273   3.406452
    39  H    4.622154   3.409337   2.151297   1.095050   2.156332
    40  H    5.333791   3.894933   3.407950   2.168604   1.100973
    41  H    6.415465   5.035333   4.931189   3.862556   2.531922
    42  H    6.921126   6.282514   7.240631   7.067467   5.883206
    43  H   12.112845  11.020966  11.398829  10.546293   9.156653
    44  H   12.677264  11.795489  12.433513  11.804128  10.418628
    45  H   11.191476  10.527601  11.392224  11.018617   9.703103
    46  H    8.704249   8.051542   8.960120   8.679857   7.417794
    47  H    8.161686   6.758306   6.491760   5.273573   4.093786
    48  H   10.617566   9.199644   8.809866   7.509939   6.466207
    49  H   12.311279  10.954106  10.792335   9.583157   8.384890
    50  H   12.012910  10.789611  10.949191   9.934905   8.588551
                   11         12         13         14         15
    11  C    0.000000
    12  C    1.437437   0.000000
    13  C    2.477110   1.414849   0.000000
    14  C    1.414866   2.477128   2.876160   0.000000
    15  C    2.478873   2.859102   2.487152   1.457674   0.000000
    16  C    2.859096   2.478853   1.457647   2.487168   1.412019
    17  C    4.252910   3.756008   2.478822   3.755982   2.419121
    18  C    3.756091   4.252946   3.755963   2.478919   1.393929
    19  C    4.918005   5.119816   4.275353   3.771647   2.439146
    20  C    5.119821   4.917948   3.771557   4.275410   2.817738
    21  C    6.219907   6.542285   5.730635   4.960641   3.770516
    22  C    7.395173   7.535267   6.545480   6.217558   4.916375
    23  C    8.633714   8.871513   7.928463   7.384526   6.168804
    24  C    8.859997   9.307664   8.530596   7.516486   6.483606
    25  C    7.910745   8.527861   7.925794   6.520737   5.668758
    26  C    6.551464   7.146901   6.564281   5.173917   4.287800
    27  C    7.535282   7.395099   6.217440   6.545558   5.121131
    28  C    6.542266   6.219810   4.960514   5.730685   4.273014
    29  C    7.146818   6.551300   5.173745   6.564283   5.137861
    30  C    8.527772   7.910567   6.520553   7.925796   6.488457
    31  C    9.307609   8.859845   7.516313   8.530626   7.072957
    32  C    8.871507   8.633609   7.384383   7.928529   6.491829
    33  H    3.424589   4.624588   5.879488   3.904082   5.361685
    34  H    3.417012   4.627466   4.911358   2.153561   2.703126
    35  H    3.891372   5.328774   6.175927   3.409426   4.641698
    36  H    3.438517   3.923252   5.338046   4.621112   5.901743
    37  H    3.923262   3.438531   4.621116   5.338073   6.191613
    38  H    4.624623   3.424613   3.904081   5.879535   6.183518
    39  H    5.328808   3.891406   3.409418   6.175950   5.879076
    40  H    4.627466   3.417034   2.153574   4.911338   4.107495
    41  H    4.894105   4.097513   2.690629   4.644477   3.420647
    42  H    4.097665   4.894199   4.644493   2.690774   2.159880
    43  H    9.553441   9.686461   8.652711   8.351549   7.075460
    44  H    9.915482  10.393654   9.625397   8.556688   7.561239
    45  H    8.365045   9.125012   8.656074   6.952116   6.288271
    46  H    5.878883   6.654252   6.277369   4.467776   3.845273
    47  H    6.654124   5.878681   4.467583   6.277333   4.932743
    48  H    9.124899   8.364844   6.951926   8.656062   7.252532
    49  H   10.393595   9.915323   8.556512   9.625425   8.167755
    50  H    9.686478   9.553354   8.351416   8.652794   7.250996
                   16         17         18         19         20
    16  C    0.000000
    17  C    1.393899   0.000000
    18  C    2.419107   2.768460   0.000000
    19  C    2.817707   2.419803   1.397633   0.000000
    20  C    2.439108   1.397624   2.419812   1.409485   0.000000
    21  C    4.272991   3.753500   2.482748   1.455286   2.480432
    22  C    5.121098   4.259056   3.756328   2.477288   2.861562
    23  C    6.491806   5.665102   4.906602   3.759103   4.267712
    24  C    7.072954   6.468748   5.116575   4.255249   5.107131
    25  C    6.488465   6.149361   4.274988   3.756351   4.904896
    26  C    5.137867   4.907685   2.894021   2.487970   3.766742
    27  C    4.916322   3.756295   4.259075   2.861571   2.477273
    28  C    3.770462   2.482720   3.753511   2.480438   1.455278
    29  C    4.287724   2.893976   4.907678   3.766736   2.487954
    30  C    5.668676   4.274936   6.149352   4.904888   3.756327
    31  C    6.483526   5.116521   6.468747   5.107124   4.255221
    32  C    6.168738   4.906558   5.665115   4.267716   3.759080
    33  H    6.183503   7.552527   6.199892   7.578366   8.179382
    34  H    4.107576   5.020593   2.540141   3.865723   4.948931
    35  H    5.879114   7.059277   4.930405   6.305092   7.262868
    36  H    6.191588   7.565360   7.096690   8.333859   8.541176
    37  H    5.901735   7.096603   7.565431   8.541195   8.333803
    38  H    5.361658   6.199745   7.552550   8.179325   7.578227
    39  H    4.641623   4.930170   7.059194   7.262680   6.304825
    40  H    2.703037   2.539884   5.020438   4.948683   3.865422
    41  H    2.159842   1.107181   3.875639   3.422388   2.165534
    42  H    3.420648   3.875637   1.107179   2.165527   3.422384
    43  H    7.250965   6.281588   5.876026   4.637631   4.900816
    44  H    8.167753   7.547712   6.185695   5.350048   6.176267
    45  H    7.252544   7.056336   4.918442   4.637511   5.877116
    46  H    4.932771   5.008880   2.524293   2.695155   4.097931
    47  H    3.845188   2.524243   5.008859   4.097917   2.695139
    48  H    6.288191   4.918396   7.056327   5.877109   4.637493
    49  H    7.561158   6.185641   7.547709   6.176257   5.350018
    50  H    7.075399   5.875983   6.281607   4.900821   4.637609
                   21         22         23         24         25
    21  C    0.000000
    22  C    1.405020   0.000000
    23  C    2.423942   1.406238   0.000000
    24  C    2.799963   2.424831   1.381046   0.000000
    25  C    2.424504   2.801116   2.405955   1.397851   0.000000
    26  C    1.406216   2.424878   2.775966   2.405519   1.380968
    27  C    2.478063   1.455597   2.488712   3.757190   4.256713
    28  C    2.862544   2.478058   3.763893   4.902836   5.107009
    29  C    4.268656   3.760324   4.913534   6.156079   6.477493
    30  C    5.107001   4.256702   5.121692   6.472359   7.057818
    31  C    4.902828   3.757178   4.277565   5.658610   6.472358
    32  C    3.763895   2.488708   2.896530   4.277575   5.121700
    33  H    8.578622   9.930405  10.951058  10.798086   9.576376
    34  H    4.492698   5.894789   6.752844   6.494611   5.262347
    35  H    6.977227   8.380704   9.195621   8.818739   7.505188
    36  H    9.579436  10.805963  12.003218  12.108139  11.033159
    37  H    9.943411  10.971854  12.299061  12.674924  11.800471
    38  H    9.634607  10.411086  11.806147  12.434564  11.795330
    39  H    8.664276   9.146076  10.547882  11.398897  11.017925
    40  H    6.290637   6.678651   8.075687   8.972545   8.688981
    41  H    4.643353   4.905043   6.293986   7.240423   7.066625
    42  H    2.701337   4.099582   5.018124   4.922199   3.843103
    43  H    3.416015   2.162859   1.100796   2.157658   3.407967
    44  H    3.894762   3.417252   2.150869   1.094801   2.162626
    45  H    3.417102   3.895892   3.396463   2.162742   1.094779
    46  H    2.162709   3.416624   3.876827   3.407988   2.158075
    47  H    4.902058   4.638338   5.883232   7.061926   7.236947
    48  H    6.176367   5.351478   6.190406   7.550145   8.152594
    49  H    5.874534   4.638144   4.919031   6.279460   7.236290
    50  H    4.094842   2.696398   2.524063   3.838531   4.917851
                   26         27         28         29         30
    26  C    0.000000
    27  C    3.760330   0.000000
    28  C    4.268661   1.405012   0.000000
    29  C    5.674674   2.424872   1.406211   0.000000
    30  C    6.477488   2.801105   2.424489   1.380961   0.000000
    31  C    6.156072   2.424819   2.799943   2.405508   1.397846
    32  C    4.913536   1.406232   2.423926   2.775956   2.405943
    33  H    8.395810  10.411206   9.634656  10.422008  11.795292
    34  H    4.102112   6.678990   6.290914   7.434257   8.689226
    35  H    6.478794   9.146379   8.664490   9.710464  11.018083
    36  H    9.729855  10.971850   9.943357  10.428523  11.800311
    37  H   10.428668  10.805881   9.579321   9.729642  11.032914
    38  H   10.422048   9.930194   8.578394   8.395474   9.575987
    39  H    9.710329   8.380315   6.976842   6.478300   7.504630
    40  H    7.434034   5.894398   4.492312   4.101674   5.261896
    41  H    5.888206   4.099565   2.701327   2.528821   3.843059
    42  H    2.528855   4.905049   4.643352   5.888190   7.066609
    43  H    3.876742   2.696404   4.094839   5.013633   4.917844
    44  H    3.396064   4.638164   5.874547   7.062220   7.236301
    45  H    2.150969   5.351490   6.176374   7.556620   8.152595
    46  H    1.100887   4.638346   4.902068   6.291024   7.236944
    47  H    6.291021   3.416617   2.162705   1.100887   2.158073
    48  H    7.556616   3.895881   3.417092   2.150967   1.094779
    49  H    7.062207   3.417234   3.894741   3.396055   2.162624
    50  H    5.013635   2.162852   3.415998   3.876730   3.407954
                   31         32         33         34         35
    31  C    0.000000
    32  C    1.381037   0.000000
    33  H   12.434593  11.806250   0.000000
    34  H    8.972840   8.076028   4.314531   0.000000
    35  H   11.399132  10.548187   2.485315   2.487750   0.000000
    36  H   12.674815  12.299025   2.443977   5.934527   4.762531
    37  H   12.107936  12.003089   4.759698   7.213596   6.750601
    38  H   10.797732  10.950782   6.719655   8.008463   8.254193
    39  H    8.818201   9.195154   8.254217   8.285306   9.219953
    40  H    6.494159   6.752415   8.008442   6.774133   8.285284
    41  H    4.922156   5.018092   8.291175   6.081964   8.019654
    42  H    7.240412   6.293989   5.938276   1.798862   4.286584
    43  H    3.838524   2.524067  11.989029   7.826451  10.280469
    44  H    6.279471   4.919052  11.732269   7.417816   9.663114
    45  H    7.550145   6.190417   9.660794   5.406610   7.429809
    46  H    7.061921   5.883235   7.421950   3.107484   5.415391
    47  H    3.407980   3.876817  10.025531   7.446773   9.573813
    48  H    2.162732   3.396448  12.468553   9.585099  11.851553
    49  H    1.094800   2.150853  13.529383  10.039618  12.476742
    50  H    2.157648   1.100795  12.478154   8.562647  11.050314
                   36         37         38         39         40
    36  H    0.000000
    37  H    2.482542   0.000000
    38  H    4.759764   2.444056   0.000000
    39  H    6.750700   4.762671   2.485397   0.000000
    40  H    7.213632   5.934619   4.314600   2.487760   0.000000
    41  H    8.015023   7.202115   5.938016   4.286230   1.798499
    42  H    7.202299   8.015178   8.291271   8.019624   6.081835
    43  H   12.955236  13.124732  12.478003  11.049954   8.562275
    44  H   13.125889  13.749956  13.529356  12.476500  10.039317
    45  H   11.313721  12.286434  12.468633  11.851432   9.584876
    46  H    8.901295   9.798803  10.025643   9.573760   7.446613
    47  H    9.798599   8.901032   7.421572   5.414872   3.107037
    48  H   12.286230  11.313428   9.660353   7.429203   5.406174
    49  H   13.749838  13.125668  11.731888   9.662548   7.417363
    50  H   13.124733  12.955134  11.988772  10.280012   7.826025
                   41         42         43         44         45
    41  H    0.000000
    42  H    4.982815   0.000000
    43  H    6.763781   6.072383   0.000000
    44  H    8.292593   5.924545   2.487748   0.000000
    45  H    8.021139   4.273264   4.310135   2.488558   0.000000
    46  H    6.072272   1.784623   4.977584   4.310334   2.488642
    47  H    1.784577   6.072246   6.067797   8.016162   8.289297
    48  H    4.273223   8.021123   5.920141   8.286976   9.247370
    49  H    5.924501   8.292579   4.268877   6.756624   8.286969
    50  H    6.072352   6.763789   1.781149   4.268897   5.920152
                   46         47         48         49         50
    46  H    0.000000
    47  H    6.760743   0.000000
    48  H    8.289296   2.488647   0.000000
    49  H    8.016150   4.310329   2.488553   0.000000
    50  H    6.067799   4.977572   4.310117   2.487727   0.000000
 Stoichiometry    C32H18
 Framework group  CS[SG(C32H18)]
 Deg. of freedom    97
 Full point group                 CS      NOp   2
 Largest Abelian subgroup         CS      NOp   2
 Largest concise Abelian subgroup C1      NOp   1
                         Standard orientation:                         
 ---------------------------------------------------------------------
 Center     Atomic      Atomic             Coordinates (Angstroms)
 Number     Number       Type             X           Y           Z
 ---------------------------------------------------------------------
      1          6           0       -4.555258   -2.820365    0.000000
      2          6           0       -2.144323   -2.829828    0.000000
      3          6           0       -3.359638   -3.514844    0.000000
      4          6           0       -4.554146   -1.416084    0.000000
      5          6           0       -5.788298   -0.676277    0.000000
      6          6           0       -5.788229    0.676682    0.000000
      7          6           0       -4.554009    1.416378    0.000000
      8          6           0       -4.554938    2.820675    0.000000
      9          6           0       -3.359195    3.515017    0.000000
     10          6           0       -2.143953    2.829828    0.000000
     11          6           0       -3.329106   -0.718649    0.000000
     12          6           0       -3.329033    0.718788    0.000000
     13          6           0       -2.110666    1.438079    0.000000
     14          6           0       -2.110803   -1.438080    0.000000
     15          6           0       -0.850266   -0.706056    0.000000
     16          6           0       -0.850213    0.705962    0.000000
     17          6           0        0.367570    1.384165    0.000000
     18          6           0        0.367532   -1.384295    0.000000
     19          6           0        1.588880   -0.704817    0.000000
     20          6           0        1.588895    0.704668    0.000000
     21          6           0        2.849834   -1.431351    0.000000
     22          6           0        4.066061   -0.727877    0.000000
     23          6           0        5.273716   -1.448344    0.000000
     24          6           0        5.275794   -2.829389    0.000000
     25          6           0        4.065612   -3.528993    0.000000
     26          6           0        2.870289   -2.837418    0.000000
     27          6           0        4.066061    0.727720    0.000000
     28          6           0        2.849844    1.431194    0.000000
     29          6           0        2.870293    2.837256    0.000000
     30          6           0        4.065611    3.528825    0.000000
     31          6           0        5.275788    2.829221    0.000000
     32          6           0        5.273710    1.448186    0.000000
     33          1           0       -5.509266   -3.359618    0.000000
     34          1           0       -1.194823   -3.387133    0.000000
     35          1           0       -3.361334   -4.609888    0.000000
     36          1           0       -6.727712   -1.241030    0.000000
     37          1           0       -6.727599    1.241512    0.000000
     38          1           0       -5.508889    3.360038    0.000000
     39          1           0       -3.360720    4.610066    0.000000
     40          1           0       -1.194373    3.387000    0.000000
     41          1           0        0.365241    2.491344    0.000000
     42          1           0        0.365208   -2.491472    0.000000
     43          1           0        6.222786   -0.890653    0.000000
     44          1           0        6.222988   -3.378401    0.000000
     45          1           0        4.068462   -4.623769    0.000000
     46          1           0        1.912654   -3.380454    0.000000
     47          1           0        1.912656    3.380289    0.000000
     48          1           0        4.068471    4.623601    0.000000
     49          1           0        6.222985    3.378224    0.000000
     50          1           0        6.222779    0.890496    0.000000
 ---------------------------------------------------------------------
 Rotational constants (GHZ):      0.2713977      0.0913577      0.0683498
 Leave Link  202 at Sat Jul 27 10:01:41 2019, MaxMem=  4194304000 cpu:         2.2
 (Enter /home/minenky/programs//g09/l301.exe)
 Standard basis: def2TZVP (5D, 7F)
 ======================================================================================================
                                       Pseudopotential Parameters
 ======================================================================================================
  Center     Atomic      Valence      Angular      Power
  Number     Number     Electrons     Momentum     of R      Exponent        Coefficient   SO-Coeffient
 ======================================================================================================
    1          6
                                   No pseudopotential on this center.
    2          6
                                   No pseudopotential on this center.
    3          6
                                   No pseudopotential on this center.
    4          6
                                   No pseudopotential on this center.
    5          6
                                   No pseudopotential on this center.
    6          6
                                   No pseudopotential on this center.
    7          6
                                   No pseudopotential on this center.
    8          6
                                   No pseudopotential on this center.
    9          6
                                   No pseudopotential on this center.
   10          6
                                   No pseudopotential on this center.
   11          6
                                   No pseudopotential on this center.
   12          6
                                   No pseudopotential on this center.
   13          6
                                   No pseudopotential on this center.
   14          6
                                   No pseudopotential on this center.
   15          6
                                   No pseudopotential on this center.
   16          6
                                   No pseudopotential on this center.
   17          6
                                   No pseudopotential on this center.
   18          6
                                   No pseudopotential on this center.
   19          6
                                   No pseudopotential on this center.
   20          6
                                   No pseudopotential on this center.
   21          6
                                   No pseudopotential on this center.
   22          6
                                   No pseudopotential on this center.
   23          6
                                   No pseudopotential on this center.
   24          6
                                   No pseudopotential on this center.
   25          6
                                   No pseudopotential on this center.
   26          6
                                   No pseudopotential on this center.
   27          6
                                   No pseudopotential on this center.
   28          6
                                   No pseudopotential on this center.
   29          6
                                   No pseudopotential on this center.
   30          6
                                   No pseudopotential on this center.
   31          6
                                   No pseudopotential on this center.
   32          6
                                   No pseudopotential on this center.
   33          1
                                   No pseudopotential on this center.
   34          1
                                   No pseudopotential on this center.
   35          1
                                   No pseudopotential on this center.
   36          1
                                   No pseudopotential on this center.
   37          1
                                   No pseudopotential on this center.
   38          1
                                   No pseudopotential on this center.
   39          1
                                   No pseudopotential on this center.
   40          1
                                   No pseudopotential on this center.
   41          1
                                   No pseudopotential on this center.
   42          1
                                   No pseudopotential on this center.
   43          1
                                   No pseudopotential on this center.
   44          1
                                   No pseudopotential on this center.
   45          1
                                   No pseudopotential on this center.
   46          1
                                   No pseudopotential on this center.
   47          1
                                   No pseudopotential on this center.
   48          1
                                   No pseudopotential on this center.
   49          1
                                   No pseudopotential on this center.
   50          1
                                   No pseudopotential on this center.
 ======================================================================================================
 Ernie: Thresh=  0.10000D-02 Tol=  0.10000D-05 Strict=F.
 AO basis set (Overlap normalization):
 Atom C1       Shell     1 S   6     bf    1 -     1         -8.608190388796         -5.329716994999          0.000000000000
      0.1357534968D+05  0.6064550360D-03
      0.2035233368D+04  0.4697908888D-02
      0.4632256236D+03  0.2433247765D-01
      0.1312001960D+03  0.9739996831D-01
      0.4285301589D+02  0.3019558425D+00
      0.1558418577D+02  0.6623360914D+00
 Atom C1       Shell     2 S   2     bf    2 -     2         -8.608190388796         -5.329716994999          0.000000000000
      0.6206713851D+01  0.6559530854D+00
      0.2576489653D+01  0.3758563329D+00
 Atom C1       Shell     3 S   1     bf    3 -     3         -8.608190388796         -5.329716994999          0.000000000000
      0.5769633942D+00  0.1000000000D+01
 Atom C1       Shell     4 S   1     bf    4 -     4         -8.608190388796         -5.329716994999          0.000000000000
      0.2297283136D+00  0.1000000000D+01
 Atom C1       Shell     5 S   1     bf    5 -     5         -8.608190388796         -5.329716994999          0.000000000000
      0.9516444003D-01  0.1000000000D+01
 Atom C1       Shell     6 P   4     bf    6 -     8         -8.608190388796         -5.329716994999          0.000000000000
      0.3469723224D+02  0.1132722000D-01
      0.7958262283D+01  0.7616965920D-01
      0.2378082688D+01  0.3019225220D+00
      0.8143320818D+00  0.7278502735D+00
 Atom C1       Shell     7 P   1     bf    9 -    11         -8.608190388796         -5.329716994999          0.000000000000
      0.2888754725D+00  0.1000000000D+01
 Atom C1       Shell     8 P   1     bf   12 -    14         -8.608190388796         -5.329716994999          0.000000000000
      0.1005682367D+00  0.1000000000D+01
 Atom C1       Shell     9 D   1     bf   15 -    19         -8.608190388796         -5.329716994999          0.000000000000
      0.1097000000D+01  0.1000000000D+01
 Atom C1       Shell    10 D   1     bf   20 -    24         -8.608190388796         -5.329716994999          0.000000000000
      0.3180000000D+00  0.1000000000D+01
 Atom C1       Shell    11 F   1     bf   25 -    31         -8.608190388796         -5.329716994999          0.000000000000
      0.7610000000D+00  0.1000000000D+01
 Atom C2       Shell    12 S   6     bf   32 -    32         -4.052182646719         -5.347600747645          0.000000000000
      0.1357534968D+05  0.6064550360D-03
      0.2035233368D+04  0.4697908888D-02
      0.4632256236D+03  0.2433247765D-01
      0.1312001960D+03  0.9739996831D-01
      0.4285301589D+02  0.3019558425D+00
      0.1558418577D+02  0.6623360914D+00
 Atom C2       Shell    13 S   2     bf   33 -    33         -4.052182646719         -5.347600747645          0.000000000000
      0.6206713851D+01  0.6559530854D+00
      0.2576489653D+01  0.3758563329D+00
 Atom C2       Shell    14 S   1     bf   34 -    34         -4.052182646719         -5.347600747645          0.000000000000
      0.5769633942D+00  0.1000000000D+01
 Atom C2       Shell    15 S   1     bf   35 -    35         -4.052182646719         -5.347600747645          0.000000000000
      0.2297283136D+00  0.1000000000D+01
 Atom C2       Shell    16 S   1     bf   36 -    36         -4.052182646719         -5.347600747645          0.000000000000
      0.9516444003D-01  0.1000000000D+01
 Atom C2       Shell    17 P   4     bf   37 -    39         -4.052182646719         -5.347600747645          0.000000000000
      0.3469723224D+02  0.1132722000D-01
      0.7958262283D+01  0.7616965920D-01
      0.2378082688D+01  0.3019225220D+00
      0.8143320818D+00  0.7278502735D+00
 Atom C2       Shell    18 P   1     bf   40 -    42         -4.052182646719         -5.347600747645          0.000000000000
      0.2888754725D+00  0.1000000000D+01
 Atom C2       Shell    19 P   1     bf   43 -    45         -4.052182646719         -5.347600747645          0.000000000000
      0.1005682367D+00  0.1000000000D+01
 Atom C2       Shell    20 D   1     bf   46 -    50         -4.052182646719         -5.347600747645          0.000000000000
      0.1097000000D+01  0.1000000000D+01
 Atom C2       Shell    21 D   1     bf   51 -    55         -4.052182646719         -5.347600747645          0.000000000000
      0.3180000000D+00  0.1000000000D+01
 Atom C2       Shell    22 F   1     bf   56 -    62         -4.052182646719         -5.347600747645          0.000000000000
      0.7610000000D+00  0.1000000000D+01
 Atom C3       Shell    23 S   6     bf   63 -    63         -6.348796530113         -6.642093146444          0.000000000000
      0.1357534968D+05  0.6064550360D-03
      0.2035233368D+04  0.4697908888D-02
      0.4632256236D+03  0.2433247765D-01
      0.1312001960D+03  0.9739996831D-01
      0.4285301589D+02  0.3019558425D+00
      0.1558418577D+02  0.6623360914D+00
 Atom C3       Shell    24 S   2     bf   64 -    64         -6.348796530113         -6.642093146444          0.000000000000
      0.6206713851D+01  0.6559530854D+00
      0.2576489653D+01  0.3758563329D+00
 Atom C3       Shell    25 S   1     bf   65 -    65         -6.348796530113         -6.642093146444          0.000000000000
      0.5769633942D+00  0.1000000000D+01
 Atom C3       Shell    26 S   1     bf   66 -    66         -6.348796530113         -6.642093146444          0.000000000000
      0.2297283136D+00  0.1000000000D+01
 Atom C3       Shell    27 S   1     bf   67 -    67         -6.348796530113         -6.642093146444          0.000000000000
      0.9516444003D-01  0.1000000000D+01
 Atom C3       Shell    28 P   4     bf   68 -    70         -6.348796530113         -6.642093146444          0.000000000000
      0.3469723224D+02  0.1132722000D-01
      0.7958262283D+01  0.7616965920D-01
      0.2378082688D+01  0.3019225220D+00
      0.8143320818D+00  0.7278502735D+00
 Atom C3       Shell    29 P   1     bf   71 -    73         -6.348796530113         -6.642093146444          0.000000000000
      0.2888754725D+00  0.1000000000D+01
 Atom C3       Shell    30 P   1     bf   74 -    76         -6.348796530113         -6.642093146444          0.000000000000
      0.1005682367D+00  0.1000000000D+01
 Atom C3       Shell    31 D   1     bf   77 -    81         -6.348796530113         -6.642093146444          0.000000000000
      0.1097000000D+01  0.1000000000D+01
 Atom C3       Shell    32 D   1     bf   82 -    86         -6.348796530113         -6.642093146444          0.000000000000
      0.3180000000D+00  0.1000000000D+01
 Atom C3       Shell    33 F   1     bf   87 -    93         -6.348796530113         -6.642093146444          0.000000000000
      0.7610000000D+00  0.1000000000D+01
 Atom C4       Shell    34 S   6     bf   94 -    94         -8.606088626086         -2.676011808891          0.000000000000
      0.1357534968D+05  0.6064550360D-03
      0.2035233368D+04  0.4697908888D-02
      0.4632256236D+03  0.2433247765D-01
      0.1312001960D+03  0.9739996831D-01
      0.4285301589D+02  0.3019558425D+00
      0.1558418577D+02  0.6623360914D+00
 Atom C4       Shell    35 S   2     bf   95 -    95         -8.606088626086         -2.676011808891          0.000000000000
      0.6206713851D+01  0.6559530854D+00
      0.2576489653D+01  0.3758563329D+00
 Atom C4       Shell    36 S   1     bf   96 -    96         -8.606088626086         -2.676011808891          0.000000000000
      0.5769633942D+00  0.1000000000D+01
 Atom C4       Shell    37 S   1     bf   97 -    97         -8.606088626086         -2.676011808891          0.000000000000
      0.2297283136D+00  0.1000000000D+01
 Atom C4       Shell    38 S   1     bf   98 -    98         -8.606088626086         -2.676011808891          0.000000000000
      0.9516444003D-01  0.1000000000D+01
 Atom C4       Shell    39 P   4     bf   99 -   101         -8.606088626086         -2.676011808891          0.000000000000
      0.3469723224D+02  0.1132722000D-01
      0.7958262283D+01  0.7616965920D-01
      0.2378082688D+01  0.3019225220D+00
      0.8143320818D+00  0.7278502735D+00
 Atom C4       Shell    40 P   1     bf  102 -   104         -8.606088626086         -2.676011808891          0.000000000000
      0.2888754725D+00  0.1000000000D+01
 Atom C4       Shell    41 P   1     bf  105 -   107         -8.606088626086         -2.676011808891          0.000000000000
      0.1005682367D+00  0.1000000000D+01
 Atom C4       Shell    42 D   1     bf  108 -   112         -8.606088626086         -2.676011808891          0.000000000000
      0.1097000000D+01  0.1000000000D+01
 Atom C4       Shell    43 D   1     bf  113 -   117         -8.606088626086         -2.676011808891          0.000000000000
      0.3180000000D+00  0.1000000000D+01
 Atom C4       Shell    44 F   1     bf  118 -   124         -8.606088626086         -2.676011808891          0.000000000000
      0.7610000000D+00  0.1000000000D+01
 Atom C5       Shell    45 S   6     bf  125 -   125        -10.938298647897         -1.277979137953          0.000000000000
      0.1357534968D+05  0.6064550360D-03
      0.2035233368D+04  0.4697908888D-02
      0.4632256236D+03  0.2433247765D-01
      0.1312001960D+03  0.9739996831D-01
      0.4285301589D+02  0.3019558425D+00
      0.1558418577D+02  0.6623360914D+00
 Atom C5       Shell    46 S   2     bf  126 -   126        -10.938298647897         -1.277979137953          0.000000000000
      0.6206713851D+01  0.6559530854D+00
      0.2576489653D+01  0.3758563329D+00
 Atom C5       Shell    47 S   1     bf  127 -   127        -10.938298647897         -1.277979137953          0.000000000000
      0.5769633942D+00  0.1000000000D+01
[...]
 47105,0.,-0.00000914,0.00001927,0.,-0.00001868,0.00000403,0.,-0.000010
 74,-0.00000813,0.,0.00000111,-0.00000890,0.,-0.00001703,-0.00000180,0.
 ,0.00006068,-0.00004115,0.,-0.00000400,0.00000053,0.,0.00000905,-0.000
 01482,0.,-0.00000615,0.00000796,0.,-0.00000335,0.00000205,0.,-0.000003
 15,-0.00000166,0.,-0.00000359,-0.00000058,0.,-0.00000096,-0.00000387,0
 .,0.00000230,0.00000867,0.,-0.00002197,-0.00001897,0.,0.00001452,-0.00
 001623,0.,-0.00016019,-0.00066007,0.,0.00033339,0.00069848,0.,-0.00208
 613,0.36271844,0.,0.,0.00000173,0.,0.,0.00000734,0.,0.,-0.00001802,0.,
 0.,-0.00000067,0.,0.,-0.00000180,0.,0.,-0.00000132,0.,0.,0.00000215,0.
 ,0.,-0.00000156,0.,0.,-0.00000113,0.,0.,-0.00000229,0.,0.,-0.00000108,
 0.,0.,-0.00000177,0.,0.,0.00000501,0.,0.,0.00000111,0.,0.,-0.00007107,
 0.,0.,0.00003635,0.,0.,-0.00002186,0.,0.,0.00024947,0.,0.,0.00015007,0
 .,0.,-0.00037726,0.,0.,0.00863713,0.,0.,-0.00108290,0.,0.,0.00710056,0
 .,0.,0.00223760,0.,0.,-0.03641531,0.,0.,0.00234562,0.,0.,-0.00096731,0
 .,0.,0.00007842,0.,0.,0.00007961,0.,0.,-0.00000336,0.,0.,-0.00007899,0
 .,0.,0.00003341,0.,0.,0.00000179,0.,0.,0.00000758,0.,0.,0.00000877,0.,
 0.,0.00000136,0.,0.,0.00000096,0.,0.,0.00000082,0.,0.,0.00000098,0.,0.
 ,0.00000206,0.,0.,-0.00001490,0.,0.,-0.00006442,0.,0.,-0.00002714,0.,0
 .,-0.00327051,0.,0.,0.02575051,0.00002066,-0.00002481,0.,-0.00004247,-
 0.00010930,0.,0.00004235,0.00006777,0.,-0.00000138,-0.00000231,0.,-0.0
 0000466,-0.00000114,0.,0.00000024,0.00000307,0.,-0.00000222,0.00000258
 ,0.,0.00000802,0.00000830,0.,0.00000502,-0.00000952,0.,-0.00000322,0.0
 0000448,0.,0.00000058,0.00000399,0.,0.00001801,0.00001415,0.,-0.000009
 96,-0.00004031,0.,0.00004016,-0.00001215,0.,0.00014914,-0.00029420,0.,
 -0.00010872,-0.00003766,0.,-0.00002275,0.00008576,0.,-0.00202349,-0.00
 262643,0.,-0.00191306,0.00062488,0.,0.00014465,0.00019484,0.,0.0038979
 0,0.00074441,0.,0.00146511,-0.00083784,0.,0.00023514,-0.00092155,0.,-0
 .00342659,-0.00399632,0.,-0.02017139,0.01708093,0.,-0.26404994,0.12806
 429,0.,0.00007174,-0.00026802,0.,0.00003403,0.00002052,0.,-0.00002043,
 0.00002696,0.,0.00002544,0.00002659,0.,-0.00000158,-0.00002249,0.,-0.0
 0001453,0.00002487,0.,0.00001066,0.00000331,0.,0.00003797,0.00007389,0
 .,0.00000410,-0.00000848,0.,0.00000310,-0.00000166,0.,0.00000204,0.000
 00181,0.,0.00000259,0.00000082,0.,-0.00000033,0.00000209,0.,-0.0000021
 6,-0.00000664,0.,0.00002330,0.00001706,0.,-0.00359467,-0.00399091,0.,-
 0.00004536,0.00006133,0.,-0.00103021,0.00078323,0.,0.00090788,-0.00034
 150,0.,0.28932920,0.00003988,-0.00002302,0.,0.00001806,-0.00010331,0.,
 0.00002017,0.00006951,0.,0.00000209,-0.00000303,0.,-0.00001162,-0.0000
 0111,0.,0.00000872,0.00000436,0.,0.00000189,0.00000477,0.,0.00000133,0
 .00000589,0.,-0.00000306,0.00001088,0.,0.00004771,0.00000810,0.,0.0000
 2441,-0.00007518,0.,-0.00000357,0.00000259,0.,-0.00004954,0.00008883,0
 .,-0.00010275,0.00001853,0.,-0.00052788,0.00071560,0.,0.00009700,0.000
 12416,0.,0.00007363,0.00021707,0.,0.00025363,-0.00156098,0.,0.00083246
 ,0.00121750,0.,-0.00002842,-0.00012107,0.,0.02820798,-0.00981139,0.,-0
 .00169447,-0.00542136,0.,-0.00087637,-0.00086689,0.,-0.00322781,-0.000
 69427,0.,-0.01562001,0.01158390,0.,0.12882601,-0.13913762,0.,0.0016452
 5,-0.00002330,0.,0.00021139,0.00002522,0.,-0.00010036,0.00006160,0.,0.
 00000533,-0.00007069,0.,0.00010430,-0.00001254,0.,-0.00024330,-0.00052
 648,0.,0.00001371,0.00000229,0.,-0.00007570,0.00011865,0.,0.00001336,-
 0.00001468,0.,0.00000773,-0.00000209,0.,0.00000476,0.00000445,0.,0.000
 00583,0.00000221,0.,0.00000542,0.00000875,0.,-0.00000644,-0.00000702,0
 .,0.00001414,0.00000917,0.,-0.00307495,-0.00003525,0.,0.00011919,0.000
 05944,0.,-0.00073587,0.00035525,0.,0.00018032,0.00088259,0.,-0.1343949
 6,0.14300566,0.,0.,-0.00003580,0.,0.,-0.00018805,0.,0.,0.00004376,0.,0
 .,0.00001909,0.,0.,-0.00000207,0.,0.,-0.00000170,0.,0.,0.00000157,0.,0
 .,-0.00000087,0.,0.,-0.00001681,0.,0.,-0.00000874,0.,0.,-0.00003601,0.
 ,0.,-0.00000349,0.,0.,0.00010742,0.,0.,0.00011029,0.,0.,-0.00028358,0.
 ,0.,-0.00003334,0.,0.,0.00017093,0.,0.,-0.00110343,0.,0.,-0.00205501,0
 .,0.,-0.00025717,0.,0.,0.00133354,0.,0.,0.00675671,0.,0.,-0.00108732,0
 .,0.,0.00865756,0.,0.,0.00333272,0.,0.,-0.03548774,0.,0.,0.00028777,0.
 ,0.,-0.00024506,0.,0.,0.00011824,0.,0.,-0.00001773,0.,0.,-0.00000015,0
 .,0.,-0.00007323,0.,0.,0.00000927,0.,0.,0.00011785,0.,0.,0.00000533,0.
 ,0.,0.00000199,0.,0.,0.00000079,0.,0.,0.00000275,0.,0.,0.00000176,0.,0
 .,0.00000897,0.,0.,0.00002568,0.,0.,0.00244394,0.,0.,-0.00105855,0.,0.
 ,-0.00002898,0.,0.,-0.00442945,0.,0.,0.02290414,0.00000802,-0.00000829
 ,0.,-0.00000320,-0.00000448,0.,0.00000502,0.00000952,0.,-0.00000221,-0
 .00000258,0.,0.00000025,-0.00000307,0.,-0.00000466,0.00000114,0.,-0.00
 000138,0.00000231,0.,0.00002067,0.00002482,0.,0.00004238,-0.00006778,0
 .,-0.00004249,0.00010932,0.,0.00001801,-0.00001415,0.,0.00000059,-0.00
 000397,0.,0.00004012,0.00001216,0.,-0.00000999,0.00004028,0.,-0.000108
 71,0.00003759,0.,0.00014888,0.00029403,0.,-0.00202435,0.00262631,0.,-0
 .00002270,-0.00008583,0.,0.00014470,-0.00019475,0.,-0.00191260,-0.0006
 2586,0.,0.00003410,-0.00002051,0.,0.00007218,0.00026805,0.,-0.00001460
 ,-0.00002471,0.,-0.00000155,0.00002250,0.,0.00002545,-0.00002656,0.,-0
 .00002045,-0.00002699,0.,0.00146430,0.00084003,0.,0.00390710,-0.000740
 03,0.,-0.26396821,-0.12810407,0.,-0.02017094,-0.01709106,0.,-0.0034289
 0,0.00399545,0.,0.00023457,0.00092190,0.,0.00000259,-0.00000082,0.,-0.
 00000216,0.00000664,0.,-0.00000033,-0.00000209,0.,0.00000204,-0.000001
 81,0.,0.00000311,0.00000166,0.,0.00001066,-0.00000331,0.,0.00000410,0.
 00000849,0.,0.00003796,-0.00007392,0.,-0.00359701,0.00398979,0.,0.0000
 2331,-0.00001705,0.,0.00000608,0.00000925,0.,-0.00000397,-0.00000320,0
 .,0.00000010,-0.00000628,0.,0.00000788,-0.00000599,0.,0.28924392,-0.00
 000133,0.00000589,0.,-0.00004771,0.00000808,0.,0.00000305,0.00001088,0
 .,-0.00000190,0.00000477,0.,-0.00000872,0.00000435,0.,0.00001162,-0.00
 000110,0.,-0.00000209,-0.00000303,0.,-0.00003987,-0.00002302,0.,-0.000
 02018,0.00006948,0.,-0.00001804,-0.00010328,0.,0.00000357,0.00000259,0
 .,-0.00002439,-0.00007518,0.,0.00010275,0.00001857,0.,0.00004951,0.000
 08886,0.,-0.00009708,0.00012414,0.,0.00052769,0.00071586,0.,-0.0002537
 3,-0.00156025,0.,-0.00007370,0.00021702,0.,0.00002850,-0.00012113,0.,-
 0.00083345,0.00121702,0.,-0.00021139,0.00002514,0.,-0.00164522,-0.0000
 2374,0.,0.00024346,-0.00052641,0.,-0.00010430,-0.00001257,0.,-0.000005
 30,-0.00007070,0.,0.00010034,0.00006162,0.,0.00169666,-0.00542055,0.,-
 0.02820359,-0.00982061,0.,-0.12886583,-0.13921959,0.,0.01560990,0.0115
 8343,0.,0.00322693,-0.00069197,0.,0.00087672,-0.00086632,0.,-0.0000058
 3,0.00000221,0.,0.00000644,-0.00000701,0.,-0.00000542,0.00000875,0.,-0
 .00000476,0.00000444,0.,-0.00000773,-0.00000209,0.,-0.00001371,0.00000
 228,0.,-0.00001335,-0.00001468,0.,0.00007567,0.00011865,0.,0.00307385,
 -0.00003301,0.,-0.00001413,0.00000916,0.,-0.00000076,0.00003494,0.,-0.
 00000437,-0.00006024,0.,0.00000777,-0.00000481,0.,0.00000602,-0.000065
 59,0.,0.13444150,0.14309149,0.,0.,-0.00000087,0.,0.,-0.00000874,0.,0.,
 -0.00001681,0.,0.,0.00000157,0.,0.,-0.00000170,0.,0.,-0.00000207,0.,0.
 ,0.00001909,0.,0.,-0.00003580,0.,0.,0.00004376,0.,0.,-0.00018804,0.,0.
 ,-0.00000349,0.,0.,-0.00003601,0.,0.,0.00011029,0.,0.,0.00010742,0.,0.
 ,-0.00003334,0.,0.,-0.00028358,0.,0.,-0.00110343,0.,0.,0.00017093,0.,0
 .,-0.00025717,0.,0.,-0.00205501,0.,0.,-0.00024505,0.,0.,0.00028777,0.,
 0.,-0.00007323,0.,0.,-0.00000015,0.,0.,-0.00001773,0.,0.,0.00011824,0.
 ,0.,0.00675671,0.,0.,0.00133354,0.,0.,-0.03548773,0.,0.,0.00333273,0.,
 0.,0.00865756,0.,0.,-0.00108732,0.,0.,0.00000275,0.,0.,0.00000897,0.,0
 .,0.00000176,0.,0.,0.00000079,0.,0.,0.00000199,0.,0.,0.00000927,0.,0.,
 0.00000533,0.,0.,0.00011785,0.,0.,0.00244393,0.,0.,0.00002568,0.,0.,0.
 00003092,0.,0.,-0.00000614,0.,0.,-0.00000315,0.,0.,-0.00002942,0.,0.,0
 .02290413,-0.00000718,0.00000506,0.,-0.00000707,0.00000278,0.,-0.00000
 319,-0.00000547,0.,0.00000612,-0.00000146,0.,0.00000537,-0.00000094,0.
 ,-0.00000671,-0.00000395,0.,0.00000262,0.00000113,0.,-0.00000775,-0.00
 000926,0.,0.00000325,0.00000113,0.,-0.00003481,0.00000459,0.,-0.000002
 53,0.00001570,0.,-0.00000608,-0.00001434,0.,0.00001256,0.00001744,0.,0
 .00000723,-0.00000891,0.,0.00003446,0.00003851,0.,0.00002804,-0.000073
 82,0.,-0.00001793,-0.00001363,0.,-0.00000549,0.00013938,0.,-0.00033339
 ,0.00013483,0.,0.00076558,0.00115918,0.,-0.00016885,-0.00011083,0.,0.0
 0014338,-0.00018824,0.,-0.00005626,0.00001206,0.,0.00009168,-0.0000244
 1,0.,-0.00003686,-0.00001385,0.,0.00005247,0.00002953,0.,-0.00146952,0
 .00025046,0.,-0.00449875,0.00232298,0.,0.00441965,0.02873753,0.,-0.060
 78243,-0.00260963,0.,0.00555947,-0.02830539,0.,-0.00460469,-0.00258088
 ,0.,-0.00000039,-0.00000006,0.,-0.00000021,-0.00000515,0.,-0.00000077,
 0.00000047,0.,-0.00000060,-0.00000058,0.,-0.00000053,0.00000010,0.,0.0
 0000057,-0.00000025,0.,-0.00000952,-0.00000584,0.,0.00000421,0.0000122
 6,0.,-0.00002145,-0.00000041,0.,-0.00004086,0.00002439,0.,0.00008405,0
 .00003574,0.,-0.00000125,0.00000188,0.,0.00000805,-0.00000334,0.,0.000
 00010,-0.00000777,0.,0.00090783,-0.00018031,0.,0.05913047,0.00001790,-
 0.00000821,0.,0.00001747,-0.00001387,0.,0.00000137,0.00001186,0.,-0.00
 000587,-0.00000725,0.,-0.00000649,-0.00000052,0.,0.00000295,0.00000420
 ,0.,-0.00000033,0.00000584,0.,0.00001515,0.00000895,0.,-0.00000216,-0.
 00000841,0.,0.00002678,0.00001400,0.,0.00001285,-0.00001733,0.,0.00001
 316,0.00001050,0.,-0.00002745,-0.00003703,0.,-0.00003355,0.00002536,0.
 ,0.00001926,-0.00000080,0.,-0.00001520,-0.00000752,0.,0.00003039,-0.00
 003995,0.,-0.00001910,-0.00007437,0.,0.00029156,-0.00001109,0.,-0.0004
 7807,-0.00058750,0.,0.00001862,0.00000400,0.,0.00000917,0.00001921,0.,
 -0.00006069,-0.00004116,0.,0.00001706,-0.00000180,0.,-0.00000112,-0.00
 000890,0.,0.00001076,-0.00000811,0.,0.00002808,0.00068079,0.,0.0028052
 2,0.00082098,0.,-0.00308245,-0.01146287,0.,-0.00187530,-0.34246866,0.,
 0.00327685,-0.01094455,0.,-0.00323783,0.00053755,0.,0.00000359,-0.0000
 0058,0.,-0.00000231,0.00000867,0.,0.00000096,-0.00000387,0.,0.00000315
 ,-0.00000166,0.,0.00000334,0.00000206,0.,0.00000400,0.00000053,0.,0.00
 000614,0.00000796,0.,-0.00000905,-0.00001482,0.,-0.00001452,-0.0000162
 4,0.,0.00002196,-0.00001896,0.,0.00005221,0.00002488,0.,-0.00000608,-0
 .00000677,0.,0.00000335,-0.00001021,0.,0.00000628,-0.00000481,0.,0.000
 34151,0.00088264,0.,0.00198938,0.36271974,0.,0.,-0.00000156,0.,0.,-0.0
 0000229,0.,0.,-0.00000113,0.,0.,0.00000215,0.,0.,-0.00000132,0.,0.,-0.
 00000180,0.,0.,-0.00000067,0.,0.,0.00000173,0.,0.,-0.00001802,0.,0.,0.
 00000734,0.,0.,-0.00000177,0.,0.,-0.00000108,0.,0.,0.00000111,0.,0.,0.
 00000501,0.,0.,0.00003635,0.,0.,-0.00007107,0.,0.,0.00024947,0.,0.,-0.
 00002186,0.,0.,-0.00037726,0.,0.,0.00015008,0.,0.,0.00007842,0.,0.,-0.
 00096730,0.,0.,0.00003341,0.,0.,-0.00007899,0.,0.,-0.00000336,0.,0.,0.
 00007961,0.,0.,-0.00108290,0.,0.,0.00863712,0.,0.,0.00234562,0.,0.,-0.
 03641531,0.,0.,0.00223760,0.,0.,0.00710056,0.,0.,0.00000082,0.,0.,0.00
 000206,0.,0.,0.00000098,0.,0.,0.00000096,0.,0.,0.00000136,0.,0.,0.0000
 0179,0.,0.,0.00000877,0.,0.,0.00000758,0.,0.,-0.00006442,0.,0.,-0.0000
 1490,0.,0.,0.00009682,0.,0.,0.00000401,0.,0.,0.00001601,0.,0.,-0.00000
 315,0.,0.,-0.00442945,0.,0.,0.02575051,-0.00000693,0.00000224,0.,-0.00
 001024,0.00001147,0.,0.00000144,-0.00000377,0.,-0.00000049,0.00000547,
 0.,0.,0.00000181,0.,0.00000397,-0.00000079,0.,-0.00000106,-0.00000459,
 0.,-0.00001134,-0.00000478,0.,-0.00000343,0.00001613,0.,0.00000512,-0.
 00002348,0.,-0.00000779,0.00000109,0.,-0.00000955,-0.00000926,0.,0.000
 01713,0.00001889,0.,0.00002220,-0.00000842,0.,-0.00002519,-0.00001762,
 0.,0.00002499,0.00006408,0.,-0.00007033,-0.00005163,0.,0.00002408,0.00
 002773,0.,-0.00008028,-0.00002402,0.,-0.00003140,0.00010121,0.,0.00010
 056,0.00004259,0.,0.00002231,-0.00006534,0.,-0.00002533,0.00003497,0.,
 -0.00003177,0.00001926,0.,0.00002163,0.00003788,0.,-0.00000140,-0.0000
 2509,0.,0.00171291,-0.00075824,0.,0.00027859,-0.00097679,0.,-0.0032448
 5,-0.00400943,0.,-0.01766958,0.01658574,0.,-0.27497542,0.12084784,0.,0
 .00357089,-0.00256238,0.,-0.00000318,0.00000073,0.,0.00000246,-0.00000
 550,0.,-0.00000049,0.00000326,0.,-0.00000245,0.00000213,0.,-0.00000305
 ,-0.00000174,0.,-0.00000500,0.00000020,0.,0.00000034,-0.00000370,0.,0.
 00001074,0.00001354,0.,0.00008477,0.00005587,0.,-0.00000149,0.00000658
 ,0.,-0.00002051,-0.00001152,0.,0.00000667,0.00000861,0.,-0.00000125,0.
 00000608,0.,-0.00000398,0.00000439,0.,-0.00103020,0.00073543,0.,0.0008
 5040,-0.00033334,0.,0.28956711,0.00000261,-0.00000368,0.,-0.00000060,-
 0.00000286,0.,0.00000327,0.00000392,0.,-0.00000123,0.00000025,0.,-0.00
 000202,-0.00000072,0.,-0.00000015,0.00000123,0.,-0.00000220,0.00000070
 ,0.,0.00000280,0.00000450,0.,0.00000168,0.00000058,0.,0.00001032,-0.00
 000432,0.,0.00000352,-0.00000806,0.,0.00000453,0.00000795,0.,-0.000003
 29,-0.00000421,0.,0.00000084,0.00000987,0.,-0.00003863,-0.00002506,0.,
 0.00000617,0.00006925,0.,0.00003490,-0.00002447,0.,0.00006395,0.000021
 23,0.,-0.00018239,-0.00007840,0.,-0.00009511,0.00017964,0.,-0.00010044
 ,-0.00044978,0.,0.00155697,0.00013450,0.,0.00001349,-0.00002042,0.,-0.
 00005617,0.00004114,0.,0.00004097,-0.00002949,0.,0.00013835,-0.0000543
 2,0.,-0.00123150,-0.00537609,0.,-0.00074909,-0.00106104,0.,-0.00335188
 ,-0.00082272,0.,-0.01502368,0.01223414,0.,0.12014897,-0.12853468,0.,0.
 02925762,-0.01056784,0.,0.00000157,-0.00000019,0.,-0.00000153,0.000003
 83,0.,-0.00000017,-0.00000119,0.,0.00000118,-0.00000072,0.,0.00000094,
 0.00000085,0.,0.00000065,0.00000057,0.,0.00000053,0.00000150,0.,0.0000
 0272,0.00000116,0.,0.00004108,0.00003072,0.,-0.00000905,0.00000021,0.,
 -0.00000809,-0.00001796,0.,-0.00000860,-0.00002823,0.,-0.00000188,-0.0
 0000677,0.,0.00000322,-0.00006024,0.,-0.00078367,0.00035523,0.,0.00058
 570,0.00069856,0.,-0.13006473,0.13256667,0.,0.,-0.00000079,0.,0.,-0.00
 000040,0.,0.,-0.00000439,0.,0.,-0.00000032,0.,0.,-0.00000093,0.,0.,-0.
 00000062,0.,0.,-0.00000096,0.,0.,-0.00000066,0.,0.,-0.00000196,0.,0.,-
 0.00000640,0.,0.,0.00000047,0.,0.,-0.00000139,0.,0.,0.00000060,0.,0.,0
 .00001940,0.,0.,-0.00001283,0.,0.,-0.00006021,0.,0.,0.00003974,0.,0.,0
 .00006441,0.,0.,0.00008862,0.,0.,-0.00097952,0.,0.,-0.00037582,0.,0.,0
 .00017243,0.,0.,0.00019598,0.,0.,-0.00006070,0.,0.,0.00002119,0.,0.,-0
 .00001698,0.,0.,0.00862320,0.,0.,-0.00108287,0.,0.,0.00710327,0.,0.,0.
 00223111,0.,0.,-0.03641268,0.,0.,0.00239317,0.,0.,0.00000118,0.,0.,0.0
 0000325,0.,0.,0.00000062,0.,0.,0.00000064,0.,0.,0.00000075,0.,0.,0.000
 00110,0.,0.,0.00000193,0.,0.,0.00000865,0.,0.,0.00009703,0.,0.,-0.0000
 0444,0.,0.,-0.00003462,0.,0.,0.00001468,0.,0.,0.00000401,0.,0.,-0.0000
 0614,0.,0.,-0.00002898,0.,0.,-0.00327051,0.,0.,0.02574005,-0.00001609,
 0.00001176,0.,-0.00002854,0.00000527,0.,0.00000041,-0.00000719,0.,0.00
 000584,0.00000715,0.,-0.00000036,0.00000252,0.,0.00000317,-0.00000222,
 0.,-0.00000385,0.00000069,0.,-0.00000623,-0.00000070,0.,-0.00000190,0.
 00000560,0.,0.00000106,-0.00001417,0.,-0.00001452,0.00000989,0.,-0.000
 01186,-0.00001780,0.,-0.00001879,0.00005921,0.,0.00004036,-0.00000934,
 0.,-0.00004035,0.00001925,0.,-0.00002456,-0.00008530,0.,-0.00032133,0.
 00040132,0.,0.00005872,0.00006541,0.,-0.00006406,-0.00016586,0.,-0.000
 60826,-0.00126455,0.,-0.00011049,0.00019741,0.,-0.00015962,-0.00185304
 ,0.,-0.00050755,-0.00087199,0.,0.00083339,0.00004051,0.,0.00007194,-0.
 00014055,0.,0.00007618,-0.00013938,0.,-0.01877754,-0.01497371,0.,-0.00
 263964,0.00401206,0.,0.00019322,0.00092506,0.,0.00172313,0.00031405,0.
 ,0.00332329,0.00230568,0.,-0.28152062,-0.11933873,0.,-0.00000251,0.000
 00066,0.,0.00000255,-0.00000191,0.,-0.00000326,0.00000564,0.,-0.000002
 44,0.00000182,0.,-0.00000318,-0.00000142,0.,-0.00000389,-0.00000055,0.
 ,-0.00000013,-0.00000287,0.,0.00000263,0.00001263,0.,0.00003828,-0.000
 01097,0.,-0.00004846,0.00003250,0.,0.00208015,-0.00036942,0.,-0.000020
 52,0.00000809,0.,0.00008408,-0.00005219,0.,0.00000608,0.00000075,0.,-0
 .00004530,-0.00011922,0.,0.00000751,0.00016040,0.,0.00094967,-0.000212
 48,0.,0.29550415,0.00000106,0.00000102,0.,0.00000847,0.00000294,0.,-0.
 00000396,-0.00000294,0.,-0.00000075,0.00000004,0.,0.00000216,0.0000004
 3,0.,0.00000084,-0.00000015,0.,0.00000299,-0.00000260,0.,-0.00000279,-
 0.00000469,0.,-0.00000315,0.00000302,0.,-0.00000345,-0.00000020,0.,-0.
 00000138,0.00000447,0.,0.00000098,-0.00000131,0.,0.00002331,-0.0000216
 4,0.,-0.00001357,-0.00000460,0.,0.00003834,0.00001954,0.,0.00005207,0.
 00003682,0.,0.00013876,-0.00024416,0.,-0.00010092,-0.00004135,0.,0.000
 06723,0.00014551,0.,0.00066158,0.00066582,0.,-0.00007389,0.00014095,0.
 ,-0.00122903,-0.00048614,0.,0.00190945,-0.00298364,0.,-0.00019767,0.00
 000220,0.,-0.00004172,-0.00000239,0.,-0.00016277,0.00008753,0.,0.01274
 431,0.01311172,0.,0.00318987,-0.00136533,0.,0.00096209,-0.00081836,0.,
 0.00100793,-0.00582626,0.,-0.03032498,-0.01164578,0.,-0.11895857,-0.12
 254124,0.,-0.00000172,0.00000022,0.,0.00000151,-0.00000417,0.,0.000001
 31,0.00000026,0.,-0.00000111,0.00000085,0.,-0.00000072,-0.00000107,0.,
 -0.00000122,-0.00000019,0.,0.00000073,-0.00000109,0.,0.00000120,-0.000
 00120,0.,-0.00000916,0.00000647,0.,0.00003169,-0.00001137,0.,0.0003717
 4,-0.00522653,0.,0.00001151,-0.00001795,0.,-0.00003572,0.00002486,0.,-
 0.00000926,0.00003493,0.,-0.00006136,0.00005938,0.,-0.00135349,-0.0006
 6045,0.,0.00031093,0.00081527,0.,0.13105026,0.13675257,0.,0.,0.0000008
 9,0.,0.,-0.00000330,0.,0.,-0.00000074,0.,0.,-0.00000555,0.,0.,0.000001
 01,0.,0.,-0.00000240,0.,0.,0.00000786,0.,0.,-0.00000295,0.,0.,-0.00000
 088,0.,0.,-0.00000147,0.,0.,0.00001814,0.,0.,-0.00001807,0.,0.,-0.0000
 0353,0.,0.,-0.00001111,0.,0.,-0.00000916,0.,0.,-0.00000676,0.,0.,-0.00
 001543,0.,0.,0.00006494,0.,0.,-0.00009942,0.,0.,0.00013969,0.,0.,-0.00
 044887,0.,0.,-0.00172573,0.,0.,-0.00124737,0.,0.,-0.00010827,0.,0.,-0.
 00007905,0.,0.,0.00019657,0.,0.,0.00115459,0.,0.,0.00688944,0.,0.,-0.0
 0108685,0.,0.,0.00866170,0.,0.,0.00335250,0.,0.,-0.03559543,0.,0.,0.00
 000045,0.,0.,0.00000151,0.,0.,0.00000116,0.,0.,0.00000059,0.,0.,0.0000
 0062,0.,0.,0.00000086,0.,0.,0.00000144,0.,0.,0.00000463,0.,0.,0.000006
 76,0.,0.,-0.00000868,0.,0.,0.00229743,0.,0.,-0.00003462,0.,0.,0.000096
 82,0.,0.,0.00003092,0.,0.,-0.00105855,0.,0.,-0.00002714,0.,0.,-0.00446
 233,0.,0.,0.02313314\\0.00000215,-0.00000250,0.,0.00000425,-0.00000320
 ,0.,-0.00000159,0.00000184,0.,-0.00000946,0.00000731,0.,0.00000437,0.0
 0000116,0.,0.00000435,-0.00000116,0.,-0.00000943,-0.00000730,0.,0.0000
 0214,0.00000250,0.,-0.00000159,-0.00000184,0.,0.00000422,0.00000317,0.
 ,0.00000476,-0.00000840,0.,0.00000470,0.00000839,0.,-0.00000436,0.0000
 0085,0.,-0.00000439,-0.00000085,0.,0.00000308,0.00000177,0.,0.00000302
 ,-0.00000176,0.,-0.00000044,0.00000136,0.,-0.00000041,-0.00000139,0.,0
 .00000066,0.00000237,0.,0.00000066,-0.00000234,0.,0.00000016,-0.000002
 47,0.,-0.00000063,0.00000166,0.,-0.00000016,-0.00000229,0.,0.00000079,
 -0.00000034,0.,-0.00000030,0.00000103,0.,-0.00000166,-0.00000196,0.,-0
 .00000061,-0.00000167,0.,0.00000018,0.00000247,0.,-0.00000163,0.000001
 90,0.,-0.00000030,-0.00000104,0.,0.00000078,0.00000035,0.,-0.00000016,
 0.00000227,0.,-0.00000030,-0.00000020,0.,-0.00000311,0.00000193,0.,-0.
 00000014,-0.00000052,0.,-0.00000072,-0.00000105,0.,-0.00000072,0.00000
 105,0.,-0.00000030,0.00000020,0.,-0.00000015,0.00000052,0.,-0.00000313
 ,-0.00000192,0.,0.00000165,0.00000035,0.,0.00000167,-0.00000024,0.,0.0
 0000116,0.00000037,0.,0.00000017,-0.00000071,0.,-0.00000071,-0.0000003
 2,0.,0.00000037,0.00000164,0.,0.00000045,-0.00000164,0.,-0.00000070,0.
 00000031,0.,0.00000017,0.00000071,0.,0.00000117,-0.00000037,0.\\\@


 REALITY IS FOR PEOPLE WHO CAN'T FACE SCIENCE FICTION.
 Job cpu time:      13 days 20 hours 12 minutes 17.4 seconds.
 File lengths (MBytes):  RWF=   4683 Int=      0 D2E=      0 Chk=     87 Scr=      1
 Normal termination of Gaussian 09 at Sun Jul 28 22:29:04 2019.
