 Entering Gaussian System, Link 0=g09
 Initial command:
 /home/minenky/programs//g09/l1.exe "/local/scratch/minenky/m1_00_120836-16-0-C32H16_wB97XD/Gau-120441.inp" -scrdir="/local/scratch/minenky/m1_00_120836-16-0-C32H16_wB97XD/"
 Entering Link 1 = /home/minenky/programs//g09/l1.exe PID=    120442.
  
 Copyright (c) 1988,1990,1992,1993,1995,1998,2003,2009,2013,
            Gaussian, Inc.  All Rights Reserved.
  
 This is part of the Gaussian(R) 09 program.  It is based on
 the Gaussian(R) 03 system (copyright 2003, Gaussian, Inc.),
 the Gaussian(R) 98 system (copyright 1998, Gaussian, Inc.),
 the Gaussian(R) 94 system (copyright 1995, Gaussian, Inc.),
 the Gaussian 92(TM) system (copyright 1992, Gaussian, Inc.),
 the Gaussian 90(TM) system (copyright 1990, Gaussian, Inc.),
 the Gaussian 88(TM) system (copyright 1988, Gaussian, Inc.),
 the Gaussian 86(TM) system (copyright 1986, Carnegie Mellon
 University), and the Gaussian 82(TM) system (copyright 1983,
 Carnegie Mellon University). Gaussian is a federally registered
 trademark of Gaussian, Inc.
  
 This software contains proprietary and confidential information,
 including trade secrets, belonging to Gaussian, Inc.
  
 This software is provided under written license and may be
 used, copied, transmitted, or stored only in accord with that
 written license.
  
 The following legend is applicable only to US Government
 contracts under FAR:
  
                    RESTRICTED RIGHTS LEGEND
  
 Use, reproduction and disclosure by the US Government is
 subject to restrictions as set forth in subparagraphs (a)
 and (c) of the Commercial Computer Software - Restricted
 Rights clause in FAR 52.227-19.
  
 Gaussian, Inc.
 340 Quinnipiac St., Bldg. 40, Wallingford CT 06492
  
  
 ---------------------------------------------------------------
 Warning -- This program may not be used in any manner that
 competes with the business of Gaussian, Inc. or will provide
 assistance to any competitor of Gaussian, Inc.  The licensee
 of this program is prohibited from giving any competitor of
 Gaussian, Inc. access to this program.  By using this program,
 the user acknowledges that Gaussian, Inc. is engaged in the
 business of creating and licensing software in the field of
 computational chemistry and represents and warrants to the
 licensee that it is not a competitor of Gaussian, Inc. and that
 it will not use this program in any manner prohibited above.
 ---------------------------------------------------------------
  

 Cite this work as:
 Gaussian 09, Revision D.01,
 M. J. Frisch, G. W. Trucks, H. B. Schlegel, G. E. Scuseria, 
 M. A. Robb, J. R. Cheeseman, G. Scalmani, V. Barone, B. Mennucci, 
 G. A. Petersson, H. Nakatsuji, M. Caricato, X. Li, H. P. Hratchian, 
 A. F. Izmaylov, J. Bloino, G. Zheng, J. L. Sonnenberg, M. Hada, 
 M. Ehara, K. Toyota, R. Fukuda, J. Hasegawa, M. Ishida, T. Nakajima, 
 Y. Honda, O. Kitao, H. Nakai, T. Vreven, J. A. Montgomery, Jr., 
 J. E. Peralta, F. Ogliaro, M. Bearpark, J. J. Heyd, E. Brothers, 
 K. N. Kudin, V. N. Staroverov, T. Keith, R. Kobayashi, J. Normand, 
 K. Raghavachari, A. Rendell, J. C. Burant, S. S. Iyengar, J. Tomasi, 
 M. Cossi, N. Rega, J. M. Millam, M. Klene, J. E. Knox, J. B. Cross, 
 V. Bakken, C. Adamo, J. Jaramillo, R. Gomperts, R. E. Stratmann, 
 O. Yazyev, A. J. Austin, R. Cammi, C. Pomelli, J. W. Ochterski, 
 R. L. Martin, K. Morokuma, V. G. Zakrzewski, G. A. Voth, 
 P. Salvador, J. J. Dannenberg, S. Dapprich, A. D. Daniels, 
 O. Farkas, J. B. Foresman, J. V. Ortiz, J. Cioslowski, 
 and D. J. Fox, Gaussian, Inc., Wallingford CT, 2013.
 
 ******************************************
 Gaussian 09:  AM64L-G09RevD.01 24-Apr-2013
                27-Jul-2019 
 ******************************************
 %Mem=32000MB
 %NProcShared=16
 Will use up to   16 processors via shared memory.
 %Chk=m1_00_120836-16-0-C32H16_wB97XD
 ----------------------------------------------------------------------
 #P wB97XD/def2tzvp opt=(tight) freq integral(Grid=ultrafine) # SCF(Max
 Cycle=380) 5d 7f GFPrint
 ----------------------------------------------------------------------
 1/7=10,14=-1,18=20,19=15,26=4,38=1/1,3;
 2/9=110,12=2,17=6,18=5,40=1/2;
 3/5=44,7=101,8=11,11=2,16=1,24=100,25=1,30=1,71=1,74=-58,75=-5/1,2,3;
 4//1;
 5/5=2,7=380,38=5/2;
 6/7=2,8=2,9=2,10=2,28=1/1;
 7//1,2,3,16;
 1/7=10,14=-1,18=20,19=15,26=4/3(2);
 2/9=110/2;
 99//99;
 2/9=110/2;
 3/5=44,7=101,8=11,11=2,16=1,25=1,30=1,71=1,74=-58,75=-5/1,2,3;
 4/5=5,16=3,69=1/1;
 5/5=2,7=380,38=5/2;
 7//1,2,3,16;
 1/7=10,14=-1,18=20,19=15,26=4/3(-5);
 2/9=110/2;
 6/7=2,8=2,9=2,10=2,19=2,28=1/1;
 99/9=1/99;
 Leave Link    1 at Sat Jul 27 14:01:32 2019, MaxMem=  4194304000 cpu:         1.4
 (Enter /home/minenky/programs//g09/l101.exe)
 ---------------------------------------
 The PBEPBE optimization and frequencies
 ---------------------------------------
 Symbolic Z-matrix:
 Charge =  0 Multiplicity = 1
 C                     5.08368   1.68301   0. 
 C                     4.00817   2.4933    0. 
 C                     2.65781   1.96233   0. 
 C                     1.56292   2.77822   0. 
 C                     0.23298   2.23634   0. 
 C                    -0.87942   3.0628    0. 
 C                    -2.18025   2.51897   0. 
 C                    -3.32217   3.36837   0. 
 C                    -4.58057   2.83299   0. 
 C                    -4.76429   1.43397   0. 
 C                     4.94453   0.23996   0. 
 C                     4.61511  -2.55099   0. 
 C                     5.86911  -1.99605   0. 
 C                     6.0416   -0.59706   0. 
 C                     3.46198  -1.72196   0. 
 C                     3.63081  -0.31755   0. 
 C                     2.49458   0.52904   0. 
 C                     2.15892  -2.26955   0. 
 C                     1.04635  -1.44587   0. 
 C                     1.2099   -0.02736   0. 
 C                     0.05867   0.81892   0. 
 C                    -0.28627  -1.98122   0. 
 C                    -1.38631  -1.17362   0. 
 C                    -1.22938   0.26319   0. 
 C                    -2.36101   1.11447   0. 
 C                    -3.6852    0.57662   0. 
 C                    -2.74045  -1.72571   0. 
 C                    -3.8591   -0.87386   0. 
 C                    -5.14498  -1.43235   0. 
 C                    -5.32458  -2.80573   0. 
 C                    -4.21621  -3.65045   0. 
 C                    -2.93936  -3.11358   0. 
 H                     6.10029   2.09316   0. 
 H                     4.12275   3.58356   0. 
 H                     1.67853   3.86922   0. 
 H                    -0.75514   4.15287   0. 
 H                    -3.17382   4.4542    0. 
 H                    -5.46193   3.48288   0. 
 H                    -5.78482   1.02103   0. 
 H                     4.48484  -3.63909   0. 
 H                     6.75618  -2.63842   0. 
 H                     7.05508  -0.1803    0. 
 H                     2.0379   -3.35977   0. 
 H                    -0.40978  -3.07647   0. 
 H                    -6.01527  -0.75792   0. 
 H                    -6.33509  -3.22694   0. 
 H                    -4.35455  -4.73645   0. 
 H                    -2.0595   -3.77538   0. 
 
 NAtoms=     48 NQM=       48 NQMF=       0 NMMI=      0 NMMIF=      0
                NMic=       0 NMicF=      0.
                    Isotopes and Nuclear Properties:
 (Nuclear quadrupole moments (NQMom) in fm**2, nuclear magnetic moments (NMagM)
  in nuclear magnetons)

  Atom         1           2           3           4           5           6           7           8           9          10
 IAtWgt=          12          12          12          12          12          12          12          12          12          12
 AtmWgt=  12.0000000  12.0000000  12.0000000  12.0000000  12.0000000  12.0000000  12.0000000  12.0000000  12.0000000  12.0000000
 NucSpn=           0           0           0           0           0           0           0           0           0           0
 AtZEff=   0.0000000   0.0000000   0.0000000   0.0000000   0.0000000   0.0000000   0.0000000   0.0000000   0.0000000   0.0000000
 NQMom=    0.0000000   0.0000000   0.0000000   0.0000000   0.0000000   0.0000000   0.0000000   0.0000000   0.0000000   0.0000000
 NMagM=    0.0000000   0.0000000   0.0000000   0.0000000   0.0000000   0.0000000   0.0000000   0.0000000   0.0000000   0.0000000
 AtZNuc=   6.0000000   6.0000000   6.0000000   6.0000000   6.0000000   6.0000000   6.0000000   6.0000000   6.0000000   6.0000000

  Atom        11          12          13          14          15          16          17          18          19          20
 IAtWgt=          12          12          12          12          12          12          12          12          12          12
 AtmWgt=  12.0000000  12.0000000  12.0000000  12.0000000  12.0000000  12.0000000  12.0000000  12.0000000  12.0000000  12.0000000
 NucSpn=           0           0           0           0           0           0           0           0           0           0
 AtZEff=   0.0000000   0.0000000   0.0000000   0.0000000   0.0000000   0.0000000   0.0000000   0.0000000   0.0000000   0.0000000
 NQMom=    0.0000000   0.0000000   0.0000000   0.0000000   0.0000000   0.0000000   0.0000000   0.0000000   0.0000000   0.0000000
 NMagM=    0.0000000   0.0000000   0.0000000   0.0000000   0.0000000   0.0000000   0.0000000   0.0000000   0.0000000   0.0000000
 AtZNuc=   6.0000000   6.0000000   6.0000000   6.0000000   6.0000000   6.0000000   6.0000000   6.0000000   6.0000000   6.0000000

  Atom        21          22          23          24          25          26          27          28          29          30
 IAtWgt=          12          12          12          12          12          12          12          12          12          12
 AtmWgt=  12.0000000  12.0000000  12.0000000  12.0000000  12.0000000  12.0000000  12.0000000  12.0000000  12.0000000  12.0000000
 NucSpn=           0           0           0           0           0           0           0           0           0           0
 AtZEff=   0.0000000   0.0000000   0.0000000   0.0000000   0.0000000   0.0000000   0.0000000   0.0000000   0.0000000   0.0000000
 NQMom=    0.0000000   0.0000000   0.0000000   0.0000000   0.0000000   0.0000000   0.0000000   0.0000000   0.0000000   0.0000000
 NMagM=    0.0000000   0.0000000   0.0000000   0.0000000   0.0000000   0.0000000   0.0000000   0.0000000   0.0000000   0.0000000
 AtZNuc=   6.0000000   6.0000000   6.0000000   6.0000000   6.0000000   6.0000000   6.0000000   6.0000000   6.0000000   6.0000000

  Atom        31          32          33          34          35          36          37          38          39          40
 IAtWgt=          12          12           1           1           1           1           1           1           1           1
 AtmWgt=  12.0000000  12.0000000   1.0078250   1.0078250   1.0078250   1.0078250   1.0078250   1.0078250   1.0078250   1.0078250
 NucSpn=           0           0           1           1           1           1           1           1           1           1
 AtZEff=   0.0000000   0.0000000   0.0000000   0.0000000   0.0000000   0.0000000   0.0000000   0.0000000   0.0000000   0.0000000
 NQMom=    0.0000000   0.0000000   0.0000000   0.0000000   0.0000000   0.0000000   0.0000000   0.0000000   0.0000000   0.0000000
 NMagM=    0.0000000   0.0000000   2.7928460   2.7928460   2.7928460   2.7928460   2.7928460   2.7928460   2.7928460   2.7928460
 AtZNuc=   6.0000000   6.0000000   1.0000000   1.0000000   1.0000000   1.0000000   1.0000000   1.0000000   1.0000000   1.0000000

  Atom        41          42          43          44          45          46          47          48
 IAtWgt=           1           1           1           1           1           1           1           1
 AtmWgt=   1.0078250   1.0078250   1.0078250   1.0078250   1.0078250   1.0078250   1.0078250   1.0078250
 NucSpn=           1           1           1           1           1           1           1           1
 AtZEff=   0.0000000   0.0000000   0.0000000   0.0000000   0.0000000   0.0000000   0.0000000   0.0000000
 NQMom=    0.0000000   0.0000000   0.0000000   0.0000000   0.0000000   0.0000000   0.0000000   0.0000000
 NMagM=    2.7928460   2.7928460   2.7928460   2.7928460   2.7928460   2.7928460   2.7928460   2.7928460
 AtZNuc=   1.0000000   1.0000000   1.0000000   1.0000000   1.0000000   1.0000000   1.0000000   1.0000000
 Leave Link  101 at Sat Jul 27 14:01:33 2019, MaxMem=  4194304000 cpu:         5.0
 (Enter /home/minenky/programs//g09/l103.exe)

 GradGradGradGradGradGradGradGradGradGradGradGradGradGradGradGradGradGrad
 Berny optimization.
 Initialization pass.
                           ----------------------------
                           !    Initial Parameters    !
                           ! (Angstroms and Degrees)  !
 --------------------------                            --------------------------
 ! Name  Definition              Value          Derivative Info.                !
 --------------------------------------------------------------------------------
 ! R1    R(1,2)                  1.3466         estimate D2E/DX2                !
 ! R2    R(1,11)                 1.4497         estimate D2E/DX2                !
 ! R3    R(1,33)                 1.0962         estimate D2E/DX2                !
 ! R4    R(2,3)                  1.451          estimate D2E/DX2                !
 ! R5    R(2,34)                 1.0963         estimate D2E/DX2                !
 ! R6    R(3,4)                  1.3655         estimate D2E/DX2                !
 ! R7    R(3,17)                 1.4426         estimate D2E/DX2                !
 ! R8    R(4,5)                  1.4361         estimate D2E/DX2                !
 ! R9    R(4,35)                 1.0971         estimate D2E/DX2                !
 ! R10   R(5,6)                  1.3858         estimate D2E/DX2                !
 ! R11   R(5,21)                 1.4281         estimate D2E/DX2                !
 ! R12   R(6,7)                  1.4099         estimate D2E/DX2                !
 ! R13   R(6,36)                 1.0971         estimate D2E/DX2                !
 ! R14   R(7,8)                  1.4232         estimate D2E/DX2                !
 ! R15   R(7,25)                 1.4161         estimate D2E/DX2                !
 ! R16   R(8,9)                  1.3676         estimate D2E/DX2                !
 ! R17   R(8,37)                 1.0959         estimate D2E/DX2                !
 ! R18   R(9,10)                 1.411          estimate D2E/DX2                !
 ! R19   R(9,38)                 1.0951         estimate D2E/DX2                !
 ! R20   R(10,26)                1.3782         estimate D2E/DX2                !
 ! R21   R(10,39)                1.1009         estimate D2E/DX2                !
 ! R22   R(11,14)                1.3799         estimate D2E/DX2                !
 ! R23   R(11,16)                1.4271         estimate D2E/DX2                !
 ! R24   R(12,13)                1.3713         estimate D2E/DX2                !
 ! R25   R(12,15)                1.4202         estimate D2E/DX2                !
 ! R26   R(12,40)                1.0959         estimate D2E/DX2                !
 ! R27   R(13,14)                1.4096         estimate D2E/DX2                !
 ! R28   R(13,41)                1.0952         estimate D2E/DX2                !
 ! R29   R(14,42)                1.0958         estimate D2E/DX2                !
 ! R30   R(15,16)                1.4145         estimate D2E/DX2                !
 ! R31   R(15,18)                1.4134         estimate D2E/DX2                !
 ! R32   R(16,17)                1.4169         estimate D2E/DX2                !
 ! R33   R(17,20)                1.4            estimate D2E/DX2                !
 ! R34   R(18,19)                1.3843         estimate D2E/DX2                !
 ! R35   R(18,43)                1.0969         estimate D2E/DX2                !
 ! R36   R(19,20)                1.4279         estimate D2E/DX2                !
 ! R37   R(19,22)                1.4361         estimate D2E/DX2                !
 ! R38   R(20,21)                1.4288         estimate D2E/DX2                !
 ! R39   R(21,24)                1.4028         estimate D2E/DX2                !
 ! R40   R(22,23)                1.3647         estimate D2E/DX2                !
 ! R41   R(22,44)                1.1022         estimate D2E/DX2                !
 ! R42   R(23,24)                1.4454         estimate D2E/DX2                !
 ! R43   R(23,27)                1.4624         estimate D2E/DX2                !
 ! R44   R(24,25)                1.4161         estimate D2E/DX2                !
 ! R45   R(25,26)                1.4293         estimate D2E/DX2                !
 ! R46   R(26,28)                1.4609         estimate D2E/DX2                !
 ! R47   R(27,28)                1.4061         estimate D2E/DX2                !
 ! R48   R(27,32)                1.402          estimate D2E/DX2                !
 ! R49   R(28,29)                1.4019         estimate D2E/DX2                !
 ! R50   R(29,30)                1.3851         estimate D2E/DX2                !
 ! R51   R(29,45)                1.101          estimate D2E/DX2                !
 ! R52   R(30,31)                1.3936         estimate D2E/DX2                !
 ! R53   R(30,46)                1.0948         estimate D2E/DX2                !
 ! R54   R(31,32)                1.3851         estimate D2E/DX2                !
 ! R55   R(31,47)                1.0948         estimate D2E/DX2                !
 ! R56   R(32,48)                1.101          estimate D2E/DX2                !
 ! A1    A(2,1,11)             121.4865         estimate D2E/DX2                !
 ! A2    A(2,1,33)             121.0336         estimate D2E/DX2                !
 ! A3    A(11,1,33)            117.4798         estimate D2E/DX2                !
 ! A4    A(1,2,3)              121.5403         estimate D2E/DX2                !
 ! A5    A(1,2,34)             120.9956         estimate D2E/DX2                !
 ! A6    A(3,2,34)             117.4641         estimate D2E/DX2                !
 ! A7    A(2,3,4)              121.8421         estimate D2E/DX2                !
 ! A8    A(2,3,17)             117.9622         estimate D2E/DX2                !
 ! A9    A(4,3,17)             120.1956         estimate D2E/DX2                !
 ! A10   A(3,4,5)              121.1391         estimate D2E/DX2                !
 ! A11   A(3,4,35)             120.6439         estimate D2E/DX2                !
 ! A12   A(5,4,35)             118.217          estimate D2E/DX2                !
 ! A13   A(4,5,6)              121.2213         estimate D2E/DX2                !
 ! A14   A(4,5,21)             119.179          estimate D2E/DX2                !
 ! A15   A(6,5,21)             119.5996         estimate D2E/DX2                !
 ! A16   A(5,6,7)              120.7013         estimate D2E/DX2                !
 ! A17   A(5,6,36)             120.1063         estimate D2E/DX2                !
 ! A18   A(7,6,36)             119.1924         estimate D2E/DX2                !
 ! A19   A(6,7,8)              120.6683         estimate D2E/DX2                !
 ! A20   A(6,7,25)             120.022          estimate D2E/DX2                !
 ! A21   A(8,7,25)             119.3097         estimate D2E/DX2                !
 ! A22   A(7,8,9)              120.3092         estimate D2E/DX2                !
 ! A23   A(7,8,37)             118.864          estimate D2E/DX2                !
 ! A24   A(9,8,37)             120.8268         estimate D2E/DX2                !
 ! A25   A(8,9,10)             120.5288         estimate D2E/DX2                !
 ! A26   A(8,9,38)             120.5488         estimate D2E/DX2                !
 ! A27   A(10,9,38)            118.9224         estimate D2E/DX2                !
 ! A28   A(9,10,26)            120.9861         estimate D2E/DX2                !
 ! A29   A(9,10,39)            119.5109         estimate D2E/DX2                !
 ! A30   A(26,10,39)           119.503          estimate D2E/DX2                !
 ! A31   A(1,11,14)            121.8341         estimate D2E/DX2                !
 ! A32   A(1,11,16)            118.5032         estimate D2E/DX2                !
 ! A33   A(14,11,16)           119.6626         estimate D2E/DX2                !
 ! A34   A(13,12,15)           120.4152         estimate D2E/DX2                !
 ! A35   A(13,12,40)           120.6982         estimate D2E/DX2                !
 ! A36   A(15,12,40)           118.8866         estimate D2E/DX2                !
 ! A37   A(12,13,14)           120.8995         estimate D2E/DX2                !
 ! A38   A(12,13,41)           120.219          estimate D2E/DX2                !
 ! A39   A(14,13,41)           118.8816         estimate D2E/DX2                !
 ! A40   A(11,14,13)           120.3136         estimate D2E/DX2                !
 ! A41   A(11,14,42)           120.305          estimate D2E/DX2                !
 ! A42   A(13,14,42)           119.3814         estimate D2E/DX2                !
 ! A43   A(12,15,16)           118.8589         estimate D2E/DX2                !
 ! A44   A(12,15,18)           121.4925         estimate D2E/DX2                !
 ! A45   A(16,15,18)           119.6486         estimate D2E/DX2                !
 ! A46   A(11,16,15)           119.8502         estimate D2E/DX2                !
 ! A47   A(11,16,17)           120.3156         estimate D2E/DX2                !
 ! A48   A(15,16,17)           119.8343         estimate D2E/DX2                !
 ! A49   A(3,17,16)            120.1921         estimate D2E/DX2                !
 ! A50   A(3,17,20)            119.9147         estimate D2E/DX2                !
 ! A51   A(16,17,20)           119.8932         estimate D2E/DX2                !
 ! A52   A(15,18,19)           120.6924         estimate D2E/DX2                !
 ! A53   A(15,18,43)           119.1275         estimate D2E/DX2                !
 ! A54   A(19,18,43)           120.1801         estimate D2E/DX2                !
 ! A55   A(18,19,20)           119.9369         estimate D2E/DX2                !
 ! A56   A(18,19,22)           121.5994         estimate D2E/DX2                !
 ! A57   A(20,19,22)           118.4637         estimate D2E/DX2                !
 ! A58   A(17,20,19)           119.9947         estimate D2E/DX2                !
 ! A59   A(17,20,21)           120.2623         estimate D2E/DX2                !
 ! A60   A(19,20,21)           119.743          estimate D2E/DX2                !
 ! A61   A(5,21,20)            119.3092         estimate D2E/DX2                !
 ! A62   A(5,21,24)            120.3485         estimate D2E/DX2                !
 ! A63   A(20,21,24)           120.3423         estimate D2E/DX2                !
 ! A64   A(19,22,23)           121.8292         estimate D2E/DX2                !
 ! A65   A(19,22,44)           118.3206         estimate D2E/DX2                !
 ! A66   A(23,22,44)           119.8503         estimate D2E/DX2                !
 ! A67   A(22,23,24)           120.051          estimate D2E/DX2                !
 ! A68   A(22,23,27)           121.5347         estimate D2E/DX2                !
 ! A69   A(24,23,27)           118.4143         estimate D2E/DX2                !
 ! A70   A(21,24,23)           119.5708         estimate D2E/DX2                !
 ! A71   A(21,24,25)           119.7096         estimate D2E/DX2                !
 ! A72   A(23,24,25)           120.7196         estimate D2E/DX2                !
 ! A73   A(7,25,24)            119.619          estimate D2E/DX2                !
 ! A74   A(7,25,26)            119.4395         estimate D2E/DX2                !
 ! A75   A(24,25,26)           120.9416         estimate D2E/DX2                !
 ! A76   A(10,26,25)           119.4267         estimate D2E/DX2                !
 ! A77   A(10,26,28)           121.6311         estimate D2E/DX2                !
 ! A78   A(25,26,28)           118.9422         estimate D2E/DX2                !
 ! A79   A(23,27,28)           120.5297         estimate D2E/DX2                !
 ! A80   A(23,27,32)           120.3374         estimate D2E/DX2                !
 ! A81   A(28,27,32)           119.1329         estimate D2E/DX2                !
 ! A82   A(26,28,27)           120.4527         estimate D2E/DX2                !
 ! A83   A(26,28,29)           120.3129         estimate D2E/DX2                !
 ! A84   A(27,28,29)           119.2345         estimate D2E/DX2                !
 ! A85   A(28,29,30)           120.9267         estimate D2E/DX2                !
 ! A86   A(28,29,45)           118.7496         estimate D2E/DX2                !
 ! A87   A(30,29,45)           120.3237         estimate D2E/DX2                !
 ! A88   A(29,30,31)           119.8617         estimate D2E/DX2                !
 ! A89   A(29,30,46)           120.0779         estimate D2E/DX2                !
 ! A90   A(31,30,46)           120.0604         estimate D2E/DX2                !
 ! A91   A(30,31,32)           119.8826         estimate D2E/DX2                !
 ! A92   A(30,31,47)           120.0522         estimate D2E/DX2                !
 ! A93   A(32,31,47)           120.0652         estimate D2E/DX2                !
 ! A94   A(27,32,31)           120.9616         estimate D2E/DX2                !
 ! A95   A(27,32,48)           118.7932         estimate D2E/DX2                !
 ! A96   A(31,32,48)           120.2452         estimate D2E/DX2                !
 ! D1    D(11,1,2,3)             0.0            estimate D2E/DX2                !
 ! D2    D(11,1,2,34)          180.0            estimate D2E/DX2                !
 ! D3    D(33,1,2,3)           180.0            estimate D2E/DX2                !
 ! D4    D(33,1,2,34)            0.0            estimate D2E/DX2                !
 ! D5    D(2,1,11,14)          180.0            estimate D2E/DX2                !
 ! D6    D(2,1,11,16)            0.0            estimate D2E/DX2                !
 ! D7    D(33,1,11,14)           0.0            estimate D2E/DX2                !
 ! D8    D(33,1,11,16)         180.0            estimate D2E/DX2                !
 ! D9    D(1,2,3,4)            180.0            estimate D2E/DX2                !
 ! D10   D(1,2,3,17)             0.0            estimate D2E/DX2                !
 ! D11   D(34,2,3,4)             0.0            estimate D2E/DX2                !
 ! D12   D(34,2,3,17)          180.0            estimate D2E/DX2                !
 ! D13   D(2,3,4,5)            180.0            estimate D2E/DX2                !
 ! D14   D(2,3,4,35)             0.0            estimate D2E/DX2                !
 ! D15   D(17,3,4,5)             0.0            estimate D2E/DX2                !
 ! D16   D(17,3,4,35)          180.0            estimate D2E/DX2                !
 ! D17   D(2,3,17,16)            0.0            estimate D2E/DX2                !
 ! D18   D(2,3,17,20)          180.0            estimate D2E/DX2                !
 ! D19   D(4,3,17,16)          180.0            estimate D2E/DX2                !
 ! D20   D(4,3,17,20)            0.0            estimate D2E/DX2                !
 ! D21   D(3,4,5,6)            180.0            estimate D2E/DX2                !
 ! D22   D(3,4,5,21)             0.0            estimate D2E/DX2                !
 ! D23   D(35,4,5,6)             0.0            estimate D2E/DX2                !
 ! D24   D(35,4,5,21)          180.0            estimate D2E/DX2                !
 ! D25   D(4,5,6,7)            180.0            estimate D2E/DX2                !
 ! D26   D(4,5,6,36)             0.0            estimate D2E/DX2                !
 ! D27   D(21,5,6,7)             0.0            estimate D2E/DX2                !
 ! D28   D(21,5,6,36)          180.0            estimate D2E/DX2                !
 ! D29   D(4,5,21,20)            0.0            estimate D2E/DX2                !
 ! D30   D(4,5,21,24)          180.0            estimate D2E/DX2                !
 ! D31   D(6,5,21,20)          180.0            estimate D2E/DX2                !
 ! D32   D(6,5,21,24)            0.0            estimate D2E/DX2                !
 ! D33   D(5,6,7,8)            180.0            estimate D2E/DX2                !
 ! D34   D(5,6,7,25)             0.0            estimate D2E/DX2                !
 ! D35   D(36,6,7,8)             0.0            estimate D2E/DX2                !
 ! D36   D(36,6,7,25)          180.0            estimate D2E/DX2                !
 ! D37   D(6,7,8,9)            180.0            estimate D2E/DX2                !
 ! D38   D(6,7,8,37)             0.0            estimate D2E/DX2                !
 ! D39   D(25,7,8,9)             0.0            estimate D2E/DX2                !
 ! D40   D(25,7,8,37)          180.0            estimate D2E/DX2                !
 ! D41   D(6,7,25,24)            0.0            estimate D2E/DX2                !
 ! D42   D(6,7,25,26)          180.0            estimate D2E/DX2                !
 ! D43   D(8,7,25,24)          180.0            estimate D2E/DX2                !
 ! D44   D(8,7,25,26)            0.0            estimate D2E/DX2                !
 ! D45   D(7,8,9,10)             0.0            estimate D2E/DX2                !
 ! D46   D(7,8,9,38)           180.0            estimate D2E/DX2                !
 ! D47   D(37,8,9,10)          180.0            estimate D2E/DX2                !
 ! D48   D(37,8,9,38)            0.0            estimate D2E/DX2                !
 ! D49   D(8,9,10,26)            0.0            estimate D2E/DX2                !
 ! D50   D(8,9,10,39)          180.0            estimate D2E/DX2                !
 ! D51   D(38,9,10,26)         180.0            estimate D2E/DX2                !
 ! D52   D(38,9,10,39)           0.0            estimate D2E/DX2                !
 ! D53   D(9,10,26,25)           0.0            estimate D2E/DX2                !
 ! D54   D(9,10,26,28)         180.0            estimate D2E/DX2                !
 ! D55   D(39,10,26,25)        180.0            estimate D2E/DX2                !
 ! D56   D(39,10,26,28)          0.0            estimate D2E/DX2                !
 ! D57   D(1,11,14,13)         180.0            estimate D2E/DX2                !
 ! D58   D(1,11,14,42)           0.0            estimate D2E/DX2                !
 ! D59   D(16,11,14,13)          0.0            estimate D2E/DX2                !
 ! D60   D(16,11,14,42)        180.0            estimate D2E/DX2                !
 ! D61   D(1,11,16,15)         180.0            estimate D2E/DX2                !
 ! D62   D(1,11,16,17)           0.0            estimate D2E/DX2                !
 ! D63   D(14,11,16,15)          0.0            estimate D2E/DX2                !
 ! D64   D(14,11,16,17)        180.0            estimate D2E/DX2                !
 ! D65   D(15,12,13,14)          0.0            estimate D2E/DX2                !
 ! D66   D(15,12,13,41)        180.0            estimate D2E/DX2                !
 ! D67   D(40,12,13,14)        180.0            estimate D2E/DX2                !
 ! D68   D(40,12,13,41)          0.0            estimate D2E/DX2                !
 ! D69   D(13,12,15,16)          0.0            estimate D2E/DX2                !
 ! D70   D(13,12,15,18)        180.0            estimate D2E/DX2                !
 ! D71   D(40,12,15,16)        180.0            estimate D2E/DX2                !
 ! D72   D(40,12,15,18)          0.0            estimate D2E/DX2                !
 ! D73   D(12,13,14,11)          0.0            estimate D2E/DX2                !
 ! D74   D(12,13,14,42)        180.0            estimate D2E/DX2                !
 ! D75   D(41,13,14,11)        180.0            estimate D2E/DX2                !
 ! D76   D(41,13,14,42)          0.0            estimate D2E/DX2                !
 ! D77   D(12,15,16,11)          0.0            estimate D2E/DX2                !
 ! D78   D(12,15,16,17)        180.0            estimate D2E/DX2                !
 ! D79   D(18,15,16,11)        180.0            estimate D2E/DX2                !
 ! D80   D(18,15,16,17)          0.0            estimate D2E/DX2                !
 ! D81   D(12,15,18,19)        180.0            estimate D2E/DX2                !
 ! D82   D(12,15,18,43)          0.0            estimate D2E/DX2                !
 ! D83   D(16,15,18,19)          0.0            estimate D2E/DX2                !
 ! D84   D(16,15,18,43)        180.0            estimate D2E/DX2                !
 ! D85   D(11,16,17,3)           0.0            estimate D2E/DX2                !
 ! D86   D(11,16,17,20)        180.0            estimate D2E/DX2                !
 ! D87   D(15,16,17,3)         180.0            estimate D2E/DX2                !
 ! D88   D(15,16,17,20)          0.0            estimate D2E/DX2                !
 ! D89   D(3,17,20,19)         180.0            estimate D2E/DX2                !
 ! D90   D(3,17,20,21)           0.0            estimate D2E/DX2                !
 ! D91   D(16,17,20,19)          0.0            estimate D2E/DX2                !
 ! D92   D(16,17,20,21)        180.0            estimate D2E/DX2                !
 ! D93   D(15,18,19,20)          0.0            estimate D2E/DX2                !
 ! D94   D(15,18,19,22)        180.0            estimate D2E/DX2                !
 ! D95   D(43,18,19,20)        180.0            estimate D2E/DX2                !
 ! D96   D(43,18,19,22)          0.0            estimate D2E/DX2                !
 ! D97   D(18,19,20,17)          0.0            estimate D2E/DX2                !
 ! D98   D(18,19,20,21)        180.0            estimate D2E/DX2                !
 ! D99   D(22,19,20,17)        180.0            estimate D2E/DX2                !
 ! D100  D(22,19,20,21)          0.0            estimate D2E/DX2                !
 ! D101  D(18,19,22,23)        180.0            estimate D2E/DX2                !
 ! D102  D(18,19,22,44)          0.0            estimate D2E/DX2                !
 ! D103  D(20,19,22,23)          0.0            estimate D2E/DX2                !
 ! D104  D(20,19,22,44)        180.0            estimate D2E/DX2                !
 ! D105  D(17,20,21,5)           0.0            estimate D2E/DX2                !
 ! D106  D(17,20,21,24)        180.0            estimate D2E/DX2                !
 ! D107  D(19,20,21,5)         180.0            estimate D2E/DX2                !
 ! D108  D(19,20,21,24)          0.0            estimate D2E/DX2                !
 ! D109  D(5,21,24,23)         180.0            estimate D2E/DX2                !
 ! D110  D(5,21,24,25)           0.0            estimate D2E/DX2                !
 ! D111  D(20,21,24,23)          0.0            estimate D2E/DX2                !
 ! D112  D(20,21,24,25)        180.0            estimate D2E/DX2                !
 ! D113  D(19,22,23,24)          0.0            estimate D2E/DX2                !
 ! D114  D(19,22,23,27)        180.0            estimate D2E/DX2                !
 ! D115  D(44,22,23,24)        180.0            estimate D2E/DX2                !
 ! D116  D(44,22,23,27)          0.0            estimate D2E/DX2                !
 ! D117  D(22,23,24,21)          0.0            estimate D2E/DX2                !
 ! D118  D(22,23,24,25)        180.0            estimate D2E/DX2                !
 ! D119  D(27,23,24,21)        180.0            estimate D2E/DX2                !
 ! D120  D(27,23,24,25)          0.0            estimate D2E/DX2                !
 ! D121  D(22,23,27,28)        180.0            estimate D2E/DX2                !
 ! D122  D(22,23,27,32)          0.0            estimate D2E/DX2                !
 ! D123  D(24,23,27,28)          0.0            estimate D2E/DX2                !
 ! D124  D(24,23,27,32)        180.0            estimate D2E/DX2                !
 ! D125  D(21,24,25,7)           0.0            estimate D2E/DX2                !
 ! D126  D(21,24,25,26)        180.0            estimate D2E/DX2                !
 ! D127  D(23,24,25,7)         180.0            estimate D2E/DX2                !
 ! D128  D(23,24,25,26)          0.0            estimate D2E/DX2                !
 ! D129  D(7,25,26,10)           0.0            estimate D2E/DX2                !
 ! D130  D(7,25,26,28)         180.0            estimate D2E/DX2                !
 ! D131  D(24,25,26,10)        180.0            estimate D2E/DX2                !
 ! D132  D(24,25,26,28)          0.0            estimate D2E/DX2                !
 ! D133  D(10,26,28,27)        180.0            estimate D2E/DX2                !
 ! D134  D(10,26,28,29)          0.0            estimate D2E/DX2                !
 ! D135  D(25,26,28,27)          0.0            estimate D2E/DX2                !
 ! D136  D(25,26,28,29)        180.0            estimate D2E/DX2                !
 ! D137  D(23,27,28,26)          0.0            estimate D2E/DX2                !
 ! D138  D(23,27,28,29)        180.0            estimate D2E/DX2                !
 ! D139  D(32,27,28,26)        180.0            estimate D2E/DX2                !
 ! D140  D(32,27,28,29)          0.0            estimate D2E/DX2                !
 ! D141  D(23,27,32,31)        180.0            estimate D2E/DX2                !
 ! D142  D(23,27,32,48)          0.0            estimate D2E/DX2                !
 ! D143  D(28,27,32,31)          0.0            estimate D2E/DX2                !
 ! D144  D(28,27,32,48)        180.0            estimate D2E/DX2                !
 ! D145  D(26,28,29,30)        180.0            estimate D2E/DX2                !
 ! D146  D(26,28,29,45)          0.0            estimate D2E/DX2                !
 ! D147  D(27,28,29,30)          0.0            estimate D2E/DX2                !
 ! D148  D(27,28,29,45)        180.0            estimate D2E/DX2                !
 ! D149  D(28,29,30,31)          0.0            estimate D2E/DX2                !
 ! D150  D(28,29,30,46)        180.0            estimate D2E/DX2                !
 ! D151  D(45,29,30,31)        180.0            estimate D2E/DX2                !
 ! D152  D(45,29,30,46)          0.0            estimate D2E/DX2                !
 ! D153  D(29,30,31,32)          0.0            estimate D2E/DX2                !
 ! D154  D(29,30,31,47)        180.0            estimate D2E/DX2                !
 ! D155  D(46,30,31,32)        180.0            estimate D2E/DX2                !
 ! D156  D(46,30,31,47)          0.0            estimate D2E/DX2                !
 ! D157  D(30,31,32,27)          0.0            estimate D2E/DX2                !
 ! D158  D(30,31,32,48)        180.0            estimate D2E/DX2                !
 ! D159  D(47,31,32,27)        180.0            estimate D2E/DX2                !
 ! D160  D(47,31,32,48)          0.0            estimate D2E/DX2                !
 --------------------------------------------------------------------------------
 Trust Radius=3.00D-01 FncErr=1.00D-07 GrdErr=1.00D-06
 Number of steps in this run=    288 maximum allowed number of steps=    288.
 GradGradGradGradGradGradGradGradGradGradGradGradGradGradGradGradGradGrad

 Leave Link  103 at Sat Jul 27 14:01:33 2019, MaxMem=  4194304000 cpu:         0.1
 (Enter /home/minenky/programs//g09/l202.exe)
                          Input orientation:                          
 ---------------------------------------------------------------------
 Center     Atomic      Atomic             Coordinates (Angstroms)
 Number     Number       Type             X           Y           Z
 ---------------------------------------------------------------------
      1          6           0        5.083681    1.683011    0.000000
      2          6           0        4.008174    2.493304    0.000000
      3          6           0        2.657813    1.962332    0.000000
      4          6           0        1.562923    2.778222    0.000000
      5          6           0        0.232980    2.236344    0.000000
      6          6           0       -0.879422    3.062802    0.000000
      7          6           0       -2.180251    2.518968    0.000000
      8          6           0       -3.322166    3.368374    0.000000
      9          6           0       -4.580566    2.832989    0.000000
     10          6           0       -4.764291    1.433966    0.000000
     11          6           0        4.944527    0.239960    0.000000
     12          6           0        4.615110   -2.550988    0.000000
     13          6           0        5.869114   -1.996050    0.000000
     14          6           0        6.041595   -0.597058    0.000000
     15          6           0        3.461983   -1.721958    0.000000
     16          6           0        3.630815   -0.317549    0.000000
     17          6           0        2.494584    0.529039    0.000000
     18          6           0        2.158918   -2.269547    0.000000
     19          6           0        1.046347   -1.445868    0.000000
     20          6           0        1.209897   -0.027364    0.000000
     21          6           0        0.058670    0.818917    0.000000
     22          6           0       -0.286267   -1.981215    0.000000
     23          6           0       -1.386311   -1.173621    0.000000
     24          6           0       -1.229382    0.263190    0.000000
     25          6           0       -2.361012    1.114472    0.000000
     26          6           0       -3.685205    0.576619    0.000000
     27          6           0       -2.740448   -1.725714    0.000000
     28          6           0       -3.859101   -0.873863    0.000000
     29          6           0       -5.144983   -1.432350    0.000000
     30          6           0       -5.324581   -2.805732    0.000000
     31          6           0       -4.216207   -3.650454    0.000000
     32          6           0       -2.939362   -3.113577    0.000000
     33          1           0        6.100286    2.093164    0.000000
     34          1           0        4.122746    3.583565    0.000000
     35          1           0        1.678531    3.869216    0.000000
     36          1           0       -0.755143    4.152875    0.000000
     37          1           0       -3.173822    4.454198    0.000000
     38          1           0       -5.461929    3.482877    0.000000
     39          1           0       -5.784824    1.021034    0.000000
     40          1           0        4.484835   -3.639095    0.000000
     41          1           0        6.756180   -2.638418    0.000000
     42          1           0        7.055080   -0.180304    0.000000
     43          1           0        2.037904   -3.359767    0.000000
     44          1           0       -0.409776   -3.076472    0.000000
     45          1           0       -6.015272   -0.757917    0.000000
     46          1           0       -6.335089   -3.226936    0.000000
     47          1           0       -4.354554   -4.736455    0.000000
     48          1           0       -2.059504   -3.775383    0.000000
 ---------------------------------------------------------------------
                    Distance matrix (angstroms):
                    1          2          3          4          5
     1  C    0.000000
     2  C    1.346584   0.000000
     3  C    2.441896   1.451002   0.000000
     4  C    3.687170   2.461794   1.365453   0.000000
     5  C    4.882159   3.783929   2.440266   1.436099   0.000000
     6  C    6.120656   4.920663   3.704466   2.458869   1.385812
     7  C    7.311876   6.188478   4.869980   3.752141   2.429725
     8  C    8.573140   7.382387   6.143054   4.920608   3.731027
     9  C    9.732427   8.595455   7.290554   6.143733   4.850383
    10  C    9.851121   8.836195   7.440887   6.468436   5.061278
    11  C    1.449745   2.440147   2.862800   4.228241   5.117052
    12  C    4.259849   5.080674   4.919458   6.141361   6.490116
    13  C    3.761967   4.859774   5.097180   6.429382   7.048344
    14  C    2.473119   3.699343   4.242694   5.608121   6.462830
    15  C    3.771436   4.250502   3.771032   4.884470   5.108288
    16  C    2.472461   2.836070   2.478828   3.722898   4.250605
    17  C    2.834622   2.479777   1.442558   2.434505   2.833679
    18  C    4.917007   5.109256   4.261184   5.082832   4.900233
    19  C    5.107833   4.928438   3.769967   4.255560   3.770975
    20  C    4.234570   3.766181   2.460762   2.827709   2.465510
    21  C    5.098764   4.289773   2.839532   2.470152   1.428104
    22  C    6.500993   6.201899   4.921298   5.106050   4.249402
    23  C    7.072563   6.522791   5.117532   4.931029   3.774912
    24  C    6.470754   5.692574   4.242330   3.757971   2.455980
    25  C    7.466371   6.516726   5.089938   4.262081   2.826198
    26  C    8.838408   7.928541   6.492617   5.691212   4.255215
    27  C    8.534425   7.958895   6.537806   6.229321   4.953703
    28  C    9.301127   8.557560   7.107332   6.537283   5.139895
    29  C   10.692569   9.959470   8.509259   7.919906   6.510130
    30  C   11.334934  10.732199   9.298013   8.866693   7.503933
    31  C   10.720717  10.265778   8.874430   8.644433   7.379001
    32  C    9.347539   8.927787   7.556006   7.415111   6.219760
    33  H    1.096225   2.130033   3.444958   4.588787   5.869052
    34  H    2.129671   1.096264   2.185046   2.683518   4.116465
    35  H    4.046546   2.705618   2.143642   1.097102   2.180800
    36  H    6.339724   5.044142   4.055459   2.695014   2.156265
    37  H    8.710100   7.444876   6.341717   5.024505   4.065118
    38  H   10.698103   9.521665   8.260888   7.060105   5.829737
    39  H   10.888646   9.903050   8.494949   7.554939   6.139295
    40  H    5.355692   6.150896   5.891858   7.051207   7.252520
    41  H    4.633789   5.821177   6.161453   7.503992   8.143429
    42  H    2.712629   4.053618   4.891507   6.238322   7.237488
    43  H    5.891211   6.175792   5.358080   6.156339   5.879983
    44  H    7.268477   7.109198   5.899123   6.178106   5.351556
    45  H   11.364193  10.537548   9.089673   8.362614   6.928654
    46  H   12.429638  11.819655  10.382716   9.921720   8.543241
    47  H   11.414457  11.054620   9.697784   9.564878   8.346579
    48  H    8.989948   8.724285   7.427950   7.488105   6.433999
                    6          7          8          9         10
     6  C    0.000000
     7  C    1.409933   0.000000
     8  C    2.461782   1.423187   0.000000
     9  C    3.708272   2.420769   1.367555   0.000000
    10  C    4.212518   2.802586   2.412811   1.411035   0.000000
    11  C    6.472003   7.480397   8.838846   9.871738   9.781963
    12  C    7.855223   8.478289   9.901475  10.655875  10.190830
    13  C    8.434141   9.229174  10.642212  11.511535  11.172928
    14  C    7.829116   8.792518  10.168809  11.162237  10.995101
    15  C    6.460784   7.058346   8.481519   9.242842   8.810870
    16  C    5.636401   6.466399   7.869560   8.795036   8.575873
    17  C    4.219464   5.080738   6.472743   7.440829   7.315064
    18  C    6.137219   6.462063   7.863106   8.453196   7.851550
    19  C    4.902723   5.111835   6.500834   7.069000   6.485134
    20  C    3.730199   4.239919   5.663095   6.458412   6.150318
    21  C    2.432085   2.811217   4.234358   5.057568   4.862020
    22  C    5.078774   4.882501   6.150999   6.451168   5.631710
    23  C    4.266640   3.776976   4.937333   5.124079   4.267348
    24  C    2.821400   2.447996   3.744585   4.223068   3.723748
    25  C    2.447672   1.416080   2.450284   2.807084   2.424423
    26  C    3.748802   2.457153   2.815260   2.427525   1.378213
    27  C    5.137441   4.281488   5.127195   4.916076   3.752268
    28  C    4.937187   3.785477   4.276082   3.776408   2.479001
    29  C    6.196886   4.939893   5.135135   4.302520   2.891486
    30  C    7.362005   6.183788   6.490705   5.687594   4.276560
    31  C    7.496795   6.496682   7.075539   6.493673   5.113875
    32  C    6.510838   5.683468   6.493245   6.168890   4.900053
    33  H    7.046738   8.291477   9.508352  10.706444  10.884556
    34  H    5.029203   6.392272   7.448022   8.735617   9.143314
    35  H    2.682057   4.088199   5.025716   6.344294   6.887699
    36  H    1.097134   2.168083   2.684222   4.046722   4.844144
    37  H    2.683329   2.175385   1.095910   2.146450   3.413413
    38  H    4.601720   3.420311   2.142824   1.095059   2.164425
    39  H    5.313359   3.903428   3.402160   2.175642   1.100909
    40  H    8.584328   9.074421  10.490658  11.138643  10.549042
    41  H    9.529236  10.317869  11.732630  12.588014  12.219066
    42  H    8.571702   9.621716  10.967241  12.019493  11.929099
    43  H    7.054090   7.235493   8.602223   9.063905   8.321643
    44  H    6.157212   5.868861   7.072345   7.233064   6.269438
    45  H    6.401160   5.044339   4.927382   3.866909   2.523748
    46  H    8.326170   7.090705   7.250919   6.308807   4.918478
    47  H    8.538439   7.574216   8.170317   7.572817   6.184010
    48  H    6.939263   6.295508   7.254487   7.072929   5.869684
                   11         12         13         14         15
    11  C    0.000000
    12  C    2.810321   0.000000
    13  C    2.419628   1.371307   0.000000
    14  C    1.379912   2.419236   1.409585   0.000000
    15  C    2.459077   1.420208   2.422686   2.814214   0.000000
    16  C    1.427115   2.440714   2.797740   2.426930   1.414521
    17  C    2.466940   3.739411   4.214680   3.721476   2.450071
    18  C    3.749299   2.472263   3.720262   4.227576   1.413446
    19  C    4.247096   3.735955   4.854048   5.066852   2.431362
    20  C    3.744185   4.238414   5.058065   4.865168   2.818428
    21  C    4.920040   5.667222   6.456415   6.148201   4.247186
    22  C    5.682854   4.934383   6.155399   6.477479   3.757205
    23  C    6.486734   6.157450   7.301888   7.450249   4.879203
    24  C    6.173953   6.486731   7.449349   7.321689   5.094086
    25  C    7.357695   7.880474   8.798314   8.575147   6.477083
    26  C    8.636296   8.870014   9.894626   9.797354   7.507712
    27  C    7.932384   7.401710   8.613805   8.854273   6.202432
    28  C    8.873809   8.638576   9.792726   9.904565   7.370043
    29  C   10.227161   9.823989  11.028512  11.217720   8.611836
    30  C   10.711247   9.942954  11.222940  11.578782   8.853150
    31  C    9.952606   8.899493  10.220115  10.702604   7.916672
    32  C    8.567492   7.575391   8.879083   9.326868   6.550864
    33  H    2.184066   4.875848   4.095744   2.690862   4.638513
    34  H    3.443112   6.154280   5.846529   4.599955   5.346511
    35  H    4.882441   7.059923   7.208490   6.243711   5.868724
    36  H    6.913548   8.589610   9.038255   8.292015   7.231723
    37  H    9.146989  10.475690  11.107673  10.509001   9.065253
    38  H   10.900039  11.745392  12.586150  12.205611  10.330852
    39  H   10.757744  10.996270  12.038150  11.936600   9.645073
    40  H    3.906198   1.095878   2.148447   3.417234   2.172933
    41  H    3.401050   2.142855   1.095227   2.162818   3.419303
    42  H    2.151989   3.401999   2.168744   1.095826   3.909866
    43  H    4.626715   2.701132   4.066680   4.864371   2.170349
    44  H    6.298197   5.052288   6.371167   6.911417   4.101856
    45  H   11.005133  10.780544  11.948707  12.057940   9.526160
    46  H   11.800386  10.971042  12.266118  12.653007   9.911992
    47  H   10.546924   9.232070  10.584573  11.189929   8.377674
    48  H    8.073378   6.785986   8.125823   8.702273   5.890956
                   16         17         18         19         20
    16  C    0.000000
    17  C    1.416944   0.000000
    18  C    2.444744   2.818644   0.000000
    19  C    2.820032   2.449010   1.384291   0.000000
    20  C    2.438247   1.400001   2.434753   1.427902   0.000000
    21  C    3.748569   2.453101   3.734923   2.470781   1.428816
    22  C    4.255739   3.746266   2.462126   1.436126   2.460903
    23  C    5.089637   4.237970   3.710755   2.447844   2.837993
    24  C    4.894769   3.733443   4.230288   2.846019   2.456523
    25  C    6.160574   4.890761   5.646358   4.262093   3.749024
    26  C    7.370460   6.179971   6.500341   5.145681   4.932222
    27  C    6.525022   5.699953   4.929457   3.797121   4.299956
    28  C    7.510548   6.506723   6.177742   4.938685   5.139193
    29  C    8.846321   7.887333   7.351725   6.191344   6.508339
    30  C    9.294630   8.500589   7.502683   6.514441   7.100615
    31  C    8.525491   7.905876   6.522969   5.705670   6.524522
    32  C    7.140378   6.541897   5.167673   4.320547   5.171176
    33  H    3.451062   3.930341   5.879424   6.169850   5.330341
    34  H    3.932008   3.461364   6.173778   5.895713   4.639342
    35  H    4.619568   3.438419   6.157530   5.352549   3.924659
    36  H    6.262692   4.867537   7.052606   5.881436   4.619067
    37  H    8.310996   6.894759   8.581775   7.254006   6.269082
    38  H    9.855010   8.487123   9.548177   8.163956   7.538903
    39  H    9.510313   8.294013   8.598312   7.262954   7.072854
    40  H    3.429580   4.618922   2.699176   4.078412   4.875430
    41  H    3.892858   5.309801   4.612037   5.833041   6.130159
    42  H    3.427015   4.615333   5.323283   6.140564   5.847183
    43  H    3.434014   3.915529   1.096916   2.155503   3.433730
    44  H    4.892651   4.629797   2.692456   2.186130   3.452594
    45  H    9.656133   8.606619   8.312786   7.095050   7.262009
    46  H   10.381897   9.595336   8.547792   7.593273   8.195370
    47  H    9.126491   8.639219   6.964980   6.324372   7.289626
    48  H    6.658554   6.266399   4.479132   3.882389   4.973593
                   21         22         23         24         25
    21  C    0.000000
    22  C    2.821298   0.000000
    23  C    2.461337   1.364663   0.000000
    24  C    1.402822   2.434506   1.445356   0.000000
    25  C    2.437666   3.726640   2.487049   1.416075   0.000000
    26  C    3.751707   4.253856   2.889335   2.475743   1.429255
    27  C    3.782884   2.467445   1.462359   2.497811   2.865419
    28  C    4.267837   3.740504   2.490893   2.865016   2.489527
    29  C    5.669762   4.889618   3.767566   4.266941   3.773167
    30  C    6.489797   5.105333   4.263069   5.117513   4.914340
    31  C    6.184646   4.269752   3.760720   4.923183   5.113342
    32  C    4.944968   2.884641   2.485035   3.785048   4.267422
    33  H    6.174530   7.575528   8.168293   7.554656   8.517711
    34  H    4.915281   7.099731   7.278772   6.298425   6.937978
    35  H    3.453733   6.171546   5.901141   4.632427   4.889430
    36  H    3.431846   6.151984   5.363761   3.918488   3.436671
    37  H    4.864594   7.053546   5.904874   4.620107   3.437212
    38  H    6.129738   7.526206   6.188185   5.317973   3.901926
    39  H    5.846988   6.264793   4.915631   4.618050   3.425087
    40  H    6.282102   5.050939   6.367803   6.919545   8.334388
    41  H    7.537228   7.073046   8.273197   8.496383   9.859380
    42  H    7.067404   7.559012   8.499633   8.296324   9.504696
    43  H    4.623718   2.702254   4.062571   4.878624   6.274494
    44  H    3.923455   1.102199   2.138799   3.438764   4.622914
    45  H    6.275283   5.858153   4.647590   4.893609   4.106027
    46  H    7.566313   6.175765   5.357846   6.184596   5.885670
    47  H    7.094977   4.913481   4.637267   5.896028   6.181226
    48  H    5.059076   2.522579   2.687444   4.123006   4.899142
                   26         27         28         29         30
    26  C    0.000000
    27  C    2.488635   0.000000
    28  C    1.460869   1.406071   0.000000
    29  C    2.483326   2.422364   1.401927   0.000000
    30  C    3.758704   2.800746   2.424819   1.385075   0.000000
    31  C    4.260295   2.425384   2.799461   2.404706   1.393573
    32  C    3.764815   1.402046   2.421207   2.773317   2.405003
    33  H    9.902309   9.630286  10.391951  11.784961  12.430879
    34  H    8.366948   8.677089   9.142130  10.538035  11.405047
    35  H    6.293715   7.129559   7.291239   8.641003   9.674632
    36  H    4.623295   6.204775   5.907846   7.103902   8.324780
    37  H    3.911154   6.195088   5.371949   6.207811   7.571812
    38  H    3.406330   5.876723   4.642224   4.925435   6.290109
    39  H    2.146138   4.100347   2.701674   2.535446   3.854343
    40  H    9.193574   7.474339   8.790210   9.879429   9.844752
    41  H   10.925153   9.540386  10.760941  11.962118  12.081919
    42  H   10.766924   9.916686  10.936196  12.264141  12.654994
    43  H    6.946158   5.050028   6.399562   7.436989   7.383301
    44  H    4.906476   2.693804   4.092595   5.012516   4.922256
    45  H    2.685182   3.414836   2.159286   1.101028   2.161157
    46  H    4.635615   3.895525   3.415768   2.153345   1.094779
    47  H    5.355071   3.416123   3.894238   3.397335   2.160705
    48  H    4.645732   2.159821   3.414289   3.874272   3.406017
                   31         32         33         34         35
    31  C    0.000000
    32  C    1.385125   0.000000
    33  H   11.807590  10.431941   0.000000
    34  H   11.039437   9.732681   2.476279   0.000000
    35  H    9.554756   8.371639   4.765110   2.460850   0.000000
    36  H    8.536445   7.587630   7.158164   4.911000   2.450150
    37  H    8.171410   7.571406   9.569930   7.348327   4.887488
    38  H    7.241287   7.062334  11.645433   9.585203   7.150904
    39  H    4.927814   5.019130  11.933369  10.233597   7.988355
    40  H    8.701050   7.442773   5.955542   7.231730   8.015614
    41  H   11.018961   9.707178   4.776826   6.756333   8.254199
    42  H   11.793382  10.415996   2.465825   4.771299   6.730965
    43  H    6.260863   4.983351   6.799809   7.249581   7.237910
    44  H    3.849464   2.529858   8.313005   8.056045   7.252835
    45  H    3.406377   3.874321  12.446502  11.028503   8.978027
    46  H    2.160793   3.397619  13.525606  12.479954  10.703901
    47  H    1.094778   2.153253  12.487888  11.878019  10.509790
    48  H    2.160319   1.100971  10.050971   9.611156   8.509571
                   36         37         38         39         40
    36  H    0.000000
    37  H    2.437376   0.000000
    38  H    4.754232   2.485738   0.000000
    39  H    5.925041   4.313229   2.482929   0.000000
    40  H    9.390003  11.142550  12.233585  11.277531   0.000000
    41  H   10.126284  12.202874  13.665739  13.064010   2.482008
    42  H    8.931743  11.229829  13.042025  12.895982   4.309222
    43  H    8.015042   9.392558  10.152304   8.965851   2.462823
    44  H    7.237592   8.021904   8.279451   6.758750   4.926841
    45  H    7.196167   5.936326   4.276742   1.793815  10.888225
    46  H    9.251887   8.306228   6.766388   4.283462  10.827772
    47  H    9.590408   9.266187   8.293594   5.932482   8.907244
    48  H    8.034838   8.304679   8.016161   6.073189   6.545758
                   41         42         43         44         45
    41  H    0.000000
    42  H    2.476219   0.000000
    43  H    4.773099   5.939785   0.000000
    44  H    7.179333   8.006989   2.464020   0.000000
    45  H   12.909155  13.083109   8.463053   6.066076   0.000000
    46  H   13.104491  13.732393   8.374047   5.927223   2.489647
    47  H   11.307084  12.285693   6.539020   4.279814   4.311236
    48  H    8.888699   9.797971   4.118433   1.791669   4.975259
                   46         47         48
    46  H    0.000000
    47  H    2.490214   0.000000
    48  H    4.310618   2.488154   0.000000
 Stoichiometry    C32H16
 Framework group  CS[SG(C32H16)]
 Deg. of freedom    93
 Full point group                 CS      NOp   2
 Largest Abelian subgroup         CS      NOp   2
 Largest concise Abelian subgroup C1      NOp   1
                         Standard orientation:                         
 ---------------------------------------------------------------------
 Center     Atomic      Atomic             Coordinates (Angstroms)
 Number     Number       Type             X           Y           Z
 ---------------------------------------------------------------------
      1          6           0        4.943610    2.076138    0.000000
      2          6           0        3.808934    2.801259    0.000000
      3          6           0        2.503440    2.167940    0.000000
      4          6           0        1.349008    2.897151    0.000000
      5          6           0        0.064712    2.254530    0.000000
      6          6           0       -1.107995    2.992930    0.000000
      7          6           0       -2.363113    2.350599    0.000000
      8          6           0       -3.567010    3.109607    0.000000
      9          6           0       -4.780476    2.478966    0.000000
     10          6           0       -4.855991    1.069954    0.000000
     11          6           0        4.915923    0.626657    0.000000
     12          6           0        4.802267   -2.181365    0.000000
     13          6           0        6.009846   -1.531568    0.000000
     14          6           0        6.074152   -0.123451    0.000000
     15          6           0        3.588760   -1.443536    0.000000
     16          6           0        3.649011   -0.030299    0.000000
     17          6           0        2.450998    0.726336    0.000000
     18          6           0        2.331701   -2.089782    0.000000
     19          6           0        1.159040   -1.354167    0.000000
     20          6           0        1.212941    0.072717    0.000000
     21          6           0        0.000000    0.827893    0.000000
     22          6           0       -0.128422   -1.990481    0.000000
     23          6           0       -1.287354   -1.269939    0.000000
     24          6           0       -1.241464    0.174688    0.000000
     25          6           0       -2.435251    0.936358    0.000000
     26          6           0       -3.714125    0.298193    0.000000
     27          6           0       -2.594988   -1.924605    0.000000
     28          6           0       -3.775880   -1.161370    0.000000
     29          6           0       -5.014968   -1.817159    0.000000
     30          6           0       -5.088341   -3.200290    0.000000
     31          6           0       -3.918247   -3.957208    0.000000
     32          6           0       -2.686505   -3.323661    0.000000
     33          1           0        5.925635    2.563310    0.000000
     34          1           0        3.839262    3.897103    0.000000
     35          1           0        1.380313    3.993806    0.000000
     36          1           0       -1.067974    4.089334    0.000000
     37          1           0       -3.502669    4.203627    0.000000
     38          1           0       -5.709239    3.059100    0.000000
     39          1           0       -5.841719    0.579708    0.000000
     40          1           0        4.756117   -3.276271    0.000000
     41          1           0        6.943716   -2.103764    0.000000
     42          1           0        7.052559    0.370063    0.000000
     43          1           0        2.294946   -3.186082    0.000000
     44          1           0       -0.167277   -3.091995    0.000000
     45          1           0       -5.934579   -1.211702    0.000000
     46          1           0       -6.063438   -3.698012    0.000000
     47          1           0       -3.972607   -5.050636    0.000000
     48          1           0       -1.758325   -3.915792    0.000000
 ---------------------------------------------------------------------
 Rotational constants (GHZ):      0.2947350      0.0996075      0.0744475
 Leave Link  202 at Sat Jul 27 14:01:33 2019, MaxMem=  4194304000 cpu:         0.2
 (Enter /home/minenky/programs//g09/l301.exe)
 Standard basis: def2TZVP (5D, 7F)
 ======================================================================================================
                                       Pseudopotential Parameters
 ======================================================================================================
  Center     Atomic      Valence      Angular      Power
  Number     Number     Electrons     Momentum     of R      Exponent        Coefficient   SO-Coeffient
 ======================================================================================================
    1          6
                                   No pseudopotential on this center.
    2          6
                                   No pseudopotential on this center.
    3          6
                                   No pseudopotential on this center.
    4          6
                                   No pseudopotential on this center.
    5          6
                                   No pseudopotential on this center.
    6          6
                                   No pseudopotential on this center.
    7          6
                                   No pseudopotential on this center.
    8          6
                                   No pseudopotential on this center.
    9          6
                                   No pseudopotential on this center.
   10          6
                                   No pseudopotential on this center.
   11          6
                                   No pseudopotential on this center.
   12          6
                                   No pseudopotential on this center.
   13          6
                                   No pseudopotential on this center.
   14          6
                                   No pseudopotential on this center.
   15          6
                                   No pseudopotential on this center.
   16          6
                                   No pseudopotential on this center.
   17          6
                                   No pseudopotential on this center.
   18          6
                                   No pseudopotential on this center.
   19          6
                                   No pseudopotential on this center.
   20          6
                                   No pseudopotential on this center.
   21          6
                                   No pseudopotential on this center.
   22          6
                                   No pseudopotential on this center.
   23          6
                                   No pseudopotential on this center.
   24          6
                                   No pseudopotential on this center.
   25          6
                                   No pseudopotential on this center.
   26          6
                                   No pseudopotential on this center.
   27          6
                                   No pseudopotential on this center.
   28          6
                                   No pseudopotential on this center.
   29          6
                                   No pseudopotential on this center.
   30          6
                                   No pseudopotential on this center.
   31          6
                                   No pseudopotential on this center.
   32          6
                                   No pseudopotential on this center.
   33          1
                                   No pseudopotential on this center.
   34          1
                                   No pseudopotential on this center.
   35          1
                                   No pseudopotential on this center.
   36          1
                                   No pseudopotential on this center.
   37          1
                                   No pseudopotential on this center.
   38          1
                                   No pseudopotential on this center.
   39          1
                                   No pseudopotential on this center.
   40          1
                                   No pseudopotential on this center.
   41          1
                                   No pseudopotential on this center.
   42          1
                                   No pseudopotential on this center.
   43          1
                                   No pseudopotential on this center.
   44          1
                                   No pseudopotential on this center.
   45          1
                                   No pseudopotential on this center.
   46          1
                                   No pseudopotential on this center.
   47          1
                                   No pseudopotential on this center.
   48          1
                                   No pseudopotential on this center.
 ======================================================================================================
 Ernie: Thresh=  0.10000D-02 Tol=  0.10000D-05 Strict=F.
 AO basis set (Overlap normalization):
 Atom C1       Shell     1 S   6     bf    1 -     1          9.342069308805          3.923331710713          0.000000000000
      0.1357534968D+05  0.6064550360D-03
      0.2035233368D+04  0.4697908888D-02
      0.4632256236D+03  0.2433247765D-01
      0.1312001960D+03  0.9739996831D-01
      0.4285301589D+02  0.3019558425D+00
      0.1558418577D+02  0.6623360914D+00
 Atom C1       Shell     2 S   2     bf    2 -     2          9.342069308805          3.923331710713          0.000000000000
      0.6206713851D+01  0.6559530854D+00
      0.2576489653D+01  0.3758563329D+00
 Atom C1       Shell     3 S   1     bf    3 -     3          9.342069308805          3.923331710713          0.000000000000
      0.5769633942D+00  0.1000000000D+01
 Atom C1       Shell     4 S   1     bf    4 -     4          9.342069308805          3.923331710713          0.000000000000
      0.2297283136D+00  0.1000000000D+01
 Atom C1       Shell     5 S   1     bf    5 -     5          9.342069308805          3.923331710713          0.000000000000
      0.9516444003D-01  0.1000000000D+01
 Atom C1       Shell     6 P   4     bf    6 -     8          9.342069308805          3.923331710713          0.000000000000
      0.3469723224D+02  0.1132722000D-01
      0.7958262283D+01  0.7616965920D-01
      0.2378082688D+01  0.3019225220D+00
      0.8143320818D+00  0.7278502735D+00
 Atom C1       Shell     7 P   1     bf    9 -    11          9.342069308805          3.923331710713          0.000000000000
      0.2888754725D+00  0.1000000000D+01
 Atom C1       Shell     8 P   1     bf   12 -    14          9.342069308805          3.923331710713          0.000000000000
      0.1005682367D+00  0.1000000000D+01
 Atom C1       Shell     9 D   1     bf   15 -    19          9.342069308805          3.923331710713          0.000000000000
      0.1097000000D+01  0.1000000000D+01
 Atom C1       Shell    10 D   1     bf   20 -    24          9.342069308805          3.923331710713          0.000000000000
      0.3180000000D+00  0.1000000000D+01
 Atom C1       Shell    11 F   1     bf   25 -    31          9.342069308805          3.923331710713          0.000000000000
      0.7610000000D+00  0.1000000000D+01
 Atom C2       Shell    12 S   6     bf   32 -    32          7.197842772630          5.293611956995          0.000000000000
      0.1357534968D+05  0.6064550360D-03
      0.2035233368D+04  0.4697908888D-02
      0.4632256236D+03  0.2433247765D-01
      0.1312001960D+03  0.9739996831D-01
      0.4285301589D+02  0.3019558425D+00
      0.1558418577D+02  0.6623360914D+00
 Atom C2       Shell    13 S   2     bf   33 -    33          7.197842772630          5.293611956995          0.000000000000
      0.6206713851D+01  0.6559530854D+00
      0.2576489653D+01  0.3758563329D+00
 Atom C2       Shell    14 S   1     bf   34 -    34          7.197842772630          5.293611956995          0.000000000000
      0.5769633942D+00  0.1000000000D+01
 Atom C2       Shell    15 S   1     bf   35 -    35          7.197842772630          5.293611956995          0.000000000000
      0.2297283136D+00  0.1000000000D+01
 Atom C2       Shell    16 S   1     bf   36 -    36          7.197842772630          5.293611956995          0.000000000000
      0.9516444003D-01  0.1000000000D+01
 Atom C2       Shell    17 P   4     bf   37 -    39          7.197842772630          5.293611956995          0.000000000000
      0.3469723224D+02  0.1132722000D-01
      0.7958262283D+01  0.7616965920D-01
      0.2378082688D+01  0.3019225220D+00
      0.8143320818D+00  0.7278502735D+00
 Atom C2       Shell    18 P   1     bf   40 -    42          7.197842772630          5.293611956995          0.000000000000
      0.2888754725D+00  0.1000000000D+01
 Atom C2       Shell    19 P   1     bf   43 -    45          7.197842772630          5.293611956995          0.000000000000
      0.1005682367D+00  0.1000000000D+01
 Atom C2       Shell    20 D   1     bf   46 -    50          7.197842772630          5.293611956995          0.000000000000
      0.1097000000D+01  0.1000000000D+01
 Atom C2       Shell    21 D   1     bf   51 -    55          7.197842772630          5.293611956995          0.000000000000
      0.3180000000D+00  0.1000000000D+01
 Atom C2       Shell    22 F   1     bf   56 -    62          7.197842772630          5.293611956995          0.000000000000
      0.7610000000D+00  0.1000000000D+01
 Atom C3       Shell    23 S   6     bf   63 -    63          4.730816928846          4.096813462058          0.000000000000
      0.1357534968D+05  0.6064550360D-03
      0.2035233368D+04  0.4697908888D-02
      0.4632256236D+03  0.2433247765D-01
      0.1312001960D+03  0.9739996831D-01
      0.4285301589D+02  0.3019558425D+00
      0.1558418577D+02  0.6623360914D+00
 Atom C3       Shell    24 S   2     bf   64 -    64          4.730816928846          4.096813462058          0.000000000000
      0.6206713851D+01  0.6559530854D+00
      0.2576489653D+01  0.3758563329D+00
 Atom C3       Shell    25 S   1     bf   65 -    65          4.730816928846          4.096813462058          0.000000000000
      0.5769633942D+00  0.1000000000D+01
 Atom C3       Shell    26 S   1     bf   66 -    66          4.730816928846          4.096813462058          0.000000000000
      0.2297283136D+00  0.1000000000D+01
 Atom C3       Shell    27 S   1     bf   67 -    67          4.730816928846          4.096813462058          0.000000000000
      0.9516444003D-01  0.1000000000D+01
 Atom C3       Shell    28 P   4     bf   68 -    70          4.730816928846          4.096813462058          0.000000000000
      0.3469723224D+02  0.1132722000D-01
      0.7958262283D+01  0.7616965920D-01
      0.2378082688D+01  0.3019225220D+00
      0.8143320818D+00  0.7278502735D+00
 Atom C3       Shell    29 P   1     bf   71 -    73          4.730816928846          4.096813462058          0.000000000000
      0.2888754725D+00  0.1000000000D+01
 Atom C3       Shell    30 P   1     bf   74 -    76          4.730816928846          4.096813462058          0.000000000000
      0.1005682367D+00  0.1000000000D+01
 Atom C3       Shell    31 D   1     bf   77 -    81          4.730816928846          4.096813462058          0.000000000000
      0.1097000000D+01  0.1000000000D+01
 Atom C3       Shell    32 D   1     bf   82 -    86          4.730816928846          4.096813462058          0.000000000000
      0.3180000000D+00  0.1000000000D+01
 Atom C3       Shell    33 F   1     bf   87 -    93          4.730816928846          4.096813462058          0.000000000000
      0.7610000000D+00  0.1000000000D+01
 Atom C4       Shell    34 S   6     bf   94 -    94          2.549256272333          5.474821251558          0.000000000000
      0.1357534968D+05  0.6064550360D-03
      0.2035233368D+04  0.4697908888D-02
      0.4632256236D+03  0.2433247765D-01
      0.1312001960D+03  0.9739996831D-01
      0.4285301589D+02  0.3019558425D+00
      0.1558418577D+02  0.6623360914D+00
 Atom C4       Shell    35 S   2     bf   95 -    95          2.549256272333          5.474821251558          0.000000000000
      0.6206713851D+01  0.6559530854D+00
      0.2576489653D+01  0.3758563329D+00
 Atom C4       Shell    36 S   1     bf   96 -    96          2.549256272333          5.474821251558          0.000000000000
      0.5769633942D+00  0.1000000000D+01
 Atom C4       Shell    37 S   1     bf   97 -    97          2.549256272333          5.474821251558          0.000000000000
      0.2297283136D+00  0.1000000000D+01
 Atom C4       Shell    38 S   1     bf   98 -    98          2.549256272333          5.474821251558          0.000000000000
      0.9516444003D-01  0.1000000000D+01
 Atom C4       Shell    39 P   4     bf   99 -   101          2.549256272333          5.474821251558          0.000000000000
      0.3469723224D+02  0.1132722000D-01
      0.7958262283D+01  0.7616965920D-01
      0.2378082688D+01  0.3019225220D+00
      0.8143320818D+00  0.7278502735D+00
 Atom C4       Shell    40 P   1     bf  102 -   104          2.549256272333          5.474821251558          0.000000000000
      0.2888754725D+00  0.1000000000D+01
 Atom C4       Shell    41 P   1     bf  105 -   107          2.549256272333          5.474821251558          0.000000000000
      0.1005682367D+00  0.1000000000D+01
 Atom C4       Shell    42 D   1     bf  108 -   112          2.549256272333          5.474821251558          0.000000000000
      0.1097000000D+01  0.1000000000D+01
 Atom C4       Shell    43 D   1     bf  113 -   117          2.549256272333          5.474821251558          0.000000000000
      0.3180000000D+00  0.1000000000D+01
 Atom C4       Shell    44 F   1     bf  118 -   124          2.549256272333          5.474821251558          0.000000000000
      0.7610000000D+00  0.1000000000D+01
 Atom C5       Shell    45 S   6     bf  125 -   125          0.122287197737          4.260444244329          0.000000000000
      0.1357534968D+05  0.6064550360D-03
      0.2035233368D+04  0.4697908888D-02
      0.4632256236D+03  0.2433247765D-01
      0.1312001960D+03  0.9739996831D-01
      0.4285301589D+02  0.3019558425D+00
      0.1558418577D+02  0.6623360914D+00
 Atom C5       Shell    46 S   2     bf  126 -   126          0.122287197737          4.260444244329          0.000000000000
      0.6206713851D+01  0.6559530854D+00
      0.2576489653D+01  0.3758563329D+00
 Atom C5       Shell    47 S   1     bf  127 -   127          0.122287197737          4.260444244329          0.000000000000
      0.5769633942D+00  0.1000000000D+01
 Atom C5       Shell    48 S   1     bf  128 -   128          0.122287197737          4.260444244329          0.000000000000
      0.2297283136D+00  0.1000000000D+01
 Atom C5       Shell    49 S   1     bf  129 -   129          0.122287197737          4.260444244329          0.000000000000
      0.9516444003D-01  0.1000000000D+01
 Atom C5       Shell    50 P   4     bf  130 -   132          0.122287197737          4.260444244329          0.000000000000
      0.3469723224D+02  0.1132722000D-01
      0.7958262283D+01  0.7616965920D-01
      0.2378082688D+01  0.3019225220D+00
      0.8143320818D+00  0.7278502735D+00
 Atom C5       Shell    51 P   1     bf  133 -   135          0.122287197737          4.260444244329          0.000000000000
      0.2888754725D+00  0.1000000000D+01
 Atom C5       Shell    52 P   1     bf  136 -   138          0.122287197737          4.260444244329          0.000000000000
      0.1005682367D+00  0.1000000000D+01
 Atom C5       Shell    53 D   1     bf  139 -   143          0.122287197737          4.260444244329          0.000000000000
      0.1097000000D+01  0.1000000000D+01
 Atom C5       Shell    54 D   1     bf  144 -   148          0.122287197737          4.260444244329          0.000000000000
      0.3180000000D+00  0.1000000000D+01
 Atom C5       Shell    55 F   1     bf  149 -   155          0.122287197737          4.260444244329          0.000000000000
      0.7610000000D+00  0.1000000000D+01
 Atom C6       Shell    56 S   6     bf  156 -   156         -2.093806311784          5.655817221796          0.000000000000
      0.1357534968D+05  0.6064550360D-03
      0.2035233368D+04  0.4697908888D-02
      0.4632256236D+03  0.2433247765D-01
      0.1312001960D+03  0.9739996831D-01
      0.4285301589D+02  0.3019558425D+00
      0.1558418577D+02  0.6623360914D+00
[...]
 00958,0.,0.00029111,-0.00004197,0.,-0.00007576,-0.00007562,0.,0.000051
 16,0.00000598,0.,-0.00003321,0.00004014,0.,0.00006531,-0.00001609,0.,-
 0.00001209,-0.00002633,0.,0.00065108,-0.00062818,0.,0.00172349,0.00100
 886,0.,-0.00036435,-0.00008710,0.,-0.00010894,0.00032439,0.,0.00081007
 ,-0.00949453,0.,-0.00222508,0.00118131,0.,0.00022354,0.00041099,0.,-0.
 03197950,-0.33217557,0.,-0.00470716,-0.01592961,0.,0.00349152,0.000213
 95,0.,-0.00080551,-0.00073618,0.,-0.00201909,0.00101952,0.,0.00039592,
 0.00007945,0.,-0.00006770,0.00016874,0.,0.00004194,0.00009053,0.,-0.00
 002773,-0.00001400,0.,-0.00003252,-0.00005754,0.,0.00002261,-0.0000465
 0,0.,0.00000422,0.00002017,0.,0.00000725,-0.00001020,0.,-0.00001946,0.
 00003403,0.,0.00006161,-0.00002694,0.,-0.00001979,-0.00007273,0.,-0.00
 000599,-0.00002317,0.,-0.00000005,-0.00003067,0.,0.00002839,-0.0000358
 8,0.,0.00000010,-0.00000521,0.,0.00000164,0.00000177,0.,0.00001072,-0.
 00000326,0.,-0.00073326,0.00036032,0.,-0.00006062,-0.00001610,0.,-0.00
 003182,0.00002752,0.,0.03465090,0.35410219,0.,0.,0.00013768,0.,0.,0.00
 004720,0.,0.,-0.00097046,0.,0.,0.00013498,0.,0.,0.00002510,0.,0.,0.000
 01779,0.,0.,0.00007948,0.,0.,-0.00001976,0.,0.,0.00000681,0.,0.,-0.000
 00196,0.,0.,0.00014302,0.,0.,-0.00337241,0.,0.,-0.00015586,0.,0.,-0.00
 010427,0.,0.,0.00344591,0.,0.,0.00550446,0.,0.,-0.00098045,0.,0.,-0.03
 513826,0.,0.,0.00405284,0.,0.,0.00689959,0.,0.,0.00003030,0.,0.,-0.004
 45364,0.,0.,-0.00020245,0.,0.,0.00010001,0.,0.,0.00001191,0.,0.,0.0000
 1035,0.,0.,0.00028973,0.,0.,0.00000872,0.,0.,-0.00002501,0.,0.,-0.0000
 0390,0.,0.,-0.00000324,0.,0.,-0.00004483,0.,0.,-0.00003100,0.,0.,-0.00
 000034,0.,0.,0.00014882,0.,0.,-0.00017917,0.,0.,-0.00000699,0.,0.,0.00
 000306,0.,0.,0.00000171,0.,0.,0.00026269,0.,0.,0.00020128,0.,0.,0.0000
 5442,0.,0.,0.02372992,0.00001651,-0.00000403,0.,0.00002965,-0.00014997
 ,0.,-0.00046879,0.00002171,0.,0.00002023,0.00002670,0.,0.00007714,-0.0
 0012940,0.,-0.00014262,0.00003124,0.,-0.00022670,0.00016652,0.,-0.0000
 5060,0.00008660,0.,0.00006024,0.00009492,0.,-0.00001716,-0.00024238,0.
 ,0.00003188,0.00010990,0.,-0.00001565,-0.00000659,0.,0.00002422,-0.000
 03596,0.,-0.00007808,-0.00001573,0.,0.00012667,0.00046412,0.,0.0001475
 3,-0.00011598,0.,0.00035488,-0.00146353,0.,0.00120857,-0.00182069,0.,-
 0.00015843,-0.02992351,0.,-0.00515872,-0.00062133,0.,-0.00057012,0.000
 30653,0.,-0.05924058,-0.02194293,0.,0.00874598,0.02581958,0.,-0.004677
 35,0.00185188,0.,0.00087786,0.00113983,0.,0.00007149,0.00014451,0.,0.0
 0075051,-0.00100032,0.,0.00011127,-0.00004618,0.,0.00015282,-0.0001734
 3,0.,0.00003246,0.00001685,0.,0.00025319,-0.00046325,0.,-0.00276480,0.
 00109742,0.,-0.00000144,0.00000677,0.,-0.00004297,-0.00001971,0.,0.000
 01626,-0.00000693,0.,0.00001100,0.00000119,0.,-0.00003523,0.00002936,0
 .,-0.00000692,-0.00000411,0.,-0.00003719,0.00002741,0.,-0.00003619,0.0
 0001965,0.,0.00000376,0.00000340,0.,-0.00000013,0.00000849,0.,-0.00058
 036,0.00101332,0.,0.06616625,-0.00000606,0.00001635,0.,0.00004757,-0.0
 0007439,0.,-0.00024794,0.00004732,0.,0.00005243,-0.00004564,0.,-0.0001
 2585,0.00000741,0.,0.00005435,0.00002732,0.,0.00034039,-0.00005197,0.,
 -0.00007957,-0.00003907,0.,0.00007158,-0.00004339,0.,0.00000912,0.0000
 5492,0.,0.00007642,0.00006813,0.,0.00008622,-0.00009124,0.,-0.00006611
 ,-0.00010500,0.,-0.00010056,0.00006755,0.,-0.00037407,0.00014949,0.,-0
 .00005580,0.00021371,0.,0.00056914,-0.00064975,0.,0.00184902,0.0012051
 9,0.,0.00056206,-0.01076068,0.,-0.00217394,0.00099403,0.,0.00006578,0.
 00043686,0.,-0.02158393,-0.33937649,0.,-0.00234738,-0.01525576,0.,0.00
 321163,0.00052328,0.,-0.00060691,-0.00073278,0.,-0.00017212,-0.0000700
 1,0.,-0.00152135,-0.00141139,0.,0.00030146,-0.00002016,0.,-0.00006166,
 -0.00004371,0.,-0.00015975,-0.00002078,0.,-0.00023347,0.00064252,0.,-0
 .00174893,-0.00035284,0.,-0.00000932,0.00000008,0.,-0.00002270,-0.0000
 1881,0.,-0.00000963,-0.00002493,0.,0.00000100,-0.00002921,0.,0.0000292
 5,-0.00002914,0.,0.00000534,0.00000312,0.,0.00003788,-0.00001807,0.,-0
 .00000551,0.00002074,0.,-0.00001329,0.00000296,0.,-0.00000785,0.000001
 89,0.,-0.00072103,0.00043286,0.,0.02833238,0.36352712,0.,0.,-0.0000229
 6,0.,0.,-0.00000314,0.,0.,0.00006069,0.,0.,0.00003804,0.,0.,-0.0008099
 8,0.,0.,0.00017140,0.,0.,-0.00056493,0.,0.,0.00003022,0.,0.,0.00007892
 ,0.,0.,0.00001588,0.,0.,0.00004666,0.,0.,0.00013341,0.,0.,-0.00000831,
 0.,0.,-0.00000042,0.,0.,-0.00026800,0.,0.,-0.00006679,0.,0.,0.00016390
 ,0.,0.,-0.00228790,0.,0.,0.00373589,0.,0.,0.00407236,0.,0.,-0.00087864
 ,0.,0.,-0.03622970,0.,0.,0.00418721,0.,0.,0.00885878,0.,0.,0.00026242,
 0.,0.,0.00000084,0.,0.,-0.00430179,0.,0.,-0.00034534,0.,0.,0.00037336,
 0.,0.,-0.00011210,0.,0.,-0.00016505,0.,0.,-0.00093363,0.,0.,0.00000487
 ,0.,0.,0.00000763,0.,0.,-0.00000711,0.,0.,0.00014711,0.,0.,-0.00012575
 ,0.,0.,-0.00000992,0.,0.,-0.00000699,0.,0.,-0.00000149,0.,0.,-0.000011
 31,0.,0.,0.00000283,0.,0.,0.00029437,0.,0.,0.02219089,-0.00000168,0.00
 001649,0.,-0.00000885,-0.00001907,0.,0.00001258,0.00003729,0.,-0.00000
 241,-0.00004889,0.,0.00000584,0.00003234,0.,0.00003434,-0.00009908,0.,
 -0.00008870,0.00009005,0.,0.00012242,0.00018194,0.,0.00076008,-0.00016
 977,0.,-0.00042351,0.00078464,0.,0.00002192,0.00000829,0.,0.00000185,-
 0.00001726,0.,-0.00001851,0.00001663,0.,0.00001174,-0.00000872,0.,-0.0
 0000833,-0.00000553,0.,-0.00001441,-0.00001737,0.,0.00001067,0.0000234
 1,0.,-0.00005455,-0.00006144,0.,0.00000658,0.00010942,0.,-0.00004422,0
 .00001047,0.,0.00000434,-0.00007302,0.,-0.00041999,-0.00044849,0.,-0.0
 0047183,0.00146232,0.,0.00002738,0.00025066,0.,-0.00006625,-0.00026081
 ,0.,0.00027687,0.00180719,0.,-0.00355717,-0.00372052,0.,-0.01822865,0.
 01916125,0.,-0.24718732,0.13573416,0.,0.00667371,-0.00468620,0.,0.0014
 2341,-0.00126512,0.,-0.00007284,-0.00101738,0.,-0.00000131,-0.00000241
 ,0.,-0.00000035,0.00000012,0.,-0.00000071,0.00000092,0.,0.00000061,0.0
 0000076,0.,0.00008370,0.00003888,0.,-0.00001908,-0.00001081,0.,0.00173
 856,-0.00069730,0.,0.00000008,0.00000058,0.,-0.00000029,-0.00000130,0.
 ,-0.00000291,0.00000006,0.,0.00000696,0.00000019,0.,0.00003254,0.00001
 420,0.,0.25839292,0.00000352,0.00000875,0.,-0.00000857,-0.00001489,0.,
 0.00000694,0.00002171,0.,0.00000404,-0.00003025,0.,-0.00000515,0.00002
 221,0.,0.00002855,-0.00002410,0.,0.00004641,0.00000230,0.,0.00006058,0
 .00004769,0.,0.00012109,-0.00004850,0.,-0.00204795,-0.00173590,0.,0.00
 001390,-0.00000299,0.,0.00001125,-0.00000244,0.,-0.00001072,0.00000696
 ,0.,0.00001670,0.00000071,0.,-0.00002592,-0.00001549,0.,-0.00000390,0.
 00000680,0.,0.00001726,0.00000777,0.,0.00000446,-0.00001878,0.,-0.0000
 4438,0.00003303,0.,-0.00001826,0.00002056,0.,0.00002388,-0.00002869,0.
 ,-0.00014043,-0.00020609,0.,-0.00047974,0.00061295,0.,0.00004409,0.000
 11984,0.,0.00005475,0.00012171,0.,0.00140210,-0.00077198,0.,-0.0029206
 8,-0.00046150,0.,-0.00865078,0.01231857,0.,0.13535581,-0.15576093,0.,0
 .02776977,-0.01479086,0.,-0.00194547,-0.00551302,0.,-0.00105753,-0.000
 56198,0.,0.00000299,-0.00000065,0.,0.00000047,0.00000426,0.,0.00000164
 ,0.00000591,0.,0.00000839,0.00001464,0.,0.00003343,0.00001816,0.,-0.00
 001234,-0.00000652,0.,-0.00141226,-0.00480558,0.,-0.00000184,-0.000001
 67,0.,0.00000328,-0.00000264,0.,0.00000128,0.00000177,0.,0.00000058,-0
 .00000064,0.,0.00000525,0.00000937,0.,-0.14724161,0.17131854,0.,0.,-0.
 00000126,0.,0.,0.00000568,0.,0.,-0.00001946,0.,0.,0.00001221,0.,0.,-0.
 00003503,0.,0.,-0.00000363,0.,0.,0.00022000,0.,0.,-0.00008069,0.,0.,-0
 .00022218,0.,0.,-0.00107263,0.,0.,-0.00000138,0.,0.,0.00000030,0.,0.,-
 0.00000196,0.,0.,0.00000137,0.,0.,0.00001849,0.,0.,-0.00000809,0.,0.,0
 .00001396,0.,0.,-0.00001813,0.,0.,-0.00006321,0.,0.,-0.00000464,0.,0.,
 0.00006608,0.,0.,0.00000644,0.,0.,0.00014745,0.,0.,-0.00005636,0.,0.,-
 0.00039772,0.,0.,-0.00198075,0.,0.,0.00711432,0.,0.,0.00126698,0.,0.,-
 0.03586034,0.,0.,0.00327323,0.,0.,0.00863380,0.,0.,-0.00124547,0.,0.,0
 .00000051,0.,0.,-0.00000014,0.,0.,0.00000122,0.,0.,0.00000734,0.,0.,0.
 00009992,0.,0.,-0.00001165,0.,0.,0.00226375,0.,0.,0.00000179,0.,0.,-0.
 00000021,0.,0.,0.00000044,0.,0.,-0.00000126,0.,0.,0.00000553,0.,0.,0.0
 2334489,-0.00000459,-0.00000150,0.,0.00000598,0.00000641,0.,-0.0000010
 0,-0.00000300,0.,-0.00000045,0.00000711,0.,0.00000898,-0.00000197,0.,-
 0.00000462,-0.00000886,0.,-0.00000963,0.00000176,0.,0.00000310,-0.0000
 4718,0.,-0.00002999,0.00001410,0.,-0.00001945,-0.00005617,0.,0.0000005
 0,0.00000447,0.,-0.00000306,-0.00000775,0.,-0.00000418,-0.00000140,0.,
 -0.00000868,0.00000308,0.,0.00000424,0.00000700,0.,-0.00000544,-0.0000
 0339,0.,0.00000472,-0.00000270,0.,-0.00000645,-0.00000442,0.,0.0000360
 5,-0.00004161,0.,-0.00002767,-0.00000788,0.,0.00001006,-0.00001682,0.,
 -0.00006110,0.00005225,0.,-0.00000692,-0.00007080,0.,-0.00005352,0.000
 01373,0.,0.00007345,-0.00010787,0.,-0.00014364,0.00013438,0.,0.0004488
 0,0.00078971,0.,0.00185665,-0.00019888,0.,-0.00003822,0.00119327,0.,-0
 .30307557,-0.09816620,0.,-0.01737097,-0.01277095,0.,-0.00229063,0.0041
 9342,0.,-0.00000361,-0.00000044,0.,-0.00000059,-0.00000385,0.,-0.00000
 150,-0.00000509,0.,-0.00000346,-0.00000617,0.,-0.00000436,-0.00000559,
 0.,0.00000559,-0.00001427,0.,-0.00001878,0.00001052,0.,0.00000209,0.00
 000228,0.,-0.00000359,0.00000176,0.,-0.00000273,-0.00000175,0.,0.00000
 677,-0.00000063,0.,0.00006524,-0.00005598,0.,0.00091558,-0.00032900,0.
 ,0.31993285,-0.00000254,-0.00000219,0.,0.00000392,0.00000699,0.,-0.000
 00245,-0.00000467,0.,0.00000134,0.00001254,0.,0.00000535,-0.00000250,0
 .,0.00000891,-0.00003586,0.,-0.00012893,-0.00000701,0.,-0.00003094,-0.
 00002998,0.,0.00004786,0.00003272,0.,-0.00000014,-0.00002300,0.,-0.000
 00745,0.00000108,0.,-0.00000798,0.00000015,0.,0.00000450,0.00000137,0.
 ,-0.00000477,-0.00000295,0.,0.00001446,0.00001436,0.,0.00000664,-0.000
 00988,0.,-0.00001907,0.00000486,0.,-0.00002369,-0.00000227,0.,-0.00000
 193,0.00005697,0.,0.00003316,-0.00001784,0.,-0.00002998,0.00002446,0.,
 -0.00001539,-0.00001096,0.,0.00009233,0.00011761,0.,0.00011635,-0.0000
 3885,0.,0.00009119,-0.00048015,0.,-0.00154638,0.00027825,0.,0.00061707
 ,-0.00127488,0.,0.00025272,-0.00547330,0.,-0.03059230,-0.00685835,0.,-
 0.09752970,-0.10026182,0.,0.01881153,0.01195690,0.,0.00355130,-0.00176
 896,0.,-0.00000145,0.00000035,0.,-0.00000002,-0.00000176,0.,-0.0000004
 9,-0.00000251,0.,-0.00001623,-0.00001158,0.,-0.00000008,-0.00000694,0.
 ,0.00000283,-0.00002867,0.,0.00000884,-0.00001757,0.,0.00000019,0.0000
 0109,0.,-0.00000121,0.00000108,0.,-0.00000069,-0.00000069,0.,-0.000003
 55,0.00000280,0.,-0.00004495,0.00004141,0.,0.00022017,0.00083851,0.,0.
 10576427,0.10191207,0.,0.,0.00000004,0.,0.,-0.00000354,0.,0.,0.0000060
 9,0.,0.,-0.00000325,0.,0.,-0.00001661,0.,0.,0.00000957,0.,0.,-0.000031
 38,0.,0.,0.00000669,0.,0.,-0.00004546,0.,0.,0.00017996,0.,0.,0.0000003
 9,0.,0.,-0.00000138,0.,0.,0.00000025,0.,0.,-0.00000178,0.,0.,-0.000011
 35,0.,0.,0.00000543,0.,0.,0.00000019,0.,0.,0.00000189,0.,0.,-0.0000300
 2,0.,0.,-0.00000792,0.,0.,0.00007224,0.,0.,0.00001714,0.,0.,-0.0009790
 2,0.,0.,0.00005084,0.,0.,-0.00031146,0.,0.,0.00013681,0.,0.,-0.0011130
 7,0.,0.,0.00853867,0.,0.,0.00239142,0.,0.,-0.03648376,0.,0.,0.00227268
 ,0.,0.,0.00727667,0.,0.,0.00000069,0.,0.,0.00000100,0.,0.,0.00000066,0
 .,0.,0.00000666,0.,0.,0.00000204,0.,0.,0.00001508,0.,0.,-0.00003838,0.
 ,0.,0.00000123,0.,0.,0.00000093,0.,0.,0.00000066,0.,0.,0.00000348,0.,0
 .,0.00011808,0.,0.,-0.00437394,0.,0.,0.02574878,-0.00000373,-0.0000000
 6,0.,0.00000139,0.00000178,0.,-0.00000025,0.00000419,0.,0.00000530,-0.
 00001587,0.,-0.00003907,0.00000728,0.,-0.00000367,-0.00000995,0.,0.000
 01850,-0.00000565,0.,-0.00001006,0.00001732,0.,0.00007068,-0.00000475,
 0.,-0.00003160,0.00001154,0.,0.00000015,0.00000558,0.,-0.00000979,-0.0
 0001071,0.,0.00000119,0.00000531,0.,-0.00000715,-0.00000618,0.,0.00001
 450,0.00002443,0.,-0.00000025,-0.00001585,0.,-0.00001174,0.00001042,0.
 ,-0.00004343,-0.00003507,0.,0.00004093,0.00006438,0.,0.00002496,-0.000
 01543,0.,0.00001263,-0.00014474,0.,-0.00001898,0.00000054,0.,0.0006087
 0,-0.00135594,0.,-0.00042469,-0.00002095,0.,-0.00007674,0.00008060,0.,
 0.00012656,0.00011717,0.,-0.00498478,-0.00160099,0.,-0.00151074,0.0000
 9354,0.,-0.00376924,0.00315806,0.,0.00843554,0.02581623,0.,-0.06484477
 ,-0.03302872,0.,0.00097218,-0.03030697,0.,-0.00000091,-0.00000007,0.,-
 0.00000025,-0.00000091,0.,-0.00000502,-0.00000369,0.,0.00000162,-0.000
 00195,0.,0.00000727,0.00000089,0.,-0.00000052,-0.00000272,0.,0.0000681
 6,-0.00003852,0.,-0.00000132,0.00000340,0.,-0.00000236,0.00000018,0.,-
 0.00000059,0.00000011,0.,-0.00000446,0.00000702,0.,-0.00002654,0.00000
 792,0.,0.00014864,0.00124428,0.,0.00081954,-0.00059754,0.,0.06356214,-
 0.00000620,-0.00000055,0.,0.00000620,0.00000586,0.,-0.00000237,-0.0000
 0127,0.,0.00000333,-0.00000097,0.,-0.00001599,0.00000370,0.,-0.0000055
 3,-0.00000722,0.,-0.00000837,-0.00000424,0.,-0.00000871,-0.00001729,0.
 ,-0.00002863,0.00001608,0.,0.00005922,-0.00005523,0.,0.00000576,0.0000
 1109,0.,-0.00000562,-0.00001573,0.,-0.00000311,-0.00000576,0.,-0.00002
 042,0.00000011,0.,0.00001072,0.00001553,0.,-0.00001884,-0.00000886,0.,
 0.00000501,0.00000847,0.,-0.00002458,-0.00003613,0.,0.00003363,0.00003
 625,0.,-0.00002316,-0.00001017,0.,0.00002533,-0.00006569,0.,-0.0000461
 6,-0.00005910,0.,0.00032351,-0.00045601,0.,-0.00023950,0.00003936,0.,0
 .00000412,-0.00001581,0.,-0.00003393,0.00001512,0.,-0.00205728,0.00136
 167,0.,0.00026027,0.00068320,0.,0.00379772,-0.00029759,0.,-0.00576563,
 -0.01384841,0.,-0.03367979,-0.33867488,0.,0.00148024,-0.00794178,0.,-0
 .00000400,-0.00000075,0.,-0.00000060,-0.00000446,0.,-0.00000361,-0.000
 00674,0.,-0.00000235,-0.00000739,0.,-0.00000627,-0.00000847,0.,0.00000
 491,-0.00000728,0.,-0.00005583,0.00003607,0.,0.00000142,0.00000437,0.,
 -0.00000534,0.00000201,0.,-0.00000303,-0.00000159,0.,0.00000085,0.0000
 0464,0.,0.00000627,-0.00001514,0.,-0.00026528,-0.00079473,0.,0.0003135
 6,0.00073688,0.,0.03633836,0.35850347,0.,0.,-0.00000246,0.,0.,0.000000
 57,0.,0.,-0.00000395,0.,0.,0.00000166,0.,0.,-0.00000639,0.,0.,-0.00000
 452,0.,0.,0.00007276,0.,0.,-0.00000672,0.,0.,-0.00008034,0.,0.,0.00004
 476,0.,0.,0.00000265,0.,0.,-0.00000369,0.,0.,-0.00000213,0.,0.,-0.0000
 0042,0.,0.,-0.00000373,0.,0.,-0.00000648,0.,0.,0.00001316,0.,0.,0.0000
 1274,0.,0.,-0.00006453,0.,0.,0.00001719,0.,0.,-0.00003473,0.,0.,0.0002
 2874,0.,0.,0.00011957,0.,0.,-0.00030711,0.,0.,0.00007122,0.,0.,-0.0009
 7965,0.,0.,0.00852066,0.,0.,-0.00112170,0.,0.,0.00726978,0.,0.,0.00224
 744,0.,0.,-0.03642545,0.,0.,0.00234421,0.,0.,0.00000101,0.,0.,0.000000
 68,0.,0.,0.00000004,0.,0.,0.00000157,0.,0.,0.00001622,0.,0.,0.00000559
 ,0.,0.,0.00011026,0.,0.,0.00000340,0.,0.,0.00000164,0.,0.,0.00000076,0
 .,0.,0.00000696,0.,0.,-0.00005571,0.,0.,-0.00005450,0.,0.,-0.00334346,
 0.,0.,0.02576215,0.00000680,0.00000207,0.,-0.00000504,-0.00000889,0.,-
 0.00000503,-0.00000403,0.,-0.00000486,0.00000061,0.,0.00000188,0.00000
 775,0.,0.00001948,0.00002118,0.,-0.00000950,0.00001187,0.,0.00000937,0
 .00001836,0.,0.00002636,-0.00002868,0.,-0.00007121,-0.00004763,0.,0.00
 000471,-0.00000328,0.,0.00001709,0.00000766,0.,-0.00000095,-0.00000985
 ,0.,0.00000774,0.00000721,0.,-0.00003676,-0.00001361,0.,0.00000051,0.0
 0002117,0.,0.00002146,-0.00002063,0.,0.00007896,-0.00003262,0.,-0.0000
 0235,-0.00015834,0.,-0.00006747,-0.00002848,0.,-0.00004420,0.00010350,
 0.,-0.00266875,-0.00278221,0.,-0.00169443,0.00081880,0.,0.00019480,0.0
 0009679,0.,0.00002482,0.00007527,0.,0.00027445,-0.00027258,0.,0.007451
 08,-0.00149816,0.,0.00099717,-0.00170546,0.,0.00000505,-0.00102333,0.,
 -0.00428276,-0.00353222,0.,-0.01932257,0.02098289,0.,-0.23059890,0.139
 04656,0.,0.00000349,0.00000058,0.,-0.00000005,0.00000346,0.,0.00000405
 ,0.00000641,0.,0.00000024,0.00000454,0.,0.00000092,0.00000467,0.,-0.00
 000417,-0.00000346,0.,0.00000655,-0.00000483,0.,-0.00000204,-0.0000032
 2,0.,0.00000449,-0.00000159,0.,0.00000256,0.00000171,0.,-0.00001574,0.
 00000886,0.,-0.00505159,-0.00321444,0.,-0.00001942,0.00006983,0.,-0.00
 099575,0.00095491,0.,0.00089211,-0.00034031,0.,0.25484739,0.00000455,-
 0.00000989,0.,-0.00000188,0.00001384,0.,0.00000248,-0.00002473,0.,0.00
 001112,0.00002430,0.,-0.00008078,-0.00001583,0.,0.00002998,0.00009461,
 0.,0.00003432,0.00004253,0.,-0.00002782,-0.00009116,0.,0.00012415,-0.0
 0003477,0.,-0.00037795,-0.00053558,0.,0.00000684,-0.00000192,0.,0.0000
 2177,0.00001937,0.,0.00001438,-0.00004128,0.,-0.00002289,0.00001463,0.
 ,-0.00002750,-0.00001735,0.,-0.00004202,0.00003708,0.,0.00000965,0.000
 08034,0.,0.00001440,-0.00002199,0.,-0.00044783,0.00084654,0.,0.0002031
 7,0.00003777,0.,0.00008781,0.00008049,0.,0.00001437,-0.00121892,0.,0.0
 0124554,0.00087969,0.,-0.00010608,-0.00016369,0.,0.00018317,0.00011286
 ,0.,0.00163499,-0.00015677,0.,0.02608675,-0.01342950,0.,-0.00250739,-0
 .00500869,0.,-0.00097735,-0.00061970,0.,-0.00279365,0.00012590,0.,-0.0
 1168850,0.01099455,0.,0.13979611,-0.17304716,0.,0.00000470,0.00000205,
 0.,0.00000380,0.00000429,0.,-0.00000123,0.00000306,0.,-0.00001157,-0.0
 0000743,0.,-0.00000697,-0.00000514,0.,-0.00000985,-0.00005878,0.,0.000
 00591,0.00003500,0.,-0.00000242,-0.00000257,0.,0.00000388,-0.00000010,
 0.,0.00000514,0.00000194,0.,-0.00004222,0.00001398,0.,-0.00260091,0.00
 078673,0.,0.00013494,0.00003808,0.,-0.00057099,0.00033271,0.,0.0002026
 9,0.00088535,0.,-0.14753880,0.17900522,0.,0.,0.00000429,0.,0.,-0.00001
 171,0.,0.,0.00001768,0.,0.,-0.00001305,0.,0.,0.00000149,0.,0.,-0.00004
 854,0.,0.,0.00013750,0.,0.,-0.00005789,0.,0.,-0.00001993,0.,0.,-0.0000
 7111,0.,0.,-0.00000277,0.,0.,-0.00001990,0.,0.,0.00000025,0.,0.,-0.000
 00278,0.,0.,-0.00000819,0.,0.,0.00001882,0.,0.,-0.00000335,0.,0.,-0.00
 002072,0.,0.,-0.00032026,0.,0.,0.00008020,0.,0.,0.00015465,0.,0.,-0.00
 070094,0.,0.,-0.00237216,0.,0.,-0.00029622,0.,0.,-0.00011834,0.,0.,0.0
 0025005,0.,0.,0.00156980,0.,0.,0.00702969,0.,0.,-0.00122775,0.,0.,0.00
 863265,0.,0.,0.00337603,0.,0.,-0.03610467,0.,0.,0.00000119,0.,0.,0.000
 00189,0.,0.,0.00000295,0.,0.,0.00000798,0.,0.,0.00000902,0.,0.,0.00000
 446,0.,0.,0.00000594,0.,0.,0.00000957,0.,0.,0.00000323,0.,0.,0.0000011
 5,0.,0.,0.00004266,0.,0.,0.00221567,0.,0.,-0.00099110,0.,0.,-0.0000705
 2,0.,0.,-0.00436974,0.,0.,0.02327281\\-0.00000046,-0.00000106,0.,0.000
 00091,-0.00000271,0.,0.00000066,0.00000526,0.,0.00000151,-0.00000339,0
 .,-0.00000041,0.00000734,0.,0.00000237,-0.00000376,0.,-0.00000011,0.00
 000511,0.,0.00000086,-0.00000090,0.,0.00000232,0.00000324,0.,0.0000006
 9,-0.00000174,0.,0.00000305,-0.00000317,0.,0.00000206,-0.00000039,0.,-
 0.00000212,-0.00000433,0.,-0.00000095,0.00000010,0.,-0.00000151,-0.000
 00320,0.,-0.00000178,0.00000169,0.,-0.00000103,-0.00000693,0.,-0.00000
 042,0.00000146,0.,-0.00000031,-0.00000346,0.,0.00000308,0.00000389,0.,
 -0.00000348,-0.00000730,0.,-0.00000356,0.00000151,0.,0.00000163,-0.000
 00267,0.,0.00000388,0.00000595,0.,-0.00000075,-0.00000242,0.,0.0000009
 4,0.00000451,0.,-0.00000329,0.00000273,0.,0.00000106,-0.00000124,0.,-0
 .00000119,0.00000183,0.,-0.00000005,0.00000115,0.,-0.00000168,0.000001
 88,0.,-0.00000048,-0.00000059,0.,0.00000071,-0.00000195,0.,0.00000106,
 -0.00000127,0.,0.00000126,-0.00000028,0.,0.00000151,0.00000069,0.,0.00
 000181,0.00000127,0.,0.00000123,0.00000147,0.,-0.00000021,0.00000245,0
 .,-0.00000171,-0.00000146,0.,-0.00000079,-0.00000196,0.,-0.00000027,-0
 .00000241,0.,-0.00000103,-0.00000098,0.,0.00000066,0.00000038,0.,-0.00
 000062,0.00000164,0.,-0.00000109,0.00000220,0.,-0.00000148,0.00000121,
 0.,-0.00000244,0.00000063,0.\\\@


 IT WAS AN ACT OF DESPARATION. FOR SIX YEARS I HAD STRUGGLED WITH THE
 BLACKBODY THEORY. I KNEW THE PROBLEM WAS FUNDAMENTAL, AND I KNEW
 THE ANSWER. I HAD TO FIND A THEORETICAL EXPLANATION AT ANY COST,
 EXCEPT FOR THE INVIOLABLITY OF THE TWO LAWS OF THERMODYNAMICS.
   -- MAX PLANCK, 1931
 Job cpu time:       4 days  0 hours 48 minutes 52.3 seconds.
 File lengths (MBytes):  RWF=   4430 Int=      0 D2E=      0 Chk=     85 Scr=      1
 Normal termination of Gaussian 09 at Sun Jul 28 00:24:23 2019.
