 Entering Gaussian System, Link 0=g09
 Initial command:
 /home/minenky/programs//g09/l1.exe "/local/scratch/minenky/m1_00_287-23-00_C4H8_wB97XD/Gau-211993.inp" -scrdir="/local/scratch/minenky/m1_00_287-23-00_C4H8_wB97XD/"
 Entering Link 1 = /home/minenky/programs//g09/l1.exe PID=    211995.
  
 Copyright (c) 1988,1990,1992,1993,1995,1998,2003,2009,2013,
            Gaussian, Inc.  All Rights Reserved.
  
 This is part of the Gaussian(R) 09 program.  It is based on
 the Gaussian(R) 03 system (copyright 2003, Gaussian, Inc.),
 the Gaussian(R) 98 system (copyright 1998, Gaussian, Inc.),
 the Gaussian(R) 94 system (copyright 1995, Gaussian, Inc.),
 the Gaussian 92(TM) system (copyright 1992, Gaussian, Inc.),
 the Gaussian 90(TM) system (copyright 1990, Gaussian, Inc.),
 the Gaussian 88(TM) system (copyright 1988, Gaussian, Inc.),
 the Gaussian 86(TM) system (copyright 1986, Carnegie Mellon
 University), and the Gaussian 82(TM) system (copyright 1983,
 Carnegie Mellon University). Gaussian is a federally registered
 trademark of Gaussian, Inc.
  
 This software contains proprietary and confidential information,
 including trade secrets, belonging to Gaussian, Inc.
  
 This software is provided under written license and may be
 used, copied, transmitted, or stored only in accord with that
 written license.
  
 The following legend is applicable only to US Government
 contracts under FAR:
  
                    RESTRICTED RIGHTS LEGEND
  
 Use, reproduction and disclosure by the US Government is
 subject to restrictions as set forth in subparagraphs (a)
 and (c) of the Commercial Computer Software - Restricted
 Rights clause in FAR 52.227-19.
  
 Gaussian, Inc.
 340 Quinnipiac St., Bldg. 40, Wallingford CT 06492
  
  
 ---------------------------------------------------------------
 Warning -- This program may not be used in any manner that
 competes with the business of Gaussian, Inc. or will provide
 assistance to any competitor of Gaussian, Inc.  The licensee
 of this program is prohibited from giving any competitor of
 Gaussian, Inc. access to this program.  By using this program,
 the user acknowledges that Gaussian, Inc. is engaged in the
 business of creating and licensing software in the field of
 computational chemistry and represents and warrants to the
 licensee that it is not a competitor of Gaussian, Inc. and that
 it will not use this program in any manner prohibited above.
 ---------------------------------------------------------------
  

 Cite this work as:
 Gaussian 09, Revision D.01,
 M. J. Frisch, G. W. Trucks, H. B. Schlegel, G. E. Scuseria, 
 M. A. Robb, J. R. Cheeseman, G. Scalmani, V. Barone, B. Mennucci, 
 G. A. Petersson, H. Nakatsuji, M. Caricato, X. Li, H. P. Hratchian, 
 A. F. Izmaylov, J. Bloino, G. Zheng, J. L. Sonnenberg, M. Hada, 
 M. Ehara, K. Toyota, R. Fukuda, J. Hasegawa, M. Ishida, T. Nakajima, 
 Y. Honda, O. Kitao, H. Nakai, T. Vreven, J. A. Montgomery, Jr., 
 J. E. Peralta, F. Ogliaro, M. Bearpark, J. J. Heyd, E. Brothers, 
 K. N. Kudin, V. N. Staroverov, T. Keith, R. Kobayashi, J. Normand, 
 K. Raghavachari, A. Rendell, J. C. Burant, S. S. Iyengar, J. Tomasi, 
 M. Cossi, N. Rega, J. M. Millam, M. Klene, J. E. Knox, J. B. Cross, 
 V. Bakken, C. Adamo, J. Jaramillo, R. Gomperts, R. E. Stratmann, 
 O. Yazyev, A. J. Austin, R. Cammi, C. Pomelli, J. W. Ochterski, 
 R. L. Martin, K. Morokuma, V. G. Zakrzewski, G. A. Voth, 
 P. Salvador, J. J. Dannenberg, S. Dapprich, A. D. Daniels, 
 O. Farkas, J. B. Foresman, J. V. Ortiz, J. Cioslowski, 
 and D. J. Fox, Gaussian, Inc., Wallingford CT, 2013.
 
 ******************************************
 Gaussian 09:  AM64L-G09RevD.01 24-Apr-2013
                 9-Jul-2021 
 ******************************************
 %Mem=32000MB
 %NProcShared=16
 Will use up to   16 processors via shared memory.
 %Chk=m1_00_287-23-00_C4H8_wB97XD
 ----------------------------------------------------------------------
 #P wB97XD/def2tzvp opt=(tight) freq integral(Grid=ultrafine) # SCF(Max
 Cycle=380) 5d 7f GFPrint
 ----------------------------------------------------------------------
 1/7=10,14=-1,18=20,19=15,26=4,38=1/1,3;
 2/9=110,12=2,17=6,18=5,40=1/2;
 3/5=44,7=101,8=11,11=2,16=1,24=100,25=1,30=1,71=1,74=-58,75=-5/1,2,3;
 4//1;
 5/5=2,7=380,38=5/2;
 6/7=2,8=2,9=2,10=2,28=1/1;
 7//1,2,3,16;
 1/7=10,14=-1,18=20,19=15,26=4/3(2);
 2/9=110/2;
 99//99;
 2/9=110/2;
 3/5=44,7=101,8=11,11=2,16=1,25=1,30=1,71=1,74=-58,75=-5/1,2,3;
 4/5=5,16=3,69=1/1;
 5/5=2,7=380,38=5/2;
 7//1,2,3,16;
 1/7=10,14=-1,18=20,19=15,26=4/3(-5);
 2/9=110/2;
 6/7=2,8=2,9=2,10=2,19=2,28=1/1;
 99/9=1/99;
 Leave Link    1 at Fri Jul  9 19:19:35 2021, MaxMem=  4194304000 cpu:         1.2
 (Enter /home/minenky/programs//g09/l101.exe)
 ---------------------------------------
 The PBEPBE optimization and frequencies
 ---------------------------------------
 Symbolic Z-matrix:
 Charge =  0 Multiplicity = 1
 C                    -0.81696   0.70842   0.12483 
 C                    -0.70842  -0.81696  -0.12483 
 C                     0.70842   0.81696  -0.12483 
 C                     0.81696  -0.70842   0.12483 
 H                    -1.47982   1.28323  -0.52175 
 H                    -1.06939   0.92732   1.16348 
 H                    -1.28323  -1.47982   0.52175 
 H                    -0.92732  -1.06939  -1.16348 
 H                     1.47982  -1.28323  -0.52175 
 H                     1.06939  -0.92732   1.16348 
 H                     1.28323   1.47982   0.52175 
 H                     0.92732   1.06939  -1.16348 
 
 NAtoms=     12 NQM=       12 NQMF=       0 NMMI=      0 NMMIF=      0
                NMic=       0 NMicF=      0.
                    Isotopes and Nuclear Properties:
 (Nuclear quadrupole moments (NQMom) in fm**2, nuclear magnetic moments (NMagM)
  in nuclear magnetons)

  Atom         1           2           3           4           5           6           7           8           9          10
 IAtWgt=          12          12          12          12           1           1           1           1           1           1
 AtmWgt=  12.0000000  12.0000000  12.0000000  12.0000000   1.0078250   1.0078250   1.0078250   1.0078250   1.0078250   1.0078250
 NucSpn=           0           0           0           0           1           1           1           1           1           1
 AtZEff=   0.0000000   0.0000000   0.0000000   0.0000000   0.0000000   0.0000000   0.0000000   0.0000000   0.0000000   0.0000000
 NQMom=    0.0000000   0.0000000   0.0000000   0.0000000   0.0000000   0.0000000   0.0000000   0.0000000   0.0000000   0.0000000
 NMagM=    0.0000000   0.0000000   0.0000000   0.0000000   2.7928460   2.7928460   2.7928460   2.7928460   2.7928460   2.7928460
 AtZNuc=   6.0000000   6.0000000   6.0000000   6.0000000   1.0000000   1.0000000   1.0000000   1.0000000   1.0000000   1.0000000

  Atom        11          12
 IAtWgt=           1           1
 AtmWgt=   1.0078250   1.0078250
 NucSpn=           1           1
 AtZEff=   0.0000000   0.0000000
 NQMom=    0.0000000   0.0000000
 NMagM=    2.7928460   2.7928460
 AtZNuc=   1.0000000   1.0000000
 Leave Link  101 at Fri Jul  9 19:19:35 2021, MaxMem=  4194304000 cpu:         2.8
 (Enter /home/minenky/programs//g09/l103.exe)

 GradGradGradGradGradGradGradGradGradGradGradGradGradGradGradGradGradGrad
 Berny optimization.
 Initialization pass.
                           ----------------------------
                           !    Initial Parameters    !
                           ! (Angstroms and Degrees)  !
 --------------------------                            --------------------------
 ! Name  Definition              Value          Derivative Info.                !
 --------------------------------------------------------------------------------
 ! R1    R(1,2)                  1.5495         estimate D2E/DX2                !
 ! R2    R(1,3)                  1.5495         estimate D2E/DX2                !
 ! R3    R(1,5)                  1.0899         estimate D2E/DX2                !
 ! R4    R(1,6)                  1.0911         estimate D2E/DX2                !
 ! R5    R(2,4)                  1.5495         estimate D2E/DX2                !
 ! R6    R(2,7)                  1.0899         estimate D2E/DX2                !
 ! R7    R(2,8)                  1.0911         estimate D2E/DX2                !
 ! R8    R(3,4)                  1.5495         estimate D2E/DX2                !
 ! R9    R(3,11)                 1.0899         estimate D2E/DX2                !
 ! R10   R(3,12)                 1.0911         estimate D2E/DX2                !
 ! R11   R(4,9)                  1.0899         estimate D2E/DX2                !
 ! R12   R(4,10)                 1.0911         estimate D2E/DX2                !
 ! A1    A(2,1,3)               88.5124         estimate D2E/DX2                !
 ! A2    A(2,1,5)              117.7886         estimate D2E/DX2                !
 ! A3    A(2,1,6)              111.5365         estimate D2E/DX2                !
 ! A4    A(3,1,5)              117.7882         estimate D2E/DX2                !
 ! A5    A(3,1,6)              111.5366         estimate D2E/DX2                !
 ! A6    A(5,1,6)              108.5556         estimate D2E/DX2                !
 ! A7    A(1,2,4)               88.5124         estimate D2E/DX2                !
 ! A8    A(1,2,7)              117.7883         estimate D2E/DX2                !
 ! A9    A(1,2,8)              111.5366         estimate D2E/DX2                !
 ! A10   A(4,2,7)              117.7886         estimate D2E/DX2                !
 ! A11   A(4,2,8)              111.5365         estimate D2E/DX2                !
 ! A12   A(7,2,8)              108.5556         estimate D2E/DX2                !
 ! A13   A(1,3,4)               88.5124         estimate D2E/DX2                !
 ! A14   A(1,3,11)             117.7887         estimate D2E/DX2                !
 ! A15   A(1,3,12)             111.5365         estimate D2E/DX2                !
 ! A16   A(4,3,11)             117.7882         estimate D2E/DX2                !
 ! A17   A(4,3,12)             111.5367         estimate D2E/DX2                !
 ! A18   A(11,3,12)            108.5556         estimate D2E/DX2                !
 ! A19   A(2,4,3)               88.5123         estimate D2E/DX2                !
 ! A20   A(2,4,9)              117.7882         estimate D2E/DX2                !
 ! A21   A(2,4,10)             111.5367         estimate D2E/DX2                !
 ! A22   A(3,4,9)              117.7886         estimate D2E/DX2                !
 ! A23   A(3,4,10)             111.5365         estimate D2E/DX2                !
 ! A24   A(9,4,10)             108.5557         estimate D2E/DX2                !
 ! D1    D(3,1,2,4)             18.3063         estimate D2E/DX2                !
 ! D2    D(3,1,2,7)            139.202          estimate D2E/DX2                !
 ! D3    D(3,1,2,8)            -94.3084         estimate D2E/DX2                !
 ! D4    D(5,1,2,4)            139.2016         estimate D2E/DX2                !
 ! D5    D(5,1,2,7)            -99.9027         estimate D2E/DX2                !
 ! D6    D(5,1,2,8)             26.587          estimate D2E/DX2                !
 ! D7    D(6,1,2,4)            -94.3085         estimate D2E/DX2                !
 ! D8    D(6,1,2,7)             26.5872         estimate D2E/DX2                !
 ! D9    D(6,1,2,8)            153.0769         estimate D2E/DX2                !
 ! D10   D(2,1,3,4)            -18.3063         estimate D2E/DX2                !
 ! D11   D(2,1,3,11)          -139.2016         estimate D2E/DX2                !
 ! D12   D(2,1,3,12)            94.3085         estimate D2E/DX2                !
 ! D13   D(5,1,3,4)           -139.202          estimate D2E/DX2                !
 ! D14   D(5,1,3,11)            99.9027         estimate D2E/DX2                !
 ! D15   D(5,1,3,12)           -26.5872         estimate D2E/DX2                !
 ! D16   D(6,1,3,4)             94.3083         estimate D2E/DX2                !
 ! D17   D(6,1,3,11)           -26.587          estimate D2E/DX2                !
 ! D18   D(6,1,3,12)          -153.0769         estimate D2E/DX2                !
 ! D19   D(1,2,4,3)            -18.3063         estimate D2E/DX2                !
 ! D20   D(1,2,4,9)           -139.2019         estimate D2E/DX2                !
 ! D21   D(1,2,4,10)            94.3083         estimate D2E/DX2                !
 ! D22   D(7,2,4,3)           -139.2016         estimate D2E/DX2                !
 ! D23   D(7,2,4,9)             99.9027         estimate D2E/DX2                !
 ! D24   D(7,2,4,10)           -26.5871         estimate D2E/DX2                !
 ! D25   D(8,2,4,3)             94.3085         estimate D2E/DX2                !
 ! D26   D(8,2,4,9)            -26.5872         estimate D2E/DX2                !
 ! D27   D(8,2,4,10)          -153.0769         estimate D2E/DX2                !
 ! D28   D(1,3,4,2)             18.3063         estimate D2E/DX2                !
 ! D29   D(1,3,4,9)            139.2016         estimate D2E/DX2                !
 ! D30   D(1,3,4,10)           -94.3085         estimate D2E/DX2                !
 ! D31   D(11,3,4,2)           139.202          estimate D2E/DX2                !
 ! D32   D(11,3,4,9)           -99.9027         estimate D2E/DX2                !
 ! D33   D(11,3,4,10)           26.5872         estimate D2E/DX2                !
 ! D34   D(12,3,4,2)           -94.3083         estimate D2E/DX2                !
 ! D35   D(12,3,4,9)            26.587          estimate D2E/DX2                !
 ! D36   D(12,3,4,10)          153.0769         estimate D2E/DX2                !
 --------------------------------------------------------------------------------
 Trust Radius=3.00D-01 FncErr=1.00D-07 GrdErr=1.00D-06
 Number of steps in this run=     82 maximum allowed number of steps=    100.
 GradGradGradGradGradGradGradGradGradGradGradGradGradGradGradGradGradGrad

 Leave Link  103 at Fri Jul  9 19:19:36 2021, MaxMem=  4194304000 cpu:         0.0
 (Enter /home/minenky/programs//g09/l202.exe)
                          Input orientation:                          
 ---------------------------------------------------------------------
 Center     Atomic      Atomic             Coordinates (Angstroms)
 Number     Number       Type             X           Y           Z
 ---------------------------------------------------------------------
      1          6           0       -0.816957    0.708421    0.124830
      2          6           0       -0.708421   -0.816957   -0.124830
      3          6           0        0.708421    0.816957   -0.124830
      4          6           0        0.816957   -0.708421    0.124831
      5          1           0       -1.479822    1.283228   -0.521747
      6          1           0       -1.069392    0.927316    1.163483
      7          1           0       -1.283228   -1.479822    0.521746
      8          1           0       -0.927316   -1.069392   -1.163483
      9          1           0        1.479822   -1.283228   -0.521746
     10          1           0        1.069392   -0.927315    1.163483
     11          1           0        1.283228    1.479822    0.521746
     12          1           0        0.927316    1.069392   -1.163483
 ---------------------------------------------------------------------
                    Distance matrix (angstroms):
                    1          2          3          4          5
     1  C    0.000000
     2  C    1.549480   0.000000
     3  C    1.549480   2.162664   0.000000
     4  C    2.162664   1.549480   1.549480   0.000000
     5  H    1.089888   2.272307   2.272303   3.108042   0.000000
     6  H    1.091072   2.198304   2.198306   2.704209   1.770629
     7  H    2.272302   1.089887   3.108041   2.272307   2.960063
     8  H    2.198306   1.091072   2.704209   2.198304   2.500382
     9  H    3.108041   2.272302   2.272307   1.089888   3.917421
    10  H    2.704209   2.198306   2.198303   1.091071   3.771603
    11  H    2.272307   3.108041   1.089887   2.272302   2.960063
    12  H    2.198304   2.704209   1.091072   2.198306   2.500373
                    6          7          8          9         10
     6  H    0.000000
     7  H    2.500373   0.000000
     8  H    3.069495   1.770628   0.000000
     9  H    3.771604   2.960063   2.500373   0.000000
    10  H    2.830910   2.500382   3.069495   1.770628   0.000000
    11  H    2.500382   3.917421   3.771604   2.960063   2.500372
    12  H    3.069495   3.771604   2.830911   2.500382   3.069494
                   11         12
    11  H    0.000000
    12  H    1.770628   0.000000
 This structure is nearly, but not quite of a higher symmetry.
 Consider Symm=Loose if the higher symmetry is desired.
 Stoichiometry    C4H8
 Framework group  C2[X(C4H8)]
 Deg. of freedom    16
 Full point group                 C2      NOp   2
 Largest Abelian subgroup         C2      NOp   2
 Largest concise Abelian subgroup C2      NOp   2
                         Standard orientation:                         
 ---------------------------------------------------------------------
 Center     Atomic      Atomic             Coordinates (Angstroms)
 Number     Number       Type             X           Y           Z
 ---------------------------------------------------------------------
      1          6           0       -0.764617    0.764617   -0.124830
      2          6           0        0.764617    0.764617    0.124830
      3          6           0       -0.764617   -0.764617    0.124830
      4          6           0        0.764617   -0.764617   -0.124830
      5          1           0       -1.385021    1.385014    0.521747
      6          1           0       -1.000877    1.000880   -1.163483
      7          1           0        1.385014    1.385021   -0.521746
      8          1           0        1.000880    1.000877    1.163483
      9          1           0        1.385021   -1.385014    0.521747
     10          1           0        1.000877   -1.000880   -1.163483
     11          1           0       -1.385014   -1.385021   -0.521746
     12          1           0       -1.000880   -1.000877    1.163483
 ---------------------------------------------------------------------
 Rotational constants (GHZ):     10.7215571     10.7215564      6.3435287
 Leave Link  202 at Fri Jul  9 19:19:36 2021, MaxMem=  4194304000 cpu:         0.7
 (Enter /home/minenky/programs//g09/l301.exe)
 Standard basis: def2TZVP (5D, 7F)
 ======================================================================================================
                                       Pseudopotential Parameters
 ======================================================================================================
  Center     Atomic      Valence      Angular      Power
  Number     Number     Electrons     Momentum     of R      Exponent        Coefficient   SO-Coeffient
 ======================================================================================================
    1          6
                                   No pseudopotential on this center.
    2          6
                                   No pseudopotential on this center.
    3          6
                                   No pseudopotential on this center.
    4          6
                                   No pseudopotential on this center.
    5          1
                                   No pseudopotential on this center.
    6          1
                                   No pseudopotential on this center.
    7          1
                                   No pseudopotential on this center.
    8          1
                                   No pseudopotential on this center.
    9          1
                                   No pseudopotential on this center.
   10          1
                                   No pseudopotential on this center.
   11          1
                                   No pseudopotential on this center.
   12          1
                                   No pseudopotential on this center.
 ======================================================================================================
 Ernie: Thresh=  0.10000D-02 Tol=  0.10000D-05 Strict=F.
 AO basis set (Overlap normalization):
 Atom C1       Shell     1 S   6     bf    1 -     1         -1.444917124687          1.444917187783         -0.235894217898
      0.1357534968D+05  0.6064550360D-03
      0.2035233368D+04  0.4697908888D-02
      0.4632256236D+03  0.2433247765D-01
      0.1312001960D+03  0.9739996831D-01
      0.4285301589D+02  0.3019558425D+00
      0.1558418577D+02  0.6623360914D+00
 Atom C1       Shell     2 S   2     bf    2 -     2         -1.444917124687          1.444917187783         -0.235894217898
      0.6206713851D+01  0.6559530854D+00
      0.2576489653D+01  0.3758563329D+00
 Atom C1       Shell     3 S   1     bf    3 -     3         -1.444917124687          1.444917187783         -0.235894217898
      0.5769633942D+00  0.1000000000D+01
 Atom C1       Shell     4 S   1     bf    4 -     4         -1.444917124687          1.444917187783         -0.235894217898
      0.2297283136D+00  0.1000000000D+01
 Atom C1       Shell     5 S   1     bf    5 -     5         -1.444917124687          1.444917187783         -0.235894217898
      0.9516444003D-01  0.1000000000D+01
 Atom C1       Shell     6 P   4     bf    6 -     8         -1.444917124687          1.444917187783         -0.235894217898
      0.3469723224D+02  0.1132722000D-01
      0.7958262283D+01  0.7616965920D-01
      0.2378082688D+01  0.3019225220D+00
      0.8143320818D+00  0.7278502735D+00
 Atom C1       Shell     7 P   1     bf    9 -    11         -1.444917124687          1.444917187783         -0.235894217898
      0.2888754725D+00  0.1000000000D+01
 Atom C1       Shell     8 P   1     bf   12 -    14         -1.444917124687          1.444917187783         -0.235894217898
      0.1005682367D+00  0.1000000000D+01
 Atom C1       Shell     9 D   1     bf   15 -    19         -1.444917124687          1.444917187783         -0.235894217898
      0.1097000000D+01  0.1000000000D+01
 Atom C1       Shell    10 D   1     bf   20 -    24         -1.444917124687          1.444917187783         -0.235894217898
      0.3180000000D+00  0.1000000000D+01
 Atom C1       Shell    11 F   1     bf   25 -    31         -1.444917124687          1.444917187783         -0.235894217898
      0.7610000000D+00  0.1000000000D+01
 Atom C2       Shell    12 S   6     bf   32 -    32          1.444917242497          1.444917187783          0.235894808438
      0.1357534968D+05  0.6064550360D-03
      0.2035233368D+04  0.4697908888D-02
      0.4632256236D+03  0.2433247765D-01
      0.1312001960D+03  0.9739996831D-01
      0.4285301589D+02  0.3019558425D+00
      0.1558418577D+02  0.6623360914D+00
 Atom C2       Shell    13 S   2     bf   33 -    33          1.444917242497          1.444917187783          0.235894808438
      0.6206713851D+01  0.6559530854D+00
      0.2576489653D+01  0.3758563329D+00
 Atom C2       Shell    14 S   1     bf   34 -    34          1.444917242497          1.444917187783          0.235894808438
      0.5769633942D+00  0.1000000000D+01
 Atom C2       Shell    15 S   1     bf   35 -    35          1.444917242497          1.444917187783          0.235894808438
      0.2297283136D+00  0.1000000000D+01
 Atom C2       Shell    16 S   1     bf   36 -    36          1.444917242497          1.444917187783          0.235894808438
      0.9516444003D-01  0.1000000000D+01
 Atom C2       Shell    17 P   4     bf   37 -    39          1.444917242497          1.444917187783          0.235894808438
      0.3469723224D+02  0.1132722000D-01
      0.7958262283D+01  0.7616965920D-01
      0.2378082688D+01  0.3019225220D+00
      0.8143320818D+00  0.7278502735D+00
 Atom C2       Shell    18 P   1     bf   40 -    42          1.444917242497          1.444917187783          0.235894808438
      0.2888754725D+00  0.1000000000D+01
 Atom C2       Shell    19 P   1     bf   43 -    45          1.444917242497          1.444917187783          0.235894808438
      0.1005682367D+00  0.1000000000D+01
 Atom C2       Shell    20 D   1     bf   46 -    50          1.444917242497          1.444917187783          0.235894808438
      0.1097000000D+01  0.1000000000D+01
 Atom C2       Shell    21 D   1     bf   51 -    55          1.444917242497          1.444917187783          0.235894808438
      0.3180000000D+00  0.1000000000D+01
 Atom C2       Shell    22 F   1     bf   56 -    62          1.444917242497          1.444917187783          0.235894808438
      0.7610000000D+00  0.1000000000D+01
 Atom C3       Shell    23 S   6     bf   63 -    63         -1.444917242497         -1.444917187783          0.235894808438
      0.1357534968D+05  0.6064550360D-03
      0.2035233368D+04  0.4697908888D-02
      0.4632256236D+03  0.2433247765D-01
      0.1312001960D+03  0.9739996831D-01
      0.4285301589D+02  0.3019558425D+00
      0.1558418577D+02  0.6623360914D+00
 Atom C3       Shell    24 S   2     bf   64 -    64         -1.444917242497         -1.444917187783          0.235894808438
      0.6206713851D+01  0.6559530854D+00
      0.2576489653D+01  0.3758563329D+00
 Atom C3       Shell    25 S   1     bf   65 -    65         -1.444917242497         -1.444917187783          0.235894808438
      0.5769633942D+00  0.1000000000D+01
 Atom C3       Shell    26 S   1     bf   66 -    66         -1.444917242497         -1.444917187783          0.235894808438
      0.2297283136D+00  0.1000000000D+01
 Atom C3       Shell    27 S   1     bf   67 -    67         -1.444917242497         -1.444917187783          0.235894808438
      0.9516444003D-01  0.1000000000D+01
 Atom C3       Shell    28 P   4     bf   68 -    70         -1.444917242497         -1.444917187783          0.235894808438
      0.3469723224D+02  0.1132722000D-01
      0.7958262283D+01  0.7616965920D-01
      0.2378082688D+01  0.3019225220D+00
      0.8143320818D+00  0.7278502735D+00
 Atom C3       Shell    29 P   1     bf   71 -    73         -1.444917242497         -1.444917187783          0.235894808438
      0.2888754725D+00  0.1000000000D+01
 Atom C3       Shell    30 P   1     bf   74 -    76         -1.444917242497         -1.444917187783          0.235894808438
      0.1005682367D+00  0.1000000000D+01
 Atom C3       Shell    31 D   1     bf   77 -    81         -1.444917242497         -1.444917187783          0.235894808438
      0.1097000000D+01  0.1000000000D+01
 Atom C3       Shell    32 D   1     bf   82 -    86         -1.444917242497         -1.444917187783          0.235894808438
      0.3180000000D+00  0.1000000000D+01
 Atom C3       Shell    33 F   1     bf   87 -    93         -1.444917242497         -1.444917187783          0.235894808438
      0.7610000000D+00  0.1000000000D+01
 Atom C4       Shell    34 S   6     bf   94 -    94          1.444917124687         -1.444917187783         -0.235894217898
      0.1357534968D+05  0.6064550360D-03
      0.2035233368D+04  0.4697908888D-02
      0.4632256236D+03  0.2433247765D-01
      0.1312001960D+03  0.9739996831D-01
      0.4285301589D+02  0.3019558425D+00
      0.1558418577D+02  0.6623360914D+00
 Atom C4       Shell    35 S   2     bf   95 -    95          1.444917124687         -1.444917187783         -0.235894217898
      0.6206713851D+01  0.6559530854D+00
      0.2576489653D+01  0.3758563329D+00
 Atom C4       Shell    36 S   1     bf   96 -    96          1.444917124687         -1.444917187783         -0.235894217898
      0.5769633942D+00  0.1000000000D+01
 Atom C4       Shell    37 S   1     bf   97 -    97          1.444917124687         -1.444917187783         -0.235894217898
      0.2297283136D+00  0.1000000000D+01
 Atom C4       Shell    38 S   1     bf   98 -    98          1.444917124687         -1.444917187783         -0.235894217898
      0.9516444003D-01  0.1000000000D+01
 Atom C4       Shell    39 P   4     bf   99 -   101          1.444917124687         -1.444917187783         -0.235894217898
      0.3469723224D+02  0.1132722000D-01
      0.7958262283D+01  0.7616965920D-01
      0.2378082688D+01  0.3019225220D+00
      0.8143320818D+00  0.7278502735D+00
 Atom C4       Shell    40 P   1     bf  102 -   104          1.444917124687         -1.444917187783         -0.235894217898
      0.2888754725D+00  0.1000000000D+01
 Atom C4       Shell    41 P   1     bf  105 -   107          1.444917124687         -1.444917187783         -0.235894217898
      0.1005682367D+00  0.1000000000D+01
 Atom C4       Shell    42 D   1     bf  108 -   112          1.444917124687         -1.444917187783         -0.235894217898
      0.1097000000D+01  0.1000000000D+01
 Atom C4       Shell    43 D   1     bf  113 -   117          1.444917124687         -1.444917187783         -0.235894217898
      0.3180000000D+00  0.1000000000D+01
 Atom C4       Shell    44 F   1     bf  118 -   124          1.444917124687         -1.444917187783         -0.235894217898
      0.7610000000D+00  0.1000000000D+01
 Atom H5       Shell    45 S   3     bf  125 -   125         -2.617310130209          2.617297548950          0.985959235924
      0.3406134100D+02  0.2543930721D-01
      0.5123574600D+01  0.1900859489D+00
      0.1164662600D+01  0.8524411301D+00
 Atom H5       Shell    46 S   1     bf  126 -   126         -2.617310130209          2.617297548950          0.985959235924
      0.3272304100D+00  0.1000000000D+01
 Atom H5       Shell    47 S   1     bf  127 -   127         -2.617310130209          2.617297548950          0.985959235924
      0.1030724100D+00  0.1000000000D+01
 Atom H5       Shell    48 P   1     bf  128 -   130         -2.617310130209          2.617297548950          0.985959235924
      0.8000000000D+00  0.1000000000D+01
 Atom H6       Shell    49 S   3     bf  131 -   131         -1.891382539817          1.891388664482         -2.198663934998
      0.3406134100D+02  0.2543930721D-01
      0.5123574600D+01  0.1900859489D+00
      0.1164662600D+01  0.8524411301D+00
 Atom H6       Shell    50 S   1     bf  132 -   132         -1.891382539817          1.891388664482         -2.198663934998
      0.3272304100D+00  0.1000000000D+01
 Atom H6       Shell    51 S   1     bf  133 -   133         -1.891382539817          1.891388664482         -2.198663934998
      0.1030724100D+00  0.1000000000D+01
 Atom H6       Shell    52 P   1     bf  134 -   136         -1.891382539817          1.891388664482         -2.198663934998
      0.8000000000D+00  0.1000000000D+01
 Atom H7       Shell    53 S   3     bf  137 -   137          2.617297603664          2.617310193306         -0.985956755659
      0.3406134100D+02  0.2543930721D-01
      0.5123574600D+01  0.1900859489D+00
      0.1164662600D+01  0.8524411301D+00
 Atom H7       Shell    54 S   1     bf  138 -   138          2.617297603664          2.617310193306         -0.985956755659
      0.3272304100D+00  0.1000000000D+01
 Atom H7       Shell    55 S   1     bf  139 -   139          2.617297603664          2.617310193306         -0.985956755659
      0.1030724100D+00  0.1000000000D+01
 Atom H7       Shell    56 P   1     bf  140 -   142          2.617297603664          2.617310193306         -0.985956755659
      0.8000000000D+00  0.1000000000D+01
 Atom H8       Shell    57 S   3     bf  143 -   143          1.891388719196          1.891382602913          2.198664525538
      0.3406134100D+02  0.2543930721D-01
      0.5123574600D+01  0.1900859489D+00
      0.1164662600D+01  0.8524411301D+00
 Atom H8       Shell    58 S   1     bf  144 -   144          1.891388719196          1.891382602913          2.198664525538
      0.3272304100D+00  0.1000000000D+01
 Atom H8       Shell    59 S   1     bf  145 -   145          1.891388719196          1.891382602913          2.198664525538
      0.1030724100D+00  0.1000000000D+01
 Atom H8       Shell    60 P   1     bf  146 -   148          1.891388719196          1.891382602913          2.198664525538
      0.8000000000D+00  0.1000000000D+01
 Atom H9       Shell    61 S   3     bf  149 -   149          2.617310130209         -2.617297548950          0.985959235924
      0.3406134100D+02  0.2543930721D-01
      0.5123574600D+01  0.1900859489D+00
      0.1164662600D+01  0.8524411301D+00
 Atom H9       Shell    62 S   1     bf  150 -   150          2.617310130209         -2.617297548950          0.985959235924
      0.3272304100D+00  0.1000000000D+01
 Atom H9       Shell    63 S   1     bf  151 -   151          2.617310130209         -2.617297548950          0.985959235924
      0.1030724100D+00  0.1000000000D+01
 Atom H9       Shell    64 P   1     bf  152 -   154          2.617310130209         -2.617297548950          0.985959235924
      0.8000000000D+00  0.1000000000D+01
 Atom H10      Shell    65 S   3     bf  155 -   155          1.891382539817         -1.891388664482         -2.198663934998
      0.3406134100D+02  0.2543930721D-01
      0.5123574600D+01  0.1900859489D+00
      0.1164662600D+01  0.8524411301D+00
 Atom H10      Shell    66 S   1     bf  156 -   156          1.891382539817         -1.891388664482         -2.198663934998
      0.3272304100D+00  0.1000000000D+01
 Atom H10      Shell    67 S   1     bf  157 -   157          1.891382539817         -1.891388664482         -2.198663934998
      0.1030724100D+00  0.1000000000D+01
 Atom H10      Shell    68 P   1     bf  158 -   160          1.891382539817         -1.891388664482         -2.198663934998
      0.8000000000D+00  0.1000000000D+01
 Atom H11      Shell    69 S   3     bf  161 -   161         -2.617297603664         -2.617310193306         -0.985956755659
      0.3406134100D+02  0.2543930721D-01
      0.5123574600D+01  0.1900859489D+00
      0.1164662600D+01  0.8524411301D+00
 Atom H11      Shell    70 S   1     bf  162 -   162         -2.617297603664         -2.617310193306         -0.985956755659
      0.3272304100D+00  0.1000000000D+01
 Atom H11      Shell    71 S   1     bf  163 -   163         -2.617297603664         -2.617310193306         -0.985956755659
      0.1030724100D+00  0.1000000000D+01
 Atom H11      Shell    72 P   1     bf  164 -   166         -2.617297603664         -2.617310193306         -0.985956755659
      0.8000000000D+00  0.1000000000D+01
 Atom H12      Shell    73 S   3     bf  167 -   167         -1.891388719196         -1.891382602913          2.198664525538
      0.3406134100D+02  0.2543930721D-01
      0.5123574600D+01  0.1900859489D+00
      0.1164662600D+01  0.8524411301D+00
 Atom H12      Shell    74 S   1     bf  168 -   168         -1.891388719196         -1.891382602913          2.198664525538
      0.3272304100D+00  0.1000000000D+01
 Atom H12      Shell    75 S   1     bf  169 -   169         -1.891388719196         -1.891382602913          2.198664525538
      0.1030724100D+00  0.1000000000D+01
 Atom H12      Shell    76 P   1     bf  170 -   172         -1.891388719196         -1.891382602913          2.198664525538
      0.8000000000D+00  0.1000000000D+01
 There are    96 symmetry adapted cartesian basis functions of A   symmetry.
 There are    96 symmetry adapted cartesian basis functions of B   symmetry.
 There are    86 symmetry adapted basis functions of A   symmetry.
 There are    86 symmetry adapted basis functions of B   symmetry.
   172 basis functions,   268 primitive gaussians,   192 cartesian basis functions
    16 alpha electrons       16 beta electrons
       nuclear repulsion energy       127.1033692327 Hartrees.
 IExCor= 4639 DFT=T Ex+Corr=wB97XD ExCW=0 ScaHFX=  1.000000
 ScaDFX=  1.000000  1.000000  1.000000  1.000000 ScalE2=  1.000000  1.000000
 IRadAn=      5 IRanWt=     -1 IRanGd=            0 ICorTp=0 IEmpDi=121
  HFx wShort=  0.000000 wLong=  0.200000 cFull=  0.222036 cShort=  0.000000 cLong=  0.777964
  DFx wShort=  0.000000 wLong=  0.200000 cFull=  0.000000 cShort=  0.000000 cLong=  1.000000
 NAtoms=   12 NActive=   12 NUniq=    6 SFac= 4.00D+00 NAtFMM=   60 NAOKFM=F Big=F
 Integral buffers will be    131072 words long.
 Raffenetti 2 integral format.
 Two-electron integral symmetry is turned on.
 R6Disp:  Grimme-D2 Dispersion energy=       -0.0049641937 Hartrees.
 Nuclear repulsion after empirical dispersion term =      127.0984050390 Hartrees.
 Leave Link  301 at Fri Jul  9 19:19:36 2021, MaxMem=  4194304000 cpu:         1.0
 (Enter /home/minenky/programs//g09/l302.exe)
 NPDir=0 NMtPBC=     1 NCelOv=     1 NCel=       1 NClECP=     1 NCelD=      1
         NCelK=      1 NCelE2=     1 NClLst=     1 CellRange=     0.0.
 One-electron integrals computed using PRISM.
 One-electron integral symmetry used in STVInt
   2 Symmetry operations used in ECPInt.
 ECPInt:  NShTT=    2926 NPrTT=    8368 LenC2=    2921 LenP2D=    7356.
 LDataN:  DoStor=T MaxTD1= 6 Len=  172
 NBasis=   172 RedAO= T EigKep=  6.77D-05  NBF=    86    86
 NBsUse=   172 1.00D-06 EigRej= -1.00D+00 NBFU=    86    86
 Precomputing XC quadrature grid using
 IXCGrd= 4 IRadAn=           5 IRanWt=          -1 IRanGd=           0 AccXCQ= 0.00D+00.
 Generated NRdTot=       0 NPtTot=           0 NUsed=           0 NTot=          32
 NSgBfM=   192   192   192   192   192 MxSgAt=    12 MxSgA2=    12.
 Leave Link  302 at Fri Jul  9 19:19:42 2021, MaxMem=  4194304000 cpu:        73.6
 (Enter /home/minenky/programs//g09/l303.exe)
 DipDrv:  MaxL=1.
 Leave Link  303 at Fri Jul  9 19:19:42 2021, MaxMem=  4194304000 cpu:         3.6
 (Enter /home/minenky/programs//g09/l401.exe)
 ExpMin= 9.52D-02 ExpMax= 1.36D+04 ExpMxC= 4.63D+02 IAcc=3 IRadAn=         5 AccDes= 0.00D+00
 Harris functional with IExCor= 4639 and IRadAn=       5 diagonalized for initial guess.
 HarFok:  IExCor= 4639 AccDes= 0.00D+00 IRadAn=         5 IDoV= 1 UseB2=F ITyADJ=14
 ICtDFT=  3500011 ScaDFX=  1.000000  1.000000  1.000000  1.000000
 FoFCou: FMM=F IPFlag=           0 FMFlag=      100000 FMFlg1=           0
         NFxFlg=           0 DoJE=T BraDBF=F KetDBF=T FulRan=T
         wScrn=  0.000000 ICntrl=     500 IOpCl=  0 I1Cent=   200000004 NGrid=           0
         NMat0=    1 NMatS0=      1 NMatT0=    0 NMatD0=    1 NMtDS0=    0 NMtDT0=    0
 Petite list used in FoFCou.
 Harris En= -149.402126685400    
 JPrj=0 DoOrth=F DoCkMO=F.
 Initial guess orbital symmetries:
       Occupied  (A) (B) (B) (A) (A) (B) (B) (A) (A) (A) (B) (B)
                 (A) (B) (B) (A)
       Virtual   (A) (A) (B) (B) (A) (B) (B) (A) (B) (B) (A) (A)
                 (A) (A) (B) (B) (A) (B) (B) (A) (B) (B) (A) (A)
                 (A) (B) (B) (A) (B) (B) (A) (A) (A) (B) (B) (A)
                 (A) (A) (A) (A) (A) (B) (B) (B) (B) (B) (B) (A)
                 (B) (B) (A) (B) (B) (A) (A) (A) (A) (A) (B) (B)
                 (B) (B) (A) (A) (A) (A) (A) (B) (B) (A) (A) (B)
                 (B) (A) (A) (A) (B) (B) (B) (B) (A) (B) (B) (A)
                 (A) (A) (B) (B) (A) (A) (B) (B) (B) (B) (A) (A)
                 (B) (B) (A) (A) (A) (A) (B) (B) (A) (B) (B) (A)
                 (A) (B) (B) (A) (A) (B) (B) (A) (A) (A) (A) (A)
                 (B) (B) (B) (B) (A) (A) (B) (B) (A) (B) (B) (A)
                 (A) (A) (A) (B) (B) (B) (B) (A) (A) (B) (B) (B)
                 (B) (A) (A) (A) (B) (B) (A) (A) (A) (A) (B) (B)
 The electronic state of the initial guess is 1-A.
 Leave Link  401 at Fri Jul  9 19:19:45 2021, MaxMem=  4194304000 cpu:        34.7
 (Enter /home/minenky/programs//g09/l502.exe)
 Closed shell SCF:
 Using DIIS extrapolation, IDIIS=  1040.
 Integral symmetry usage will be decided dynamically.
 Keep R1 ints in memory in symmetry-blocked form, NReq=332360078.
 IVT=      263166 IEndB=      263166 NGot=  4194304000 MDV=  4138661866
 LenX=  4138661866 LenY=  4138624561
 Requested convergence on RMS density matrix=1.00D-08 within 380 cycles.
 Requested convergence on MAX density matrix=1.00D-06.
 Requested convergence on             energy=1.00D-06.
 No special actions if energy rises.
 FoFCou: FMM=F IPFlag=           0 FMFlag=           0 FMFlg1=           0
         NFxFlg=           0 DoJE=F BraDBF=F KetDBF=F FulRan=T
         wScrn=  0.000000 ICntrl=     600 IOpCl=  0 I1Cent=           0 NGrid=           0
         NMat0=    1 NMatS0=  14878 NMatT0=    0 NMatD0=    1 NMtDS0=    0 NMtDT0=    0
 Petite list used in FoFCou.
 Integral accuracy reduced to 1.0D-05 until final iterations.

 Cycle   1  Pass 0  IDiag  1:
 E= -157.175015886185    
 DIIS: error= 5.96D-02 at cycle   1 NSaved=   1.
 NSaved= 1 IEnMin= 1 EnMin= -157.175015886185     IErMin= 1 ErrMin= 5.96D-02
 ErrMax= 5.96D-02  0.00D+00 EMaxC= 1.00D-01 BMatC= 3.32D-01 BMatP= 3.32D-01
 IDIUse=3 WtCom= 4.04D-01 WtEn= 5.96D-01
 Coeff-Com:  0.100D+01
 Coeff-En:   0.100D+01
 Coeff:      0.100D+01
 Gap=     0.467 Goal=   None    Shift=    0.000
 GapD=    0.467 DampG=2.000 DampE=0.500 DampFc=1.0000 IDamp=-1.
 RMSDP=1.89D-03 MaxDP=4.32D-02              OVMax= 5.20D-02

 Cycle   2  Pass 0  IDiag  1:
 E= -157.210863276304     Delta-E=       -0.035847390119 Rises=F Damp=F
 DIIS: error= 1.36D-02 at cycle   2 NSaved=   2.
 NSaved= 2 IEnMin= 2 EnMin= -157.210863276304     IErMin= 2 ErrMin= 1.36D-02
 ErrMax= 1.36D-02  0.00D+00 EMaxC= 1.00D-01 BMatC= 1.03D-02 BMatP= 3.32D-01
 IDIUse=3 WtCom= 8.64D-01 WtEn= 1.36D-01
 Coeff-Com:  0.794D-01 0.921D+00
 Coeff-En:   0.000D+00 0.100D+01
 Coeff:      0.687D-01 0.931D+00
 Gap=     0.522 Goal=   None    Shift=    0.000
 RMSDP=7.73D-04 MaxDP=1.13D-02 DE=-3.58D-02 OVMax= 3.45D-02

 Cycle   3  Pass 0  IDiag  1:
 E= -157.214808245700     Delta-E=       -0.003944969396 Rises=F Damp=F
 DIIS: error= 9.90D-03 at cycle   3 NSaved=   3.
 NSaved= 3 IEnMin= 3 EnMin= -157.214808245700     IErMin= 3 ErrMin= 9.90D-03
 ErrMax= 9.90D-03  0.00D+00 EMaxC= 1.00D-01 BMatC= 6.40D-03 BMatP= 1.03D-02
 IDIUse=3 WtCom= 9.01D-01 WtEn= 9.90D-02
 Coeff-Com:  0.252D-01 0.445D+00 0.530D+00
 Coeff-En:   0.000D+00 0.367D+00 0.633D+00
 Coeff:      0.227D-01 0.437D+00 0.540D+00
 Gap=     0.502 Goal=   None    Shift=    0.000
 RMSDP=3.01D-04 MaxDP=5.33D-03 DE=-3.94D-03 OVMax= 1.50D-02

 Cycle   4  Pass 0  IDiag  1:
 E= -157.220823395208     Delta-E=       -0.006015149508 Rises=F Damp=F
 DIIS: error= 4.35D-04 at cycle   4 NSaved=   4.
 NSaved= 4 IEnMin= 4 EnMin= -157.220823395208     IErMin= 4 ErrMin= 4.35D-04
 ErrMax= 4.35D-04  0.00D+00 EMaxC= 1.00D-01 BMatC= 4.86D-06 BMatP= 6.40D-03
 IDIUse=3 WtCom= 9.96D-01 WtEn= 4.35D-03
 Coeff-Com: -0.168D-02-0.296D-01-0.172D-01 0.105D+01
 Coeff-En:   0.000D+00 0.000D+00 0.000D+00 0.100D+01
 Coeff:     -0.168D-02-0.295D-01-0.172D-01 0.105D+01
 Gap=     0.501 Goal=   None    Shift=    0.000
 RMSDP=3.16D-05 MaxDP=3.85D-04 DE=-6.02D-03 OVMax= 1.03D-03

 Cycle   5  Pass 0  IDiag  1:
 E= -157.220832056814     Delta-E=       -0.000008661606 Rises=F Damp=F
 DIIS: error= 8.60D-05 at cycle   5 NSaved=   5.
 NSaved= 5 IEnMin= 5 EnMin= -157.220832056814     IErMin= 5 ErrMin= 8.60D-05
 ErrMax= 8.60D-05  0.00D+00 EMaxC= 1.00D-01 BMatC= 3.03D-07 BMatP= 4.86D-06
 IDIUse=1 WtCom= 1.00D+00 WtEn= 0.00D+00
 Coeff-Com: -0.133D-02-0.220D-01-0.232D-01 0.115D+00 0.932D+00
 Coeff:     -0.133D-02-0.220D-01-0.232D-01 0.115D+00 0.932D+00
 Gap=     0.502 Goal=   None    Shift=    0.000
 RMSDP=7.30D-06 MaxDP=7.78D-05 DE=-8.66D-06 OVMax= 2.41D-04

 Initial convergence to 1.0D-05 achieved.  Increase integral accuracy.
 Cycle   6  Pass 1  IDiag  1:
 E= -157.220670208247     Delta-E=        0.000161848567 Rises=F Damp=F
 DIIS: error= 3.85D-05 at cycle   1 NSaved=   1.
 NSaved= 1 IEnMin= 1 EnMin= -157.220670208247     IErMin= 1 ErrMin= 3.85D-05
 ErrMax= 3.85D-05  0.00D+00 EMaxC= 1.00D-01 BMatC= 2.05D-07 BMatP= 2.05D-07
 IDIUse=1 WtCom= 1.00D+00 WtEn= 0.00D+00
 Coeff-Com:  0.100D+01
 Coeff:      0.100D+01
 Gap=     0.502 Goal=   None    Shift=    0.000
 RMSDP=7.30D-06 MaxDP=7.78D-05 DE= 1.62D-04 OVMax= 6.90D-05

 Cycle   7  Pass 1  IDiag  1:
 E= -157.220670355738     Delta-E=       -0.000000147491 Rises=F Damp=F
 DIIS: error= 8.86D-06 at cycle   2 NSaved=   2.
 NSaved= 2 IEnMin= 2 EnMin= -157.220670355738     IErMin= 2 ErrMin= 8.86D-06
 ErrMax= 8.86D-06  0.00D+00 EMaxC= 1.00D-01 BMatC= 4.28D-09 BMatP= 2.05D-07
 IDIUse=1 WtCom= 1.00D+00 WtEn= 0.00D+00
 Coeff-Com: -0.573D-01 0.106D+01
 Coeff:     -0.573D-01 0.106D+01
 Gap=     0.502 Goal=   None    Shift=    0.000
 RMSDP=1.01D-06 MaxDP=1.19D-05 DE=-1.47D-07 OVMax= 2.73D-05

 Cycle   8  Pass 1  IDiag  1:
 E= -157.220670358560     Delta-E=       -0.000000002821 Rises=F Damp=F
 DIIS: error= 5.91D-06 at cycle   3 NSaved=   3.
 NSaved= 3 IEnMin= 3 EnMin= -157.220670358560     IErMin= 3 ErrMin= 5.91D-06
 ErrMax= 5.91D-06  0.00D+00 EMaxC= 1.00D-01 BMatC= 1.93D-09 BMatP= 4.28D-09
 IDIUse=1 WtCom= 1.00D+00 WtEn= 0.00D+00
 Coeff-Com: -0.407D-01 0.440D+00 0.600D+00
 Coeff:     -0.407D-01 0.440D+00 0.600D+00
 Gap=     0.502 Goal=   None    Shift=    0.000
 RMSDP=1.87D-07 MaxDP=3.85D-06 DE=-2.82D-09 OVMax= 1.03D-05

 Cycle   9  Pass 1  IDiag  1:
 E= -157.220670360438     Delta-E=       -0.000000001878 Rises=F Damp=F
 DIIS: error= 1.00D-06 at cycle   4 NSaved=   4.
 NSaved= 4 IEnMin= 4 EnMin= -157.220670360438     IErMin= 4 ErrMin= 1.00D-06
 ErrMax= 1.00D-06  0.00D+00 EMaxC= 1.00D-01 BMatC= 3.99D-11 BMatP= 1.93D-09
 IDIUse=1 WtCom= 1.00D+00 WtEn= 0.00D+00
 Coeff-Com:  0.306D-02-0.655D-01 0.537D-01 0.101D+01
 Coeff:      0.306D-02-0.655D-01 0.537D-01 0.101D+01
 Gap=     0.502 Goal=   None    Shift=    0.000
 RMSDP=1.19D-07 MaxDP=1.44D-06 DE=-1.88D-09 OVMax= 2.47D-06

 Cycle  10  Pass 1  IDiag  1:
 E= -157.220670360497     Delta-E=       -0.000000000059 Rises=F Damp=F
 DIIS: error= 1.08D-07 at cycle   5 NSaved=   5.
 NSaved= 5 IEnMin= 5 EnMin= -157.220670360497     IErMin= 5 ErrMin= 1.08D-07
 ErrMax= 1.08D-07  0.00D+00 EMaxC= 1.00D-01 BMatC= 6.45D-13 BMatP= 3.99D-11
 IDIUse=1 WtCom= 1.00D+00 WtEn= 0.00D+00
 Coeff-Com:  0.127D-02-0.113D-01-0.228D-01-0.674D-01 0.110D+01
 Coeff:      0.127D-02-0.113D-01-0.228D-01-0.674D-01 0.110D+01
 Gap=     0.502 Goal=   None    Shift=    0.000
 RMSDP=2.76D-08 MaxDP=3.50D-07 DE=-5.88D-11 OVMax= 6.37D-07

 Cycle  11  Pass 1  IDiag  1:
 E= -157.220670360499     Delta-E=       -0.000000000002 Rises=F Damp=F
 DIIS: error= 2.15D-08 at cycle   6 NSaved=   6.
 NSaved= 6 IEnMin= 6 EnMin= -157.220670360499     IErMin= 6 ErrMin= 2.15D-08
 ErrMax= 2.15D-08  0.00D+00 EMaxC= 1.00D-01 BMatC= 1.85D-14 BMatP= 6.45D-13
 IDIUse=1 WtCom= 1.00D+00 WtEn= 0.00D+00
 Coeff-Com:  0.202D-04 0.915D-03-0.376D-02-0.377D-01 0.104D+00 0.937D+00
 Coeff:      0.202D-04 0.915D-03-0.376D-02-0.377D-01 0.104D+00 0.937D+00
 Gap=     0.502 Goal=   None    Shift=    0.000
 RMSDP=4.57D-09 MaxDP=6.11D-08 DE=-1.71D-12 OVMax= 1.16D-07

 SCF Done:  E(RwB97XD) =  -157.220670360     A.U. after   11 cycles
            NFock= 11  Conv=0.46D-08     -V/T= 2.0059
 KE= 1.562953441758D+02 PE=-6.179789779315D+02 EE= 1.773645583561D+02
 Leave Link  502 at Fri Jul  9 19:20:32 2021, MaxMem=  4194304000 cpu:       507.3
 (Enter /home/minenky/programs//g09/l601.exe)
 Copying SCF densities to generalized density rwf, IOpCl= 0 IROHF=0.

 **********************************************************************

            Population analysis using the SCF density.

 **********************************************************************

 Orbital symmetries:
       Occupied  (A) (B) (B) (A) (A) (B) (B) (A) (A) (A) (B) (B)
                 (A) (A) (B) (B)
       Virtual   (A) (A) (B) (B) (A) (A) (B) (B) (B) (B) (A) (A)
                 (A) (A) (B) (B) (A) (A) (B) (B) (B) (B) (A) (A)
                 (A) (B) (B) (A) (B) (B) (A) (A) (A) (B) (B) (A)
                 (A) (A) (A) (A) (A) (B) (B) (B) (B) (B) (B) (A)
                 (B) (B) (A) (B) (B) (A) (A) (A) (A) (A) (B) (B)
                 (B) (B) (A) (A) (A) (A) (A) (B) (B) (A) (A) (B)
                 (B) (A) (A) (A) (B) (B) (B) (B) (A) (B) (B) (A)
                 (A) (A) (B) (B) (A) (A) (B) (B) (B) (B) (A) (A)
                 (A) (B) (B) (A) (A) (A) (B) (B) (A) (B) (B) (A)
                 (A) (B) (B) (A) (A) (B) (B) (A) (A) (A) (A) (A)
                 (B) (B) (B) (B) (A) (A) (B) (B) (A) (B) (B) (A)
                 (A) (A) (A) (B) (B) (B) (B) (A) (A) (B) (B) (B)
                 (B) (A) (A) (A) (B) (B) (A) (A) (A) (A) (B) (B)
 The electronic state is 1-A.
 Alpha  occ. eigenvalues --  -10.27485 -10.27467 -10.27467 -10.27448  -0.93838
 Alpha  occ. eigenvalues --   -0.74966  -0.74966  -0.63660  -0.56589  -0.56119
 Alpha  occ. eigenvalues --   -0.46649  -0.46649  -0.43384  -0.39276  -0.38351
 Alpha  occ. eigenvalues --   -0.38351
 Alpha virt. eigenvalues --    0.11801   0.13822   0.14589   0.14589   0.18489
 Alpha virt. eigenvalues --    0.21436   0.21782   0.21782   0.22986   0.22986
 Alpha virt. eigenvalues --    0.28545   0.28577   0.28717   0.29303   0.31423
 Alpha virt. eigenvalues --    0.31423   0.37487   0.44275   0.45041   0.45041
 Alpha virt. eigenvalues --    0.46913   0.46913   0.47418   0.48741   0.50953
 Alpha virt. eigenvalues --    0.52946   0.52946   0.53187   0.54617   0.54617
 Alpha virt. eigenvalues --    0.55887   0.60662   0.66255   0.67693   0.67693
 Alpha virt. eigenvalues --    0.69285   0.83107   0.93277   0.96667   0.98673
 Alpha virt. eigenvalues --    1.00019   1.02180   1.02180   1.04054   1.04054
 Alpha virt. eigenvalues --    1.08529   1.08529   1.11011   1.19251   1.19251
 Alpha virt. eigenvalues --    1.21893   1.25014   1.25014   1.26381   1.29530
 Alpha virt. eigenvalues --    1.35210   1.52448   1.61222   1.63444   1.63444
 Alpha virt. eigenvalues --    1.66635   1.66635   1.71024   1.74944   1.77883
 Alpha virt. eigenvalues --    1.83469   1.83485   1.84638   1.84638   1.85432
 Alpha virt. eigenvalues --    1.86427   1.89891   1.89891   1.99347   2.08272
 Alpha virt. eigenvalues --    2.11237   2.12094   2.12094   2.27655   2.27655
 Alpha virt. eigenvalues --    2.34859   2.38293   2.38293   2.39027   2.53710
 Alpha virt. eigenvalues --    2.55381   2.57880   2.57880   2.59059   2.60322
 Alpha virt. eigenvalues --    2.62746   2.62746   2.70576   2.70576   2.72166
 Alpha virt. eigenvalues --    2.76736   2.78665   2.79282   2.79282   2.80122
 Alpha virt. eigenvalues --    2.80439   2.86296   2.92979   2.92979   3.01708
 Alpha virt. eigenvalues --    3.06156   3.06156   3.08750   3.14300   3.19173
 Alpha virt. eigenvalues --    3.19173   3.31348   3.32121   3.32961   3.32961
 Alpha virt. eigenvalues --    3.34170   3.39500   3.42929   3.46499   3.49556
 Alpha virt. eigenvalues --    3.50115   3.50115   3.66745   3.66745   3.68457
 Alpha virt. eigenvalues --    3.73388   3.81306   3.81306   3.89782   3.90512
 Alpha virt. eigenvalues --    3.90512   4.02504   4.06803   4.09728   4.10061
 Alpha virt. eigenvalues --    4.11766   4.11766   4.21985   4.21985   4.24296
 Alpha virt. eigenvalues --    4.36029   4.46071   4.46071   4.53211   4.53211
 Alpha virt. eigenvalues --    4.60717   4.68289   4.81667   4.94167   4.94167
 Alpha virt. eigenvalues --    5.03642   5.04510  22.40191  22.53339  22.62946
 Alpha virt. eigenvalues --   22.62946
          Condensed to atoms (all electrons):
               1          2          3          4          5          6
     1  C    4.965894   0.319454   0.319454  -0.135706   0.408878   0.404792
     2  C    0.319454   4.965894  -0.135707   0.319454  -0.032050  -0.029121
     3  C    0.319454  -0.135707   4.965894   0.319454  -0.032050  -0.029121
     4  C   -0.135706   0.319454   0.319454   4.965894   0.016046   0.006089
     5  H    0.408878  -0.032050  -0.032050   0.016046   0.583951  -0.025115
     6  H    0.404792  -0.029121  -0.029121   0.006089  -0.025115   0.587513
     7  H   -0.032050   0.408879   0.016046  -0.032050   0.002291  -0.007682
     8  H   -0.029121   0.404792   0.006089  -0.029121  -0.007682   0.004705
     9  H    0.016046  -0.032050  -0.032050   0.408878  -0.000497  -0.000631
    10  H    0.006089  -0.029121  -0.029121   0.404792  -0.000631   0.001242
    11  H   -0.032050   0.016046   0.408879  -0.032050   0.002291  -0.007682
    12  H   -0.029121   0.006089   0.404792  -0.029121  -0.007682   0.004705
               7          8          9         10         11         12
     1  C   -0.032050  -0.029121   0.016046   0.006089  -0.032050  -0.029121
     2  C    0.408879   0.404792  -0.032050  -0.029121   0.016046   0.006089
     3  C    0.016046   0.006089  -0.032050  -0.029121   0.408879   0.404792
     4  C   -0.032050  -0.029121   0.408878   0.404792  -0.032050  -0.029121
     5  H    0.002291  -0.007682  -0.000497  -0.000631   0.002291  -0.007682
     6  H   -0.007682   0.004705  -0.000631   0.001242  -0.007682   0.004705
     7  H    0.583951  -0.025115   0.002291  -0.007682  -0.000497  -0.000631
     8  H   -0.025115   0.587513  -0.007682   0.004705  -0.000631   0.001242
     9  H    0.002291  -0.007682   0.583951  -0.025115   0.002291  -0.007682
    10  H   -0.007682   0.004705  -0.025115   0.587513  -0.007682   0.004705
    11  H   -0.000497  -0.000631   0.002291  -0.007682   0.583951  -0.025115
    12  H   -0.000631   0.001242  -0.007682   0.004705  -0.025115   0.587513
 Mulliken charges:
               1
     1  C   -0.182559
     2  C   -0.182559
     3  C   -0.182559
     4  C   -0.182559
     5  H    0.092252
     6  H    0.090307
     7  H    0.092252
     8  H    0.090307
     9  H    0.092252
    10  H    0.090307
    11  H    0.092252
    12  H    0.090307
 Sum of Mulliken charges =   0.00000
 Mulliken charges with hydrogens summed into heavy atoms:
               1
     1  C    0.000000
     2  C    0.000000
     3  C    0.000000
     4  C    0.000000
 Electronic spatial extent (au):  <R**2>=            267.7448
 Charge=              0.0000 electrons
 Dipole moment (field-independent basis, Debye):
    X=              0.0000    Y=              0.0000    Z=              0.0000  Tot=              0.0000
 Quadrupole moment (field-independent basis, Debye-Ang):
   XX=            -27.2238   YY=            -27.2238   ZZ=            -25.6488
   XY=              0.0000   XZ=              0.0000   YZ=              0.0000
 Traceless Quadrupole moment (field-independent basis, Debye-Ang):
   XX=             -0.5250   YY=             -0.5250   ZZ=              1.0500
   XY=              0.0000   XZ=              0.0000   YZ=              0.0000
 Octapole moment (field-independent basis, Debye-Ang**2):
  XXX=              0.0000  YYY=              0.0000  ZZZ=              0.0000  XYY=              0.0000
  XXY=              0.0000  XXZ=              0.0000  XZZ=              0.0000  YZZ=              0.0000
  YYZ=              0.0000  XYZ=             -0.7403
 Hexadecapole moment (field-independent basis, Debye-Ang**3):
 XXXX=           -160.8750 YYYY=           -160.8750 ZZZZ=            -57.0017 XXXY=              0.0000
 XXXZ=              0.0000 YYYX=              0.0001 YYYZ=              0.0000 ZZZX=              0.0000
 ZZZY=              0.0000 XXYY=            -50.9599 XXZZ=            -34.3634 YYZZ=            -34.3634
 XXYZ=              0.0000 YYXZ=              0.0000 ZZXY=              0.0000
 N-N= 1.270984050390D+02 E-N=-6.179789771295D+02  KE= 1.562953441758D+02
 Symmetry A    KE= 7.745790695749D+01
 Symmetry B    KE= 7.883743721834D+01
 No NMR shielding tensors so no spin-rotation constants.
 Leave Link  601 at Fri Jul  9 19:20:35 2021, MaxMem=  4194304000 cpu:        34.4
 (Enter /home/minenky/programs//g09/l701.exe)
 Compute integral first derivatives.
 ... and contract with generalized density number  0.
 R6Disp: Adding Grimme-D2 dispersion energy 1st derivatives to the gradient.
   2 Symmetry operations used in ECPInt.
 ECPInt:  NShTT=    2926 NPrTT=    8368 LenC2=    2921 LenP2D=    7356.
 LDataN:  DoStor=T MaxTD1= 7 Len=  274
 Leave Link  701 at Fri Jul  9 19:20:36 2021, MaxMem=  4194304000 cpu:        12.8
 (Enter /home/minenky/programs//g09/l702.exe)
 L702 exits ... SP integral derivatives will be done elsewhere.
 Leave Link  702 at Fri Jul  9 19:20:36 2021, MaxMem=  4194304000 cpu:         0.1
 (Enter /home/minenky/programs//g09/l703.exe)
 Compute integral first derivatives, UseDBF=F ICtDFT=           0.
 Integral derivatives from FoFJK, PRISM(SPDF).
 Calling FoFJK, ICntrl=      2127 FMM=F ISym2X=1 I1Cent= 0 IOpClX= 0 NMat=1 NMatS=1 NMatT=0.
 FoFJK:  IHMeth= 1 ICntrl=    2127 DoSepK=T KAlg= 0 I1Cent=   0 FoldK=F
 IRaf=         1 NMat=   1 IRICut=       1 DoRegI=T DoRafI=F ISym2E= 1.
 FoFCou: FMM=F IPFlag=           0 FMFlag=      100000 FMFlg1=         800
         NFxFlg=           0 DoJE=F BraDBF=F KetDBF=F FulRan=T
         wScrn=  0.000000 ICntrl=    2527 IOpCl=  0 I1Cent=           0 NGrid=           0
         NMat0=    1 NMatS0=      1 NMatT0=    0 NMatD0=    1 NMtDS0=    0 NMtDT0=    0
 Petite list used in FoFCou.
 Leave Link  703 at Fri Jul  9 19:20:40 2021, MaxMem=  4194304000 cpu:        57.3
 (Enter /home/minenky/programs//g09/l716.exe)
 Dipole        = 5.32907052D-15 1.33226763D-15-3.95172659D-08
 ***** Axes restored to original set *****
 -------------------------------------------------------------------
 Center     Atomic                   Forces (Hartrees/Bohr)
 Number     Number              X              Y              Z
 -------------------------------------------------------------------
      1        6           0.002244003   -0.001945274   -0.000555977
      2        6           0.001945457    0.002244210    0.000555706
      3        6          -0.001945457   -0.002244210    0.000555706
      4        6          -0.002244003    0.001945274   -0.000555977
      5        1           0.000246584   -0.000214287   -0.000108130
      6        1           0.000232923   -0.000201798   -0.000051713
      7        1           0.000214116    0.000246387    0.000108429
      8        1           0.000201831    0.000232960    0.000051684
      9        1          -0.000246584    0.000214287   -0.000108130
     10        1          -0.000232923    0.000201798   -0.000051713
     11        1          -0.000214116   -0.000246387    0.000108429
     12        1          -0.000201831   -0.000232960    0.000051684
 -------------------------------------------------------------------
 Cartesian Forces:  Max     0.002244210 RMS     0.001019011
 Leave Link  716 at Fri Jul  9 19:20:40 2021, MaxMem=  4194304000 cpu:         0.1
 (Enter /home/minenky/programs//g09/l103.exe)

 GradGradGradGradGradGradGradGradGradGradGradGradGradGradGradGradGradGrad
 Berny optimization.
 FormGI is forming the generalized inverse of G from B-inverse, IUseBI=4.
 Internal  Forces:  Max     0.002573263 RMS     0.000613542
 Search for a local minimum.
 Step number   1 out of a maximum of   82
 All quantities printed in internal units (Hartrees-Bohrs-Radians)
 RMS Force = .61354D-03 SwitMx=.10000D-02 MixMth= 2
 Mixed Optimization -- En-DIIS/RFO-DIIS
 Second derivative matrix not updated -- first step.
 ITU=  0
     Eigenvalues ---    0.00311   0.02236   0.02236   0.03226   0.04715
     Eigenvalues ---    0.04719   0.04719   0.04764   0.05009   0.05235
     Eigenvalues ---    0.06257   0.06257   0.06370   0.07280   0.07821
     Eigenvalues ---    0.07821   0.08848   0.21257   0.25513   0.25513
     Eigenvalues ---    0.26865   0.27695   0.34689   0.34689   0.34689
     Eigenvalues ---    0.34689   0.34826   0.34826   0.34826   0.34826
 RFO step:  Lambda=-1.03690573D-04 EMin= 3.10967736D-03
 Linear search not attempted -- first point.
 Iteration  1 RMS(Cart)=  0.00436891 RMS(Int)=  0.00000569
 Iteration  2 RMS(Cart)=  0.00000629 RMS(Int)=  0.00000102
 Iteration  3 RMS(Cart)=  0.00000000 RMS(Int)=  0.00000102
 ITry= 1 IFail=0 DXMaxC= 1.10D-02 DCOld= 1.00D+10 DXMaxT= 3.00D-01 DXLimC= 3.00D+00 Rises=F
 ClnCor:  largest displacement from symmetrization is 8.56D-13 for atom    11.
 Variable       Old X    -DE/DX   Delta X   Delta X   Delta X     New X
                                 (Linear)    (Quad)   (Total)
    R1        2.92809  -0.00257   0.00000  -0.00929  -0.00929   2.91880
    R2        2.92809  -0.00257   0.00000  -0.00929  -0.00929   2.91880
    R3        2.05959  -0.00020   0.00000  -0.00057  -0.00057   2.05902
    R4        2.06183  -0.00014   0.00000  -0.00041  -0.00041   2.06141
    R5        2.92809  -0.00257   0.00000  -0.00929  -0.00929   2.91880
    R6        2.05959  -0.00020   0.00000  -0.00057  -0.00057   2.05902
    R7        2.06183  -0.00014   0.00000  -0.00041  -0.00041   2.06141
    R8        2.92809  -0.00257   0.00000  -0.00929  -0.00929   2.91880
    R9        2.05959  -0.00020   0.00000  -0.00057  -0.00057   2.05902
   R10        2.06183  -0.00014   0.00000  -0.00041  -0.00041   2.06141
   R11        2.05959  -0.00020   0.00000  -0.00057  -0.00057   2.05902
   R12        2.06183  -0.00014   0.00000  -0.00041  -0.00041   2.06141
    A1        1.54483   0.00000   0.00000  -0.00065  -0.00065   1.54418
    A2        2.05580  -0.00005   0.00000  -0.00092  -0.00092   2.05488
    A3        1.94668  -0.00005   0.00000  -0.00046  -0.00046   1.94622
    A4        2.05579  -0.00005   0.00000  -0.00091  -0.00091   2.05488
    A5        1.94668  -0.00005   0.00000  -0.00046  -0.00046   1.94622
    A6        1.89465   0.00016   0.00000   0.00264   0.00264   1.89730
    A7        1.54483   0.00000   0.00000  -0.00065  -0.00065   1.54418
    A8        2.05579  -0.00005   0.00000  -0.00091  -0.00091   2.05488
    A9        1.94668  -0.00005   0.00000  -0.00046  -0.00046   1.94622
   A10        2.05580  -0.00005   0.00000  -0.00092  -0.00092   2.05488
   A11        1.94668  -0.00005   0.00000  -0.00046  -0.00046   1.94622
   A12        1.89465   0.00016   0.00000   0.00264   0.00264   1.89730
   A13        1.54483   0.00000   0.00000  -0.00065  -0.00065   1.54418
   A14        2.05580  -0.00005   0.00000  -0.00092  -0.00092   2.05488
   A15        1.94668  -0.00005   0.00000  -0.00046  -0.00046   1.94622
   A16        2.05579  -0.00005   0.00000  -0.00091  -0.00091   2.05488
   A17        1.94668  -0.00005   0.00000  -0.00046  -0.00046   1.94622
   A18        1.89465   0.00016   0.00000   0.00264   0.00264   1.89730
   A19        1.54483   0.00000   0.00000  -0.00065  -0.00065   1.54418
   A20        2.05579  -0.00005   0.00000  -0.00091  -0.00091   2.05488
   A21        1.94668  -0.00005   0.00000  -0.00046  -0.00046   1.94622
   A22        2.05580  -0.00005   0.00000  -0.00092  -0.00092   2.05488
   A23        1.94668  -0.00005   0.00000  -0.00046  -0.00046   1.94622
   A24        1.89465   0.00016   0.00000   0.00264   0.00264   1.89730
    D1        0.31950   0.00002   0.00000   0.00393   0.00393   0.32344
    D2        2.42953  -0.00006   0.00000   0.00221   0.00221   2.43175
    D3       -1.64599   0.00008   0.00000   0.00476   0.00476  -1.64123
    D4        2.42953  -0.00006   0.00000   0.00222   0.00222   2.43174
    D5       -1.74363  -0.00014   0.00000   0.00050   0.00050  -1.74313
    D6        0.46403   0.00000   0.00000   0.00305   0.00305   0.46708
    D7       -1.64599   0.00008   0.00000   0.00476   0.00476  -1.64123
    D8        0.46403   0.00000   0.00000   0.00304   0.00304   0.46708
    D9        2.67170   0.00014   0.00000   0.00559   0.00559   2.67729
   D10       -0.31950  -0.00002   0.00000  -0.00393  -0.00393  -0.32344
   D11       -2.42953   0.00006   0.00000  -0.00222  -0.00222  -2.43174
   D12        1.64599  -0.00008   0.00000  -0.00476  -0.00476   1.64123
   D13       -2.42953   0.00006   0.00000  -0.00221  -0.00221  -2.43175
   D14        1.74363   0.00014   0.00000  -0.00050  -0.00050   1.74313
   D15       -0.46403   0.00000   0.00000  -0.00305  -0.00305  -0.46708
   D16        1.64599  -0.00008   0.00000  -0.00476  -0.00476   1.64123
   D17       -0.46403   0.00000   0.00000  -0.00305  -0.00305  -0.46708
   D18       -2.67170  -0.00014   0.00000  -0.00559  -0.00559  -2.67729
   D19       -0.31950  -0.00002   0.00000  -0.00393  -0.00393  -0.32344
   D20       -2.42953   0.00006   0.00000  -0.00221  -0.00221  -2.43175
   D21        1.64599  -0.00008   0.00000  -0.00476  -0.00476   1.64123
   D22       -2.42953   0.00006   0.00000  -0.00222  -0.00222  -2.43174
   D23        1.74363   0.00014   0.00000  -0.00050  -0.00050   1.74313
   D24       -0.46403   0.00000   0.00000  -0.00305  -0.00305  -0.46708
   D25        1.64599  -0.00008   0.00000  -0.00476  -0.00476   1.64123
   D26       -0.46403   0.00000   0.00000  -0.00305  -0.00305  -0.46708
   D27       -2.67170  -0.00014   0.00000  -0.00559  -0.00559  -2.67729
   D28        0.31950   0.00002   0.00000   0.00393   0.00393   0.32344
   D29        2.42953  -0.00006   0.00000   0.00222   0.00222   2.43174
   D30       -1.64599   0.00008   0.00000   0.00476   0.00476  -1.64123
   D31        2.42953  -0.00006   0.00000   0.00221   0.00221   2.43175
   D32       -1.74363  -0.00014   0.00000   0.00050   0.00050  -1.74313
   D33        0.46403   0.00000   0.00000   0.00304   0.00304   0.46708
   D34       -1.64599   0.00008   0.00000   0.00476   0.00476  -1.64123
   D35        0.46403   0.00000   0.00000   0.00305   0.00305   0.46708
   D36        2.67170   0.00014   0.00000   0.00559   0.00559   2.67729
         Item               Value     Threshold  Converged?
 Maximum Force            0.002573     0.000015     NO 
 RMS     Force            0.000614     0.000010     NO 
 Maximum Displacement     0.011003     0.000060     NO 
 RMS     Displacement     0.004369     0.000040     NO 
 Predicted change in Energy=-5.188827D-05
 Lowest energy point so far.  Saving SCF results.
 GradGradGradGradGradGradGradGradGradGradGradGradGradGradGradGradGradGrad

 Leave Link  103 at Fri Jul  9 19:20:42 2021, MaxMem=  4194304000 cpu:        20.4
 (Enter /home/minenky/programs//g09/l202.exe)
                          Input orientation:                          
 ---------------------------------------------------------------------
 Center     Atomic      Atomic             Coordinates (Angstroms)
 Number     Number       Type             X           Y           Z
 ---------------------------------------------------------------------
      1          6           0       -0.814092    0.705937    0.125992
      2          6           0       -0.705937   -0.814092   -0.125992
      3          6           0        0.705937    0.814092   -0.125992
      4          6           0        0.814092   -0.705937    0.125992
      5          1           0       -1.477291    1.281030   -0.519478
      6          1           0       -1.063570    0.922271    1.165666
      7          1           0       -1.281030   -1.477291    0.519477
      8          1           0       -0.922271   -1.063570   -1.165666
      9          1           0        1.477291   -1.281030   -0.519478
     10          1           0        1.063570   -0.922271    1.165666
     11          1           0        1.281030    1.477291    0.519477
     12          1           0        0.922271    1.063570   -1.165666
 ---------------------------------------------------------------------
                    Distance matrix (angstroms):
                    1          2          3          4          5
     1  C    0.000000
     2  C    1.544565   0.000000
     3  C    1.544565   2.155080   0.000000
     4  C    2.155080   1.544565   1.544565   0.000000
     5  H    1.089586   2.267014   2.267013   3.100823   0.000000
     6  H    1.090853   2.193453   2.193453   2.693992   1.771886
     7  H    2.267013   1.089586   3.100823   2.267014   2.954028
     8  H    2.193453   1.090853   2.693992   2.193453   2.494545
     9  H    3.100823   2.267013   2.267014   1.089586   3.910717
    10  H    2.693992   2.193453   2.193453   1.090853   3.761678
    11  H    2.267014   3.100823   1.089586   2.267013   2.954028
    12  H    2.193453   2.693992   1.090853   2.193453   2.494543
                    6          7          8          9         10
     6  H    0.000000
     7  H    2.494543   0.000000
     8  H    3.065719   1.771886   0.000000
     9  H    3.761678   2.954028   2.494543   0.000000
    10  H    2.815503   2.494545   3.065719   1.771886   0.000000
    11  H    2.494545   3.910717   3.761677   2.954028   2.494543
    12  H    3.065719   3.761677   2.815503   2.494545   3.065719
                   11         12
    11  H    0.000000
    12  H    1.771886   0.000000
 Stoichiometry    C4H8
 Framework group  C2[X(C4H8)]
 Deg. of freedom    16
 Full point group                 C2      NOp   2
 RotChk:  IX=0 Diff= 2.00D+00
 Largest Abelian subgroup         C2      NOp   2
 Largest concise Abelian subgroup C2      NOp   2
                         Standard orientation:                         
 ---------------------------------------------------------------------
 Center     Atomic      Atomic             Coordinates (Angstroms)
 Number     Number       Type             X           Y           Z
 ---------------------------------------------------------------------
      1          6           0       -0.761936   -0.761936   -0.125992
      2          6           0       -0.761936    0.761936    0.125992
      3          6           0        0.761936   -0.761936    0.125992
      4          6           0        0.761936    0.761936   -0.125992
      5          1           0       -1.382647   -1.382648    0.519478
      6          1           0       -0.995431   -0.995430   -1.165666
      7          1           0       -1.382648    1.382647   -0.519478
      8          1           0       -0.995430    0.995431    1.165666
      9          1           0        1.382647    1.382648    0.519478
     10          1           0        0.995431    0.995430   -1.165666
     11          1           0        1.382648   -1.382647   -0.519478
     12          1           0        0.995430   -0.995431    1.165666
 ---------------------------------------------------------------------
 Rotational constants (GHZ):     10.7768390     10.7768388      6.3862961
 Leave Link  202 at Fri Jul  9 19:20:42 2021, MaxMem=  4194304000 cpu:         0.6
 (Enter /home/minenky/programs//g09/l301.exe)
 Standard basis: def2TZVP (5D, 7F)
 Ernie: Thresh=  0.10000D-02 Tol=  0.10000D-05 Strict=F.
 There are    96 symmetry adapted cartesian basis functions of A   symmetry.
 There are    96 symmetry adapted cartesian basis functions of B   symmetry.
 There are    86 symmetry adapted basis functions of A   symmetry.
 There are    86 symmetry adapted basis functions of B   symmetry.
   172 basis functions,   268 primitive gaussians,   192 cartesian basis functions
    16 alpha electrons       16 beta electrons
       nuclear repulsion energy       127.4158015567 Hartrees.
 IExCor= 4639 DFT=T Ex+Corr=wB97XD ExCW=0 ScaHFX=  1.000000
 ScaDFX=  1.000000  1.000000  1.000000  1.000000 ScalE2=  1.000000  1.000000
 IRadAn=      5 IRanWt=     -1 IRanGd=            0 ICorTp=0 IEmpDi=121
  HFx wShort=  0.000000 wLong=  0.200000 cFull=  0.222036 cShort=  0.000000 cLong=  0.777964
  DFx wShort=  0.000000 wLong=  0.200000 cFull=  0.000000 cShort=  0.000000 cLong=  1.000000
 NAtoms=   12 NActive=   12 NUniq=    6 SFac= 4.00D+00 NAtFMM=   60 NAOKFM=F Big=F
 Integral buffers will be    131072 words long.
 Raffenetti 2 integral format.
 Two-electron integral symmetry is turned on.
 R6Disp:  Grimme-D2 Dispersion energy=       -0.0049663956 Hartrees.
 Nuclear repulsion after empirical dispersion term =      127.4108351611 Hartrees.
 Leave Link  301 at Fri Jul  9 19:20:42 2021, MaxMem=  4194304000 cpu:         0.2
 (Enter /home/minenky/programs//g09/l302.exe)
 NPDir=0 NMtPBC=     1 NCelOv=     1 NCel=       1 NClECP=     1 NCelD=      1
         NCelK=      1 NCelE2=     1 NClLst=     1 CellRange=     0.0.
 One-electron integrals computed using PRISM.
 One-electron integral symmetry used in STVInt
   2 Symmetry operations used in ECPInt.
 ECPInt:  NShTT=    2926 NPrTT=    8368 LenC2=    2921 LenP2D=    7364.
 LDataN:  DoStor=T MaxTD1= 6 Len=  172
 NBasis=   172 RedAO= T EigKep=  6.56D-05  NBF=    86    86
 NBsUse=   172 1.00D-06 EigRej= -1.00D+00 NBFU=    86    86
 Precomputing XC quadrature grid using
 IXCGrd= 4 IRadAn=           5 IRanWt=          -1 IRanGd=           0 AccXCQ= 0.00D+00.
 Generated NRdTot=       0 NPtTot=           0 NUsed=           0 NTot=          32
 NSgBfM=   192   192   192   192   192 MxSgAt=    12 MxSgA2=    12.
 Leave Link  302 at Fri Jul  9 19:20:43 2021, MaxMem=  4194304000 cpu:         5.6
 (Enter /home/minenky/programs//g09/l303.exe)
 DipDrv:  MaxL=1.
 Leave Link  303 at Fri Jul  9 19:20:44 2021, MaxMem=  4194304000 cpu:         3.5
 (Enter /home/minenky/programs//g09/l401.exe)
 Initial guess from the checkpoint file:  "m1_00_287-23-00_C4H8_wB97XD.chk"
 B after Tr=     0.000000    0.000000    0.000000
         Rot=    0.707107    0.000000    0.000000   -0.707107 Ang= -90.00 deg.
 Guess basis will be translated and rotated to current coordinates.
 JPrj=2 DoOrth=T DoCkMO=T.
 Initial guess orbital symmetries:
       Occupied  (A) (B) (B) (A) (A) (B) (B) (A) (A) (A) (B) (B)
                 (A) (A) (B) (B)
       Virtual   (A) (A) (A) (A) (A) (A) (A) (A) (A) (A) (A) (A)
                 (A) (A) (A) (A) (A) (A) (A) (A) (A) (A) (A) (A)
                 (A) (A) (A) (A) (A) (A) (A) (A) (A) (A) (A) (A)
                 (A) (A) (A) (A) (A) (A) (A) (A) (A) (A) (A) (A)
                 (A) (A) (A) (A) (A) (A) (A) (A) (A) (A) (A) (A)
                 (A) (A) (A) (A) (A) (A) (A) (A) (A) (A) (A) (A)
                 (A) (A) (A) (A) (A) (A) (B) (B) (B) (B) (B) (B)
                 (B) (B) (B) (B) (B) (B) (B) (B) (B) (B) (B) (B)
                 (B) (B) (B) (B) (B) (B) (B) (B) (B) (B) (B) (B)
                 (B) (B) (B) (B) (B) (B) (B) (B) (B) (B) (B) (B)
                 (B) (B) (B) (B) (B) (B) (B) (B) (B) (B) (B) (B)
                 (B) (B) (B) (B) (B) (B) (B) (B) (B) (B) (B) (B)
                 (B) (B) (B) (B) (B) (B) (B) (B) (B) (B) (B) (B)
 The electronic state of the initial guess is 1-A.
 Leave Link  401 at Fri Jul  9 19:20:46 2021, MaxMem=  4194304000 cpu:        21.4
 (Enter /home/minenky/programs//g09/l502.exe)
 Closed shell SCF:
 Using DIIS extrapolation, IDIIS=  1040.
 Integral symmetry usage will be decided dynamically.
 Keep R1 ints in memory in symmetry-blocked form, NReq=332360078.
 IVT=      263166 IEndB=      263166 NGot=  4194304000 MDV=  4138661866
 LenX=  4138661866 LenY=  4138624561
 Requested convergence on RMS density matrix=1.00D-08 within 380 cycles.
 Requested convergence on MAX density matrix=1.00D-06.
 Requested convergence on             energy=1.00D-06.
 No special actions if energy rises.
 FoFCou: FMM=F IPFlag=           0 FMFlag=           0 FMFlg1=           0
         NFxFlg=           0 DoJE=F BraDBF=F KetDBF=F FulRan=T
         wScrn=  0.000000 ICntrl=     600 IOpCl=  0 I1Cent=           0 NGrid=           0
         NMat0=    1 NMatS0=  14878 NMatT0=    0 NMatD0=    1 NMtDS0=    0 NMtDT0=    0
 Petite list used in FoFCou.

 Cycle   1  Pass 1  IDiag  1:
 E= -157.220698349329    
 DIIS: error= 4.35D-04 at cycle   1 NSaved=   1.
 NSaved= 1 IEnMin= 1 EnMin= -157.220698349329     IErMin= 1 ErrMin= 4.35D-04
 ErrMax= 4.35D-04  0.00D+00 EMaxC= 1.00D-01 BMatC= 2.14D-05 BMatP= 2.14D-05
 IDIUse=3 WtCom= 9.96D-01 WtEn= 4.35D-03
 Coeff-Com:  0.100D+01
 Coeff-En:   0.100D+01
 Coeff:      0.100D+01
 Gap=     0.902 Goal=   None    Shift=    0.000
 RMSDP=3.93D-05 MaxDP=9.38D-04              OVMax= 1.14D-03

 Cycle   2  Pass 1  IDiag  1:
 E= -157.220717253178     Delta-E=       -0.000018903849 Rises=F Damp=F
 DIIS: error= 1.77D-04 at cycle   2 NSaved=   2.
 NSaved= 2 IEnMin= 2 EnMin= -157.220717253178     IErMin= 2 ErrMin= 1.77D-04
 ErrMax= 1.77D-04  0.00D+00 EMaxC= 1.00D-01 BMatC= 2.41D-06 BMatP= 2.14D-05
 IDIUse=3 WtCom= 9.98D-01 WtEn= 1.77D-03
 Coeff-Com:  0.126D+00 0.874D+00
 Coeff-En:   0.000D+00 0.100D+01
 Coeff:      0.126D+00 0.874D+00
 Gap=     0.501 Goal=   None    Shift=    0.000
 RMSDP=1.08D-05 MaxDP=1.55D-04 DE=-1.89D-05 OVMax= 5.59D-04

 Cycle   3  Pass 1  IDiag  1:
 E= -157.220718965682     Delta-E=       -0.000001712504 Rises=F Damp=F
 DIIS: error= 1.35D-04 at cycle   3 NSaved=   3.
 NSaved= 3 IEnMin= 3 EnMin= -157.220718965682     IErMin= 3 ErrMin= 1.35D-04
 ErrMax= 1.35D-04  0.00D+00 EMaxC= 1.00D-01 BMatC= 9.55D-07 BMatP= 2.41D-06
 IDIUse=3 WtCom= 9.99D-01 WtEn= 1.35D-03
 Coeff-Com: -0.528D-01 0.370D+00 0.683D+00
 Coeff-En:   0.000D+00 0.147D+00 0.853D+00
 Coeff:     -0.527D-01 0.370D+00 0.683D+00
 Gap=     0.501 Goal=   None    Shift=    0.000
 RMSDP=4.24D-06 MaxDP=5.82D-05 DE=-1.71D-06 OVMax= 2.13D-04

 Cycle   4  Pass 1  IDiag  1:
 E= -157.220719921579     Delta-E=       -0.000000955896 Rises=F Damp=F
 DIIS: error= 8.63D-06 at cycle   4 NSaved=   4.
 NSaved= 4 IEnMin= 4 EnMin= -157.220719921579     IErMin= 4 ErrMin= 8.63D-06
 ErrMax= 8.63D-06  0.00D+00 EMaxC= 1.00D-01 BMatC= 5.85D-09 BMatP= 9.55D-07
 IDIUse=1 WtCom= 1.00D+00 WtEn= 0.00D+00
 Coeff-Com: -0.332D-03-0.527D-01-0.247D-01 0.108D+01
 Coeff:     -0.332D-03-0.527D-01-0.247D-01 0.108D+01
 Gap=     0.501 Goal=   None    Shift=    0.000
 RMSDP=1.45D-06 MaxDP=1.74D-05 DE=-9.56D-07 OVMax= 5.92D-05

 Cycle   5  Pass 1  IDiag  1:
 E= -157.220719935530     Delta-E=       -0.000000013951 Rises=F Damp=F
 DIIS: error= 2.01D-06 at cycle   5 NSaved=   5.
 NSaved= 5 IEnMin= 5 EnMin= -157.220719935530     IErMin= 5 ErrMin= 2.01D-06
 ErrMax= 2.01D-06  0.00D+00 EMaxC= 1.00D-01 BMatC= 2.36D-10 BMatP= 5.85D-09
 IDIUse=1 WtCom= 1.00D+00 WtEn= 0.00D+00
 Coeff-Com:  0.188D-02-0.184D-01-0.317D-01 0.795D-01 0.969D+00
 Coeff:      0.188D-02-0.184D-01-0.317D-01 0.795D-01 0.969D+00
 Gap=     0.501 Goal=   None    Shift=    0.000
 RMSDP=4.03D-07 MaxDP=5.24D-06 DE=-1.40D-08 OVMax= 1.27D-05

 Cycle   6  Pass 1  IDiag  1:
 E= -157.220719936079     Delta-E=       -0.000000000549 Rises=F Damp=F
 DIIS: error= 4.43D-07 at cycle   6 NSaved=   6.
 NSaved= 6 IEnMin= 6 EnMin= -157.220719936079     IErMin= 6 ErrMin= 4.43D-07
 ErrMax= 4.43D-07  0.00D+00 EMaxC= 1.00D-01 BMatC= 7.97D-12 BMatP= 2.36D-10
 IDIUse=1 WtCom= 1.00D+00 WtEn= 0.00D+00
 Coeff-Com: -0.215D-03 0.461D-02 0.364D-02-0.558D-01-0.706D-01 0.112D+01
 Coeff:     -0.215D-03 0.461D-02 0.364D-02-0.558D-01-0.706D-01 0.112D+01
 Gap=     0.501 Goal=   None    Shift=    0.000
 RMSDP=1.30D-07 MaxDP=1.75D-06 DE=-5.49D-10 OVMax= 3.63D-06

 Cycle   7  Pass 1  IDiag  1:
 E= -157.220719936109     Delta-E=       -0.000000000030 Rises=F Damp=F
 DIIS: error= 4.38D-08 at cycle   7 NSaved=   7.
 NSaved= 7 IEnMin= 7 EnMin= -157.220719936109     IErMin= 7 ErrMin= 4.38D-08
 ErrMax= 4.38D-08  0.00D+00 EMaxC= 1.00D-01 BMatC= 1.10D-13 BMatP= 7.97D-12
 IDIUse=1 WtCom= 1.00D+00 WtEn= 0.00D+00
 Coeff-Com:  0.251D-05-0.367D-03 0.108D-03 0.684D-02-0.111D-01-0.153D+00
 Coeff-Com:  0.116D+01
 Coeff:      0.251D-05-0.367D-03 0.108D-03 0.684D-02-0.111D-01-0.153D+00
 Coeff:      0.116D+01
 Gap=     0.501 Goal=   None    Shift=    0.000
 RMSDP=1.80D-08 MaxDP=2.40D-07 DE=-2.97D-11 OVMax= 5.23D-07

 Cycle   8  Pass 1  IDiag  1:
 E= -157.220719936107     Delta-E=        0.000000000002 Rises=F Damp=F
 DIIS: error= 7.74D-09 at cycle   8 NSaved=   8.
 NSaved= 8 IEnMin= 7 EnMin= -157.220719936109     IErMin= 8 ErrMin= 7.74D-09
 ErrMax= 7.74D-09  0.00D+00 EMaxC= 1.00D-01 BMatC= 2.78D-15 BMatP= 1.10D-13
 IDIUse=1 WtCom= 1.00D+00 WtEn= 0.00D+00
 Coeff-Com:  0.326D-05-0.540D-04-0.895D-04 0.557D-03 0.212D-02-0.520D-02
 Coeff-Com: -0.139D+00 0.114D+01
 Coeff:      0.326D-05-0.540D-04-0.895D-04 0.557D-03 0.212D-02-0.520D-02
 Coeff:     -0.139D+00 0.114D+01
 Gap=     0.501 Goal=   None    Shift=    0.000
 RMSDP=1.89D-09 MaxDP=2.53D-08 DE= 1.99D-12 OVMax= 7.09D-08

 SCF Done:  E(RwB97XD) =  -157.220719936     A.U. after    8 cycles
            NFock=  8  Conv=0.19D-08     -V/T= 2.0057
 KE= 1.563294002527D+02 PE=-6.186282001656D+02 EE= 1.776672448157D+02
 Leave Link  502 at Fri Jul  9 19:20:55 2021, MaxMem=  4194304000 cpu:       135.7
 (Enter /home/minenky/programs//g09/l701.exe)
 Compute integral first derivatives.
 ... and contract with generalized density number  0.
 R6Disp: Adding Grimme-D2 dispersion energy 1st derivatives to the gradient.
   2 Symmetry operations used in ECPInt.
 ECPInt:  NShTT=    2926 NPrTT=    8368 LenC2=    2921 LenP2D=    7364.
 LDataN:  DoStor=T MaxTD1= 7 Len=  274
 Leave Link  701 at Fri Jul  9 19:20:58 2021, MaxMem=  4194304000 cpu:        27.2
[...]
    D5       -1.73613   0.00000   0.00000   0.00000   0.00000  -1.73613
    D6        0.47341   0.00000   0.00000   0.00000   0.00000   0.47341
    D7       -1.63718   0.00000   0.00000   0.00000   0.00000  -1.63718
    D8        0.47341   0.00000   0.00000   0.00000   0.00000   0.47341
    D9        2.68294   0.00000   0.00000   0.00000   0.00000   2.68294
   D10       -0.32588   0.00000   0.00000   0.00000   0.00000  -0.32588
   D11       -2.43647   0.00000   0.00000   0.00000   0.00000  -2.43647
   D12        1.63718   0.00000   0.00000   0.00000   0.00000   1.63718
   D13       -2.43647   0.00000   0.00000   0.00000   0.00000  -2.43647
   D14        1.73613   0.00000   0.00000   0.00000   0.00000   1.73613
   D15       -0.47341   0.00000   0.00000   0.00000   0.00000  -0.47341
   D16        1.63718   0.00000   0.00000   0.00000   0.00000   1.63718
   D17       -0.47341   0.00000   0.00000   0.00000   0.00000  -0.47341
   D18       -2.68294   0.00000   0.00000   0.00000   0.00000  -2.68294
   D19       -0.32588   0.00000   0.00000   0.00000   0.00000  -0.32588
   D20       -2.43647   0.00000   0.00000   0.00000   0.00000  -2.43647
   D21        1.63718   0.00000   0.00000   0.00000   0.00000   1.63718
   D22       -2.43647   0.00000   0.00000   0.00000   0.00000  -2.43647
   D23        1.73613   0.00000   0.00000   0.00000   0.00000   1.73613
   D24       -0.47341   0.00000   0.00000   0.00000   0.00000  -0.47341
   D25        1.63718   0.00000   0.00000   0.00000   0.00000   1.63718
   D26       -0.47341   0.00000   0.00000   0.00000   0.00000  -0.47341
   D27       -2.68294   0.00000   0.00000   0.00000   0.00000  -2.68294
   D28        0.32588   0.00000   0.00000   0.00000   0.00000   0.32588
   D29        2.43647   0.00000   0.00000   0.00000   0.00000   2.43647
   D30       -1.63718   0.00000   0.00000   0.00000   0.00000  -1.63718
   D31        2.43647   0.00000   0.00000   0.00000   0.00000   2.43647
   D32       -1.73613   0.00000   0.00000   0.00000   0.00000  -1.73613
   D33        0.47341   0.00000   0.00000   0.00000   0.00000   0.47341
   D34       -1.63718   0.00000   0.00000   0.00000   0.00000  -1.63718
   D35        0.47341   0.00000   0.00000   0.00000   0.00000   0.47341
   D36        2.68294   0.00000   0.00000   0.00000   0.00000   2.68294
         Item               Value     Threshold  Converged?
 Maximum Force            0.000000     0.000015     YES
 RMS     Force            0.000000     0.000010     YES
 Maximum Displacement     0.000003     0.000060     YES
 RMS     Displacement     0.000001     0.000040     YES
 Predicted change in Energy=-1.832724D-12
 Optimization completed.
    -- Stationary point found.
                           ----------------------------
                           !   Optimized Parameters   !
                           ! (Angstroms and Degrees)  !
 --------------------------                            --------------------------
 ! Name  Definition              Value          Derivative Info.                !
 --------------------------------------------------------------------------------
 ! R1    R(1,2)                  1.5446         -DE/DX =    0.0                 !
 ! R2    R(1,3)                  1.5446         -DE/DX =    0.0                 !
 ! R3    R(1,5)                  1.0897         -DE/DX =    0.0                 !
 ! R4    R(1,6)                  1.091          -DE/DX =    0.0                 !
 ! R5    R(2,4)                  1.5446         -DE/DX =    0.0                 !
 ! R6    R(2,7)                  1.0897         -DE/DX =    0.0                 !
 ! R7    R(2,8)                  1.091          -DE/DX =    0.0                 !
 ! R8    R(3,4)                  1.5446         -DE/DX =    0.0                 !
 ! R9    R(3,11)                 1.0897         -DE/DX =    0.0                 !
 ! R10   R(3,12)                 1.091          -DE/DX =    0.0                 !
 ! R11   R(4,9)                  1.0897         -DE/DX =    0.0                 !
 ! R12   R(4,10)                 1.091          -DE/DX =    0.0                 !
 ! A1    A(2,1,3)               88.4514         -DE/DX =    0.0                 !
 ! A2    A(2,1,5)              117.836          -DE/DX =    0.0                 !
 ! A3    A(2,1,6)              111.4427         -DE/DX =    0.0                 !
 ! A4    A(3,1,5)              117.836          -DE/DX =    0.0                 !
 ! A5    A(3,1,6)              111.4427         -DE/DX =    0.0                 !
 ! A6    A(5,1,6)              108.6633         -DE/DX =    0.0                 !
 ! A7    A(1,2,4)               88.4514         -DE/DX =    0.0                 !
 ! A8    A(1,2,7)              117.836          -DE/DX =    0.0                 !
 ! A9    A(1,2,8)              111.4427         -DE/DX =    0.0                 !
 ! A10   A(4,2,7)              117.836          -DE/DX =    0.0                 !
 ! A11   A(4,2,8)              111.4427         -DE/DX =    0.0                 !
 ! A12   A(7,2,8)              108.6633         -DE/DX =    0.0                 !
 ! A13   A(1,3,4)               88.4514         -DE/DX =    0.0                 !
 ! A14   A(1,3,11)             117.836          -DE/DX =    0.0                 !
 ! A15   A(1,3,12)             111.4427         -DE/DX =    0.0                 !
 ! A16   A(4,3,11)             117.836          -DE/DX =    0.0                 !
 ! A17   A(4,3,12)             111.4427         -DE/DX =    0.0                 !
 ! A18   A(11,3,12)            108.6633         -DE/DX =    0.0                 !
 ! A19   A(2,4,3)               88.4514         -DE/DX =    0.0                 !
 ! A20   A(2,4,9)              117.836          -DE/DX =    0.0                 !
 ! A21   A(2,4,10)             111.4427         -DE/DX =    0.0                 !
 ! A22   A(3,4,9)              117.836          -DE/DX =    0.0                 !
 ! A23   A(3,4,10)             111.4427         -DE/DX =    0.0                 !
 ! A24   A(9,4,10)             108.6633         -DE/DX =    0.0                 !
 ! D1    D(3,1,2,4)             18.6713         -DE/DX =    0.0                 !
 ! D2    D(3,1,2,7)            139.5993         -DE/DX =    0.0                 !
 ! D3    D(3,1,2,8)            -93.8037         -DE/DX =    0.0                 !
 ! D4    D(5,1,2,4)            139.5993         -DE/DX =    0.0                 !
 ! D5    D(5,1,2,7)            -99.4728         -DE/DX =    0.0                 !
 ! D6    D(5,1,2,8)             27.1242         -DE/DX =    0.0                 !
 ! D7    D(6,1,2,4)            -93.8037         -DE/DX =    0.0                 !
 ! D8    D(6,1,2,7)             27.1242         -DE/DX =    0.0                 !
 ! D9    D(6,1,2,8)            153.7213         -DE/DX =    0.0                 !
 ! D10   D(2,1,3,4)            -18.6713         -DE/DX =    0.0                 !
 ! D11   D(2,1,3,11)          -139.5993         -DE/DX =    0.0                 !
 ! D12   D(2,1,3,12)            93.8037         -DE/DX =    0.0                 !
 ! D13   D(5,1,3,4)           -139.5993         -DE/DX =    0.0                 !
 ! D14   D(5,1,3,11)            99.4728         -DE/DX =    0.0                 !
 ! D15   D(5,1,3,12)           -27.1242         -DE/DX =    0.0                 !
 ! D16   D(6,1,3,4)             93.8037         -DE/DX =    0.0                 !
 ! D17   D(6,1,3,11)           -27.1242         -DE/DX =    0.0                 !
 ! D18   D(6,1,3,12)          -153.7213         -DE/DX =    0.0                 !
 ! D19   D(1,2,4,3)            -18.6713         -DE/DX =    0.0                 !
 ! D20   D(1,2,4,9)           -139.5993         -DE/DX =    0.0                 !
 ! D21   D(1,2,4,10)            93.8037         -DE/DX =    0.0                 !
 ! D22   D(7,2,4,3)           -139.5993         -DE/DX =    0.0                 !
 ! D23   D(7,2,4,9)             99.4728         -DE/DX =    0.0                 !
 ! D24   D(7,2,4,10)           -27.1242         -DE/DX =    0.0                 !
 ! D25   D(8,2,4,3)             93.8037         -DE/DX =    0.0                 !
 ! D26   D(8,2,4,9)            -27.1242         -DE/DX =    0.0                 !
 ! D27   D(8,2,4,10)          -153.7213         -DE/DX =    0.0                 !
 ! D28   D(1,3,4,2)             18.6713         -DE/DX =    0.0                 !
 ! D29   D(1,3,4,9)            139.5993         -DE/DX =    0.0                 !
 ! D30   D(1,3,4,10)           -93.8037         -DE/DX =    0.0                 !
 ! D31   D(11,3,4,2)           139.5993         -DE/DX =    0.0                 !
 ! D32   D(11,3,4,9)           -99.4728         -DE/DX =    0.0                 !
 ! D33   D(11,3,4,10)           27.1242         -DE/DX =    0.0                 !
 ! D34   D(12,3,4,2)           -93.8037         -DE/DX =    0.0                 !
 ! D35   D(12,3,4,9)            27.1242         -DE/DX =    0.0                 !
 ! D36   D(12,3,4,10)          153.7213         -DE/DX =    0.0                 !
 --------------------------------------------------------------------------------
 GradGradGradGradGradGradGradGradGradGradGradGradGradGradGradGradGradGrad

 Leave Link  103 at Fri Jul  9 19:24:55 2021, MaxMem=  4194304000 cpu:        22.6
 (Enter /home/minenky/programs//g09/l9999.exe)
 1\1\GINC-CN506-07-R\Freq\RwB97XD\def2TZVP\C4H8\MINENKY\09-Jul-2021\0\\
 #P Geom=AllCheck Guess=TCheck SCRF=Check GenChk RwB97XD/def2TZVP Freq\
 \The PBEPBE optimization and frequencies\\0,1\C,-0.8139184141,0.705787
 3443,0.1269590481\C,-0.705787313,-0.8139183829,-0.1269593819\C,0.70578
 7313,0.8139184454,-0.1269593819\C,0.8139184141,-0.7057872818,0.1269590
 481\H,-1.4793123382,1.2827820559,-0.5146763766\H,-1.0605591422,0.91966
 121,1.167966256\H,-1.2827820246,-1.479312307,0.5146760428\H,-0.9196611
 787,-1.0605591109,-1.1679665898\H,1.4793123382,-1.2827819934,-0.514676
 3766\H,1.0605591422,-0.9196611475,1.167966256\H,1.2827820246,1.4793123
 695,0.5146760428\H,0.9196611787,1.0605591734,-1.1679665898\\Version=AM
 64L-G09RevD.01\HF=-157.2207218\RMSD=2.958e-10\RMSF=2.148e-07\ZeroPoint
 =0.1115663\Thermal=0.1156748\Dipole=0.,0.,0.\DipoleDeriv=0.0493104,-0.
 0694211,0.06693,-0.0694211,0.0294519,-0.0580382,0.0210656,-0.018267,0.
 1454726,0.0294519,0.0694211,-0.0580382,0.0694211,0.0493104,-0.06693,-0
 .018267,-0.0210656,0.1454726,0.0294519,0.0694211,0.0580381,0.0694211,0
 .0493104,0.06693,0.018267,0.0210656,0.1454726,0.0493105,-0.0694211,-0.
 0669299,-0.0694211,0.0294519,0.0580381,-0.0210656,0.018267,0.1454726,-
 0.0722697,0.0947498,-0.0500063,0.0947498,-0.0451657,0.0433628,-0.09537
 93,0.082708,-0.0066619,0.017104,0.015609,0.0295115,0.015609,0.0215691,
 -0.0255908,0.0740766,-0.0642354,-0.1388107,-0.0451657,-0.0947498,0.043
 3628,-0.0947498,-0.0722697,0.0500063,0.082708,0.0953793,-0.0066619,0.0
 215691,-0.015609,-0.0255908,-0.015609,0.017104,-0.0295115,-0.0642354,-
 0.0740766,-0.1388107,-0.0722697,0.0947498,0.0500062,0.0947498,-0.04516
 57,-0.0433628,0.0953794,-0.082708,-0.0066619,0.017104,0.015609,-0.0295
 115,0.015609,0.0215691,0.0255908,-0.0740766,0.0642354,-0.1388107,-0.04
 51657,-0.0947498,-0.0433628,-0.0947498,-0.0722697,-0.0500063,-0.082708
 ,-0.0953793,-0.0066619,0.0215691,-0.015609,0.0255908,-0.015609,0.01710
 4,0.0295115,0.0642354,0.0740766,-0.1388107\Polar=47.7411193,0.,47.7411
 193,0.,0.,42.6916959\PG=S04 [X(C4H8)]\NImag=0\\0.49330980,-0.11776680,
 0.45962158,0.02155202,-0.01868879,0.60208169,-0.04447876,0.01648565,0.
 00013237,0.45962158,0.00240788,-0.17657419,-0.01521146,0.11776680,0.49
 330980,0.00202273,-0.01507695,-0.08538893,-0.01868879,-0.02155202,0.60
 208169,-0.17657419,-0.01648565,0.01507695,-0.03911462,-0.03547524,0.00
 570386,0.45962158,-0.00240788,-0.04447876,0.00202273,-0.03547524,-0.04
 926262,0.00657773,0.11776680,0.49330980,0.01521146,0.00013237,-0.08538
 893,-0.00570386,-0.00657773,0.01171711,0.01868879,0.02155202,0.6020816
 9,-0.04926262,0.03547524,-0.00657773,-0.17657419,-0.00240788,-0.015211
 46,-0.04447876,0.00240788,-0.00202273,0.49330980,0.03547524,-0.0391146
 2,0.00570386,-0.01648565,-0.04447876,-0.00013237,0.01648565,-0.1765741
 9,0.01507695,-0.11776680,0.45962158,0.00657773,-0.00570386,0.01171711,
 -0.01507695,-0.00202273,-0.08538893,-0.00013237,0.01521146,-0.08538893
 ,-0.02155202,0.01868879,0.60208169,-0.14686938,0.08188513,-0.09850237,
 0.00053690,-0.00084637,0.00448792,-0.01052793,0.01362875,-0.01807618,-
 0.00374360,0.00215545,0.00193323,0.15500855,0.08188513,-0.12344542,0.0
 8541609,0.01521135,-0.00869967,0.01890204,-0.00242896,0.00236516,-0.00
 711902,0.00215545,-0.00312702,-0.00167639,-0.09419193,0.12806412,-0.09
 923637,0.08605257,-0.14867390,0.00530252,-0.00427275,0.00358635,0.0049
 8049,-0.00464413,0.00358635,0.00169411,-0.00146904,0.00068985,0.105676
 13,-0.09163679,0.15520459,-0.06000418,0.01495027,0.05412722,0.00031766
 ,-0.00170068,-0.00489802,-0.00713443,0.00490334,0.03142607,-0.00014194
 ,-0.00071425,-0.00025666,0.00526572,-0.00444345,-0.01901349,0.06444773
 ,0.01495027,-0.05572752,-0.04693628,0.00596920,-0.00667635,-0.03244645
 ,-0.00276655,0.00077574,0.00944272,-0.00071425,-0.00034626,0.00022256,
 -0.00444345,0.00399463,0.01648750,-0.01332489,0.06063603,0.05485821,-0
 .04757016,-0.29438614,-0.00031855,-0.00065218,-0.00384366,0.00060050,0
 .00040768,-0.00384366,-0.00001984,0.00001720,-0.00013613,0.00451722,-0
 .00391709,-0.01732713,-0.06115253,0.05302826,0.31450537,0.00236516,0.0
 0242896,-0.00711902,-0.12344542,-0.08188513,0.08541609,-0.00312702,-0.
 00215545,-0.00167639,-0.00869967,-0.01521135,0.01890204,-0.00009274,0.
 00111158,-0.00003330,0.00076908,-0.00113712,-0.00023530,0.12806412,-0.
 01362875,-0.01052793,0.01807618,-0.08188513,-0.14686938,0.09850237,-0.
 00215545,-0.00374360,-0.00193323,0.00084637,0.00053690,-0.00448792,-0.
 00078070,-0.00240612,-0.00020275,0.00059576,0.00232894,-0.00012644,0.0
 9419193,0.15500855,-0.00464413,-0.00498049,0.00358635,0.08605257,0.099
 23637,-0.14867390,-0.00146904,-0.00169411,0.00068985,-0.00427275,-0.00
 530252,0.00358635,0.00006168,-0.00019599,0.00012958,0.00014357,0.00033
 742,0.00120013,-0.09163679,-0.10567613,0.15520459,0.00077574,0.0027665
 5,0.00944272,-0.05572752,-0.01495027,-0.04693628,-0.00034626,0.0007142
 5,0.00022256,-0.00667635,-0.00596920,-0.03244645,0.00072447,-0.0008252
 4,-0.00018989,0.00002600,0.00226603,0.00038223,0.00399463,0.00444345,0
 .01648750,0.06063603,-0.00490334,-0.00713443,-0.03142607,-0.01495027,-
 0.06000418,-0.05412722,0.00071425,-0.00014194,0.00025666,0.00170068,0.
 00031766,0.00489802,0.00090764,0.00237355,0.00031370,-0.00143481,-0.00
 578552,-0.00085461,0.00444345,0.00526572,0.01901349,0.01332489,0.06444
 773,0.00040768,-0.00060050,-0.00384366,-0.04757016,-0.05485821,-0.2943
 8614,0.00001720,0.00001984,-0.00013613,-0.00065218,0.00031855,-0.00384
 366,0.00025083,-0.00009185,0.00120013,-0.00025738,-0.00090012,0.001241
 35,-0.00391709,-0.00451722,-0.01732713,0.05302826,0.06115253,0.3145053
 7,-0.00374360,0.00215545,-0.00193323,-0.01052793,0.01362875,0.01807618
 ,0.00053690,-0.00084637,-0.00448792,-0.14686938,0.08188513,0.09850237,
 -0.00022912,0.00140290,0.00049490,0.00000432,0.00009763,0.00018275,-0.
 00240612,0.00078070,-0.00020275,0.00232894,-0.00059576,-0.00012644,0.1
 5500855,0.00215545,-0.00312702,0.00167639,-0.00242896,0.00236516,0.007
 11902,0.01521135,-0.00869967,-0.01890204,0.08188513,-0.12344542,-0.085
 41609,0.00140290,0.00017219,-0.00042915,0.00009763,0.00003225,-0.00015
 847,-0.00111158,-0.00009274,0.00003330,0.00113712,0.00076908,0.0002353
 0,-0.09419193,0.12806412,-0.00169411,0.00146904,0.00068985,-0.00498049
 ,0.00464413,0.00358635,-0.00530252,0.00427275,0.00358635,0.09923637,-0
 .08605257,-0.14867390,-0.00049490,0.00042915,0.00019888,-0.00046636,0.
 00040440,0.00007558,-0.00019599,-0.00006168,0.00012958,0.00033742,-0.0
 0014357,0.00120013,-0.10567613,0.09163679,0.15520459,-0.00014194,-0.00
 071425,0.00025666,-0.00713443,0.00490334,-0.03142607,0.00031766,-0.001
 70068,0.00489802,-0.06000418,0.01495027,-0.05412722,0.00000432,0.00009
 763,0.00046636,-0.00013798,0.00054391,0.00019333,0.00237355,-0.0009076
 4,0.00031370,-0.00578552,0.00143481,-0.00085461,0.00526572,-0.00444345
 ,0.01901349,0.06444773,-0.00071425,-0.00034626,-0.00022256,-0.00276655
 ,0.00077574,-0.00944272,0.00596920,-0.00667635,0.03244645,0.01495027,-
 0.05572752,0.04693628,0.00009763,0.00003225,-0.00040440,0.00054391,0.0
 0001761,-0.00016765,0.00082524,0.00072447,0.00018989,-0.00226603,0.000
 02600,-0.00038223,-0.00444345,0.00399463,-0.01648750,-0.01332489,0.060
 63603,0.00001984,-0.00001720,-0.00013613,-0.00060050,-0.00040768,-0.00
 384366,0.00031855,0.00065218,-0.00384366,-0.05485821,0.04757016,-0.294
 38614,-0.00018275,0.00015847,0.00007558,-0.00019333,0.00016765,0.00007
 281,-0.00009185,-0.00025083,0.00120013,-0.00090012,0.00025738,0.001241
 35,-0.00451722,0.00391709,-0.01732713,0.06115253,-0.05302826,0.3145053
 7,-0.00869967,-0.01521135,-0.01890204,-0.00312702,-0.00215545,0.001676
 39,-0.12344542,-0.08188513,-0.08541609,0.00236516,0.00242896,0.0071190
 2,-0.00240612,-0.00111158,0.00019599,0.00237355,0.00082524,0.00009185,
 0.00017219,-0.00140290,-0.00042915,0.00003225,-0.00009763,-0.00015847,
 -0.00009274,0.00111158,0.00003330,0.00076908,-0.00113712,0.00023530,0.
 12806412,0.00084637,0.00053690,0.00448792,-0.00215545,-0.00374360,0.00
 193323,-0.08188513,-0.14686938,-0.09850237,-0.01362875,-0.01052793,-0.
 01807618,0.00078070,-0.00009274,0.00006168,-0.00090764,0.00072447,0.00
 025083,-0.00140290,-0.00022912,-0.00049490,-0.00009763,0.00000432,-0.0
 0018275,-0.00078070,-0.00240612,0.00020275,0.00059576,0.00232894,0.000
 12644,0.09419193,0.15500855,0.00427275,0.00530252,0.00358635,0.0014690
 4,0.00169411,0.00068985,-0.08605257,-0.09923637,-0.14867390,0.00464413
 ,0.00498049,0.00358635,0.00020275,-0.00003330,0.00012958,-0.00031370,-
 0.00018989,0.00120013,0.00042915,0.00049490,0.00019888,0.00040440,0.00
 046636,0.00007558,-0.00006168,0.00019599,0.00012958,-0.00014357,-0.000
 33742,0.00120013,0.09163679,0.10567613,0.15520459,-0.00667635,-0.00596
 920,0.03244645,-0.00034626,0.00071425,-0.00022256,-0.05572752,-0.01495
 027,0.04693628,0.00077574,0.00276655,-0.00944272,0.00232894,0.00113712
 ,-0.00033742,-0.00578552,-0.00226603,0.00090012,0.00003225,-0.00009763
 ,-0.00040440,0.00001761,-0.00054391,-0.00016765,0.00072447,-0.00082524
 ,0.00018989,0.00002600,0.00226603,-0.00038223,0.00399463,0.00444345,-0
 .01648750,0.06063603,0.00170068,0.00031766,-0.00489802,0.00071425,-0.0
 0014194,-0.00025666,-0.01495027,-0.06000418,0.05412722,-0.00490334,-0.
 00713443,0.03142607,-0.00059576,0.00076908,0.00014357,0.00143481,0.000
 02600,-0.00025738,-0.00009763,0.00000432,-0.00046636,-0.00054391,-0.00
 013798,-0.00019333,0.00090764,0.00237355,-0.00031370,-0.00143481,-0.00
 578552,0.00085461,0.00444345,0.00526572,-0.01901349,0.01332489,0.06444
 773,0.00065218,-0.00031855,-0.00384366,-0.00001720,-0.00001984,-0.0001
 3613,0.04757016,0.05485821,-0.29438614,-0.00040768,0.00060050,-0.00384
 366,0.00012644,-0.00023530,0.00120013,0.00085461,0.00038223,0.00124135
 ,0.00015847,0.00018275,0.00007558,0.00016765,0.00019333,0.00007281,-0.
 00025083,0.00009185,0.00120013,0.00025738,0.00090012,0.00124135,0.0039
 1709,0.00451722,-0.01732713,-0.05302826,-0.06115253,0.31450537\\-0.000
 00021,0.00000018,-0.00000048,-0.00000018,-0.00000021,0.00000048,0.0000
 0018,0.00000021,0.00000048,0.00000021,-0.00000018,-0.00000048,0.000000
 02,-0.00000002,0.00000020,-0.00000012,0.00000010,0.00000021,0.00000002
 ,0.00000002,-0.00000020,-0.00000010,-0.00000012,-0.00000021,-0.0000000
 2,0.00000002,0.00000020,0.00000012,-0.00000010,0.00000021,-0.00000002,
 -0.00000002,-0.00000020,0.00000010,0.00000012,-0.00000021\\\@


 YOU CAN WIPE THE SLATE CLEAN, BUT YOU'LL STILL
 HAVE TO EAT A LITTLE CHALK DUST.
 Job cpu time:       0 days  0 hours 19 minutes 56.0 seconds.
 File lengths (MBytes):  RWF=     19 Int=      0 D2E=      0 Chk=      3 Scr=      1
 Normal termination of Gaussian 09 at Fri Jul  9 19:24:55 2021.
