 Entering Gaussian System, Link 0=g09
 Initial command:
 /home/minenky/programs//g09/l1.exe "/local/scratch/minenky/m1_00_53-70-3-C22H14_wB97XD/Gau-110447.inp" -scrdir="/local/scratch/minenky/m1_00_53-70-3-C22H14_wB97XD/"
 Entering Link 1 = /home/minenky/programs//g09/l1.exe PID=    110463.
  
 Copyright (c) 1988,1990,1992,1993,1995,1998,2003,2009,2013,
            Gaussian, Inc.  All Rights Reserved.
  
 This is part of the Gaussian(R) 09 program.  It is based on
 the Gaussian(R) 03 system (copyright 2003, Gaussian, Inc.),
 the Gaussian(R) 98 system (copyright 1998, Gaussian, Inc.),
 the Gaussian(R) 94 system (copyright 1995, Gaussian, Inc.),
 the Gaussian 92(TM) system (copyright 1992, Gaussian, Inc.),
 the Gaussian 90(TM) system (copyright 1990, Gaussian, Inc.),
 the Gaussian 88(TM) system (copyright 1988, Gaussian, Inc.),
 the Gaussian 86(TM) system (copyright 1986, Carnegie Mellon
 University), and the Gaussian 82(TM) system (copyright 1983,
 Carnegie Mellon University). Gaussian is a federally registered
 trademark of Gaussian, Inc.
  
 This software contains proprietary and confidential information,
 including trade secrets, belonging to Gaussian, Inc.
  
 This software is provided under written license and may be
 used, copied, transmitted, or stored only in accord with that
 written license.
  
 The following legend is applicable only to US Government
 contracts under FAR:
  
                    RESTRICTED RIGHTS LEGEND
  
 Use, reproduction and disclosure by the US Government is
 subject to restrictions as set forth in subparagraphs (a)
 and (c) of the Commercial Computer Software - Restricted
 Rights clause in FAR 52.227-19.
  
 Gaussian, Inc.
 340 Quinnipiac St., Bldg. 40, Wallingford CT 06492
  
  
 ---------------------------------------------------------------
 Warning -- This program may not be used in any manner that
 competes with the business of Gaussian, Inc. or will provide
 assistance to any competitor of Gaussian, Inc.  The licensee
 of this program is prohibited from giving any competitor of
 Gaussian, Inc. access to this program.  By using this program,
 the user acknowledges that Gaussian, Inc. is engaged in the
 business of creating and licensing software in the field of
 computational chemistry and represents and warrants to the
 licensee that it is not a competitor of Gaussian, Inc. and that
 it will not use this program in any manner prohibited above.
 ---------------------------------------------------------------
  

 Cite this work as:
 Gaussian 09, Revision D.01,
 M. J. Frisch, G. W. Trucks, H. B. Schlegel, G. E. Scuseria, 
 M. A. Robb, J. R. Cheeseman, G. Scalmani, V. Barone, B. Mennucci, 
 G. A. Petersson, H. Nakatsuji, M. Caricato, X. Li, H. P. Hratchian, 
 A. F. Izmaylov, J. Bloino, G. Zheng, J. L. Sonnenberg, M. Hada, 
 M. Ehara, K. Toyota, R. Fukuda, J. Hasegawa, M. Ishida, T. Nakajima, 
 Y. Honda, O. Kitao, H. Nakai, T. Vreven, J. A. Montgomery, Jr., 
 J. E. Peralta, F. Ogliaro, M. Bearpark, J. J. Heyd, E. Brothers, 
 K. N. Kudin, V. N. Staroverov, T. Keith, R. Kobayashi, J. Normand, 
 K. Raghavachari, A. Rendell, J. C. Burant, S. S. Iyengar, J. Tomasi, 
 M. Cossi, N. Rega, J. M. Millam, M. Klene, J. E. Knox, J. B. Cross, 
 V. Bakken, C. Adamo, J. Jaramillo, R. Gomperts, R. E. Stratmann, 
 O. Yazyev, A. J. Austin, R. Cammi, C. Pomelli, J. W. Ochterski, 
 R. L. Martin, K. Morokuma, V. G. Zakrzewski, G. A. Voth, 
 P. Salvador, J. J. Dannenberg, S. Dapprich, A. D. Daniels, 
 O. Farkas, J. B. Foresman, J. V. Ortiz, J. Cioslowski, 
 and D. J. Fox, Gaussian, Inc., Wallingford CT, 2013.
 
 ******************************************
 Gaussian 09:  AM64L-G09RevD.01 24-Apr-2013
                 9-Jul-2021 
 ******************************************
 %Mem=32000MB
 %NProcShared=16
 Will use up to   16 processors via shared memory.
 %Chk=m1_00_53-70-3-C22H14_wB97XD
 ----------------------------------------------------------------------
 #P wB97XD/def2tzvp opt=(tight) freq integral(Grid=ultrafine) # SCF(Max
 Cycle=380) 5d 7f GFPrint
 ----------------------------------------------------------------------
 1/7=10,14=-1,18=20,19=15,26=4,38=1/1,3;
 2/9=110,12=2,17=6,18=5,40=1/2;
 3/5=44,7=101,8=11,11=2,16=1,24=100,25=1,30=1,71=1,74=-58,75=-5/1,2,3;
 4//1;
 5/5=2,7=380,38=5/2;
 6/7=2,8=2,9=2,10=2,28=1/1;
 7//1,2,3,16;
 1/7=10,14=-1,18=20,19=15,26=4/3(2);
 2/9=110/2;
 99//99;
 2/9=110/2;
 3/5=44,7=101,8=11,11=2,16=1,25=1,30=1,71=1,74=-58,75=-5/1,2,3;
 4/5=5,16=3,69=1/1;
 5/5=2,7=380,38=5/2;
 7//1,2,3,16;
 1/7=10,14=-1,18=20,19=15,26=4/3(-5);
 2/9=110/2;
 6/7=2,8=2,9=2,10=2,19=2,28=1/1;
 99/9=1/99;
 Leave Link    1 at Fri Jul  9 19:19:35 2021, MaxMem=  4194304000 cpu:         1.3
 (Enter /home/minenky/programs//g09/l101.exe)
 ---------------------------------------
 The PBEPBE optimization and frequencies
 ---------------------------------------
 Symbolic Z-matrix:
 Charge =  0 Multiplicity = 1
 C                    -2.86615   0.30356   0.00001 
 C                    -3.52334   1.54671   0.00003 
 C                    -4.89911   1.63232   0.00003 
 C                    -3.66141  -0.87124  -0.00001 
 C                    -1.41682   0.17625   0. 
 C                    -5.06378  -0.76078  -0.00002 
 C                    -3.02971  -2.15813  -0.00001 
 C                    -5.67954   0.47002  0. 
 C                    -0.83363  -1.12726   0.00001 
 C                    -0.5541    1.26787  -0.00001 
 C                    -1.68411  -2.28004   0. 
 C                     0.5541   -1.26786   0.00001 
 C                     0.83363   1.12726  -0.00001 
 C                     1.41682  -0.17625  0. 
 C                     1.68411   2.28004  -0.00002 
 C                     2.86615  -0.30356  0. 
 C                     3.02971   2.15813  -0.00001 
 C                     3.66141   0.87124  0. 
 C                     5.06378   0.76077   0.00001 
 C                     3.52334  -1.54671   0. 
 C                     5.67954  -0.47002   0.00001 
 C                     4.89911  -1.63232   0.00001 
 H                    -2.94691   2.46049   0.00006 
 H                    -5.37653   2.60363   0.00004 
 H                    -5.65557  -1.66812  -0.00003 
 H                    -3.66177  -3.03772  -0.00002 
 H                    -6.75941   0.54064  -0.00001 
 H                    -0.95069   2.27364  -0.00003 
 H                    -1.21977  -3.25864   0.00001 
 H                     0.95069  -2.27364   0.00001 
 H                     1.21977   3.25864  -0.00003 
 H                     3.66177   3.03772  -0.00002 
 H                     5.65557   1.66812   0.00001 
 H                     2.94691  -2.46049  -0.00001 
 H                     6.75941  -0.54064   0.00002 
 H                     5.37653  -2.60363   0.00001 
 
 NAtoms=     36 NQM=       36 NQMF=       0 NMMI=      0 NMMIF=      0
                NMic=       0 NMicF=      0.
                    Isotopes and Nuclear Properties:
 (Nuclear quadrupole moments (NQMom) in fm**2, nuclear magnetic moments (NMagM)
  in nuclear magnetons)

  Atom         1           2           3           4           5           6           7           8           9          10
 IAtWgt=          12          12          12          12          12          12          12          12          12          12
 AtmWgt=  12.0000000  12.0000000  12.0000000  12.0000000  12.0000000  12.0000000  12.0000000  12.0000000  12.0000000  12.0000000
 NucSpn=           0           0           0           0           0           0           0           0           0           0
 AtZEff=   0.0000000   0.0000000   0.0000000   0.0000000   0.0000000   0.0000000   0.0000000   0.0000000   0.0000000   0.0000000
 NQMom=    0.0000000   0.0000000   0.0000000   0.0000000   0.0000000   0.0000000   0.0000000   0.0000000   0.0000000   0.0000000
 NMagM=    0.0000000   0.0000000   0.0000000   0.0000000   0.0000000   0.0000000   0.0000000   0.0000000   0.0000000   0.0000000
 AtZNuc=   6.0000000   6.0000000   6.0000000   6.0000000   6.0000000   6.0000000   6.0000000   6.0000000   6.0000000   6.0000000

  Atom        11          12          13          14          15          16          17          18          19          20
 IAtWgt=          12          12          12          12          12          12          12          12          12          12
 AtmWgt=  12.0000000  12.0000000  12.0000000  12.0000000  12.0000000  12.0000000  12.0000000  12.0000000  12.0000000  12.0000000
 NucSpn=           0           0           0           0           0           0           0           0           0           0
 AtZEff=   0.0000000   0.0000000   0.0000000   0.0000000   0.0000000   0.0000000   0.0000000   0.0000000   0.0000000   0.0000000
 NQMom=    0.0000000   0.0000000   0.0000000   0.0000000   0.0000000   0.0000000   0.0000000   0.0000000   0.0000000   0.0000000
 NMagM=    0.0000000   0.0000000   0.0000000   0.0000000   0.0000000   0.0000000   0.0000000   0.0000000   0.0000000   0.0000000
 AtZNuc=   6.0000000   6.0000000   6.0000000   6.0000000   6.0000000   6.0000000   6.0000000   6.0000000   6.0000000   6.0000000

  Atom        21          22          23          24          25          26          27          28          29          30
 IAtWgt=          12          12           1           1           1           1           1           1           1           1
 AtmWgt=  12.0000000  12.0000000   1.0078250   1.0078250   1.0078250   1.0078250   1.0078250   1.0078250   1.0078250   1.0078250
 NucSpn=           0           0           1           1           1           1           1           1           1           1
 AtZEff=   0.0000000   0.0000000   0.0000000   0.0000000   0.0000000   0.0000000   0.0000000   0.0000000   0.0000000   0.0000000
 NQMom=    0.0000000   0.0000000   0.0000000   0.0000000   0.0000000   0.0000000   0.0000000   0.0000000   0.0000000   0.0000000
 NMagM=    0.0000000   0.0000000   2.7928460   2.7928460   2.7928460   2.7928460   2.7928460   2.7928460   2.7928460   2.7928460
 AtZNuc=   6.0000000   6.0000000   1.0000000   1.0000000   1.0000000   1.0000000   1.0000000   1.0000000   1.0000000   1.0000000

  Atom        31          32          33          34          35          36
 IAtWgt=           1           1           1           1           1           1
 AtmWgt=   1.0078250   1.0078250   1.0078250   1.0078250   1.0078250   1.0078250
 NucSpn=           1           1           1           1           1           1
 AtZEff=   0.0000000   0.0000000   0.0000000   0.0000000   0.0000000   0.0000000
 NQMom=    0.0000000   0.0000000   0.0000000   0.0000000   0.0000000   0.0000000
 NMagM=    2.7928460   2.7928460   2.7928460   2.7928460   2.7928460   2.7928460
 AtZNuc=   1.0000000   1.0000000   1.0000000   1.0000000   1.0000000   1.0000000
 Leave Link  101 at Fri Jul  9 19:19:36 2021, MaxMem=  4194304000 cpu:         2.6
 (Enter /home/minenky/programs//g09/l103.exe)

 GradGradGradGradGradGradGradGradGradGradGradGradGradGradGradGradGradGrad
 Berny optimization.
 Initialization pass.
                           ----------------------------
                           !    Initial Parameters    !
                           ! (Angstroms and Degrees)  !
 --------------------------                            --------------------------
 ! Name  Definition              Value          Derivative Info.                !
 --------------------------------------------------------------------------------
 ! R1    R(1,2)                  1.4062         estimate D2E/DX2                !
 ! R2    R(1,4)                  1.4187         estimate D2E/DX2                !
 ! R3    R(1,5)                  1.4549         estimate D2E/DX2                !
 ! R4    R(2,3)                  1.3784         estimate D2E/DX2                !
 ! R5    R(2,23)                 1.0804         estimate D2E/DX2                !
 ! R6    R(3,8)                  1.4            estimate D2E/DX2                !
 ! R7    R(3,24)                 1.0823         estimate D2E/DX2                !
 ! R8    R(4,6)                  1.4067         estimate D2E/DX2                !
 ! R9    R(4,7)                  1.4336         estimate D2E/DX2                !
 ! R10   R(5,9)                  1.428          estimate D2E/DX2                !
 ! R11   R(5,10)                 1.3914         estimate D2E/DX2                !
 ! R12   R(6,8)                  1.3762         estimate D2E/DX2                !
 ! R13   R(6,25)                 1.0833         estimate D2E/DX2                !
 ! R14   R(7,11)                 1.3511         estimate D2E/DX2                !
 ! R15   R(7,26)                 1.0831         estimate D2E/DX2                !
 ! R16   R(8,27)                 1.0822         estimate D2E/DX2                !
 ! R17   R(9,11)                 1.4326         estimate D2E/DX2                !
 ! R18   R(9,12)                 1.3948         estimate D2E/DX2                !
 ! R19   R(10,13)                1.3948         estimate D2E/DX2                !
 ! R20   R(10,28)                1.0811         estimate D2E/DX2                !
 ! R21   R(11,29)                1.0832         estimate D2E/DX2                !
 ! R22   R(12,14)                1.3914         estimate D2E/DX2                !
 ! R23   R(12,30)                1.0811         estimate D2E/DX2                !
 ! R24   R(13,14)                1.428          estimate D2E/DX2                !
 ! R25   R(13,15)                1.4326         estimate D2E/DX2                !
 ! R26   R(14,16)                1.4549         estimate D2E/DX2                !
 ! R27   R(15,17)                1.3511         estimate D2E/DX2                !
 ! R28   R(15,31)                1.0832         estimate D2E/DX2                !
 ! R29   R(16,18)                1.4187         estimate D2E/DX2                !
 ! R30   R(16,20)                1.4062         estimate D2E/DX2                !
 ! R31   R(17,18)                1.4336         estimate D2E/DX2                !
 ! R32   R(17,32)                1.0831         estimate D2E/DX2                !
 ! R33   R(18,19)                1.4067         estimate D2E/DX2                !
 ! R34   R(19,21)                1.3762         estimate D2E/DX2                !
 ! R35   R(19,33)                1.0833         estimate D2E/DX2                !
 ! R36   R(20,22)                1.3784         estimate D2E/DX2                !
 ! R37   R(20,34)                1.0804         estimate D2E/DX2                !
 ! R38   R(21,22)                1.4            estimate D2E/DX2                !
 ! R39   R(21,35)                1.0822         estimate D2E/DX2                !
 ! R40   R(22,36)                1.0823         estimate D2E/DX2                !
 ! A1    A(2,1,4)              118.0419         estimate D2E/DX2                !
 ! A2    A(2,1,5)              122.883          estimate D2E/DX2                !
 ! A3    A(4,1,5)              119.0751         estimate D2E/DX2                !
 ! A4    A(1,2,3)              121.4236         estimate D2E/DX2                !
 ! A5    A(1,2,23)             119.8922         estimate D2E/DX2                !
 ! A6    A(3,2,23)             118.6842         estimate D2E/DX2                !
 ! A7    A(2,3,8)              120.3187         estimate D2E/DX2                !
 ! A8    A(2,3,24)             119.7358         estimate D2E/DX2                !
 ! A9    A(8,3,24)             119.9455         estimate D2E/DX2                !
 ! A10   A(1,4,6)              119.5911         estimate D2E/DX2                !
 ! A11   A(1,4,7)              119.7597         estimate D2E/DX2                !
 ! A12   A(6,4,7)              120.6492         estimate D2E/DX2                !
 ! A13   A(1,5,9)              119.1239         estimate D2E/DX2                !
 ! A14   A(1,5,10)             123.2997         estimate D2E/DX2                !
 ! A15   A(9,5,10)             117.5764         estimate D2E/DX2                !
 ! A16   A(4,6,8)              121.0824         estimate D2E/DX2                !
 ! A17   A(4,6,25)             118.6093         estimate D2E/DX2                !
 ! A18   A(8,6,25)             120.3083         estimate D2E/DX2                !
 ! A19   A(4,7,11)             121.3218         estimate D2E/DX2                !
 ! A20   A(4,7,26)             118.1541         estimate D2E/DX2                !
 ! A21   A(11,7,26)            120.5241         estimate D2E/DX2                !
 ! A22   A(3,8,6)              119.5423         estimate D2E/DX2                !
 ! A23   A(3,8,27)             120.1376         estimate D2E/DX2                !
 ! A24   A(6,8,27)             120.3202         estimate D2E/DX2                !
 ! A25   A(5,9,11)             119.4777         estimate D2E/DX2                !
 ! A26   A(5,9,12)             119.8892         estimate D2E/DX2                !
 ! A27   A(11,9,12)            120.6331         estimate D2E/DX2                !
 ! A28   A(5,10,13)            122.5344         estimate D2E/DX2                !
 ! A29   A(5,10,28)            120.1603         estimate D2E/DX2                !
 ! A30   A(13,10,28)           117.3053         estimate D2E/DX2                !
 ! A31   A(7,11,9)             121.2419         estimate D2E/DX2                !
 ! A32   A(7,11,29)            120.5603         estimate D2E/DX2                !
 ! A33   A(9,11,29)            118.1978         estimate D2E/DX2                !
 ! A34   A(9,12,14)            122.5345         estimate D2E/DX2                !
 ! A35   A(9,12,30)            117.3053         estimate D2E/DX2                !
 ! A36   A(14,12,30)           120.1602         estimate D2E/DX2                !
 ! A37   A(10,13,14)           119.8892         estimate D2E/DX2                !
 ! A38   A(10,13,15)           120.6332         estimate D2E/DX2                !
 ! A39   A(14,13,15)           119.4776         estimate D2E/DX2                !
 ! A40   A(12,14,13)           117.5763         estimate D2E/DX2                !
 ! A41   A(12,14,16)           123.2998         estimate D2E/DX2                !
 ! A42   A(13,14,16)           119.1239         estimate D2E/DX2                !
 ! A43   A(13,15,17)           121.2419         estimate D2E/DX2                !
 ! A44   A(13,15,31)           118.1978         estimate D2E/DX2                !
 ! A45   A(17,15,31)           120.5603         estimate D2E/DX2                !
 ! A46   A(14,16,18)           119.0751         estimate D2E/DX2                !
 ! A47   A(14,16,20)           122.883          estimate D2E/DX2                !
 ! A48   A(18,16,20)           118.0419         estimate D2E/DX2                !
 ! A49   A(15,17,18)           121.3218         estimate D2E/DX2                !
 ! A50   A(15,17,32)           120.5241         estimate D2E/DX2                !
 ! A51   A(18,17,32)           118.1541         estimate D2E/DX2                !
 ! A52   A(16,18,17)           119.7597         estimate D2E/DX2                !
 ! A53   A(16,18,19)           119.5911         estimate D2E/DX2                !
 ! A54   A(17,18,19)           120.6492         estimate D2E/DX2                !
 ! A55   A(18,19,21)           121.0825         estimate D2E/DX2                !
 ! A56   A(18,19,33)           118.6092         estimate D2E/DX2                !
 ! A57   A(21,19,33)           120.3083         estimate D2E/DX2                !
 ! A58   A(16,20,22)           121.4236         estimate D2E/DX2                !
 ! A59   A(16,20,34)           119.8923         estimate D2E/DX2                !
 ! A60   A(22,20,34)           118.6842         estimate D2E/DX2                !
 ! A61   A(19,21,22)           119.5422         estimate D2E/DX2                !
 ! A62   A(19,21,35)           120.3201         estimate D2E/DX2                !
 ! A63   A(22,21,35)           120.1376         estimate D2E/DX2                !
 ! A64   A(20,22,21)           120.3187         estimate D2E/DX2                !
 ! A65   A(20,22,36)           119.7358         estimate D2E/DX2                !
 ! A66   A(21,22,36)           119.9455         estimate D2E/DX2                !
 ! D1    D(4,1,2,3)             -0.0005         estimate D2E/DX2                !
 ! D2    D(4,1,2,23)           179.9989         estimate D2E/DX2                !
 ! D3    D(5,1,2,3)            179.9996         estimate D2E/DX2                !
 ! D4    D(5,1,2,23)            -0.001          estimate D2E/DX2                !
 ! D5    D(2,1,4,6)              0.0006         estimate D2E/DX2                !
 ! D6    D(2,1,4,7)           -179.9991         estimate D2E/DX2                !
 ! D7    D(5,1,4,6)           -179.9995         estimate D2E/DX2                !
 ! D8    D(5,1,4,7)              0.0009         estimate D2E/DX2                !
 ! D9    D(2,1,5,9)            179.9987         estimate D2E/DX2                !
 ! D10   D(2,1,5,10)            -0.0014         estimate D2E/DX2                !
 ! D11   D(4,1,5,9)             -0.0012         estimate D2E/DX2                !
 ! D12   D(4,1,5,10)           179.9986         estimate D2E/DX2                !
 ! D13   D(1,2,3,8)              0.0001         estimate D2E/DX2                !
 ! D14   D(1,2,3,24)           179.9999         estimate D2E/DX2                !
 ! D15   D(23,2,3,8)          -179.9994         estimate D2E/DX2                !
 ! D16   D(23,2,3,24)            0.0005         estimate D2E/DX2                !
 ! D17   D(2,3,8,6)              0.0003         estimate D2E/DX2                !
 ! D18   D(2,3,8,27)          -179.9998         estimate D2E/DX2                !
 ! D19   D(24,3,8,6)          -179.9996         estimate D2E/DX2                !
 ! D20   D(24,3,8,27)            0.0004         estimate D2E/DX2                !
 ! D21   D(1,4,6,8)             -0.0003         estimate D2E/DX2                !
 ! D22   D(1,4,6,25)           179.9999         estimate D2E/DX2                !
 ! D23   D(7,4,6,8)            179.9994         estimate D2E/DX2                !
 ! D24   D(7,4,6,25)            -0.0004         estimate D2E/DX2                !
 ! D25   D(1,4,7,11)             0.0001         estimate D2E/DX2                !
 ! D26   D(1,4,7,26)           179.9999         estimate D2E/DX2                !
 ! D27   D(6,4,7,11)          -179.9996         estimate D2E/DX2                !
 ! D28   D(6,4,7,26)             0.0002         estimate D2E/DX2                !
 ! D29   D(1,5,9,11)             0.0007         estimate D2E/DX2                !
 ! D30   D(1,5,9,12)          -179.9997         estimate D2E/DX2                !
 ! D31   D(10,5,9,11)         -179.9992         estimate D2E/DX2                !
 ! D32   D(10,5,9,12)            0.0004         estimate D2E/DX2                !
 ! D33   D(1,5,10,13)          179.9998         estimate D2E/DX2                !
 ! D34   D(1,5,10,28)           -0.0006         estimate D2E/DX2                !
 ! D35   D(9,5,10,13)           -0.0003         estimate D2E/DX2                !
 ! D36   D(9,5,10,28)          179.9993         estimate D2E/DX2                !
 ! D37   D(4,6,8,3)             -0.0002         estimate D2E/DX2                !
 ! D38   D(4,6,8,27)           179.9999         estimate D2E/DX2                !
 ! D39   D(25,6,8,3)           179.9996         estimate D2E/DX2                !
 ! D40   D(25,6,8,27)           -0.0003         estimate D2E/DX2                !
 ! D41   D(4,7,11,9)            -0.0007         estimate D2E/DX2                !
 ! D42   D(4,7,11,29)          179.9996         estimate D2E/DX2                !
 ! D43   D(26,7,11,9)          179.9996         estimate D2E/DX2                !
 ! D44   D(26,7,11,29)          -0.0002         estimate D2E/DX2                !
 ! D45   D(5,9,11,7)             0.0003         estimate D2E/DX2                !
 ! D46   D(5,9,11,29)         -180.0            estimate D2E/DX2                !
 ! D47   D(12,9,11,7)         -179.9994         estimate D2E/DX2                !
 ! D48   D(12,9,11,29)           0.0004         estimate D2E/DX2                !
 ! D49   D(5,9,12,14)           -0.0002         estimate D2E/DX2                !
 ! D50   D(5,9,12,30)          179.9998         estimate D2E/DX2                !
 ! D51   D(11,9,12,14)         179.9994         estimate D2E/DX2                !
 ! D52   D(11,9,12,30)          -0.0006         estimate D2E/DX2                !
 ! D53   D(5,10,13,14)           0.0            estimate D2E/DX2                !
 ! D54   D(5,10,13,15)        -179.9998         estimate D2E/DX2                !
 ! D55   D(28,10,13,14)       -179.9996         estimate D2E/DX2                !
 ! D56   D(28,10,13,15)          0.0006         estimate D2E/DX2                !
 ! D57   D(9,12,14,13)          -0.0001         estimate D2E/DX2                !
 ! D58   D(9,12,14,16)         180.0            estimate D2E/DX2                !
 ! D59   D(30,12,14,13)        179.9999         estimate D2E/DX2                !
 ! D60   D(30,12,14,16)          0.0            estimate D2E/DX2                !
 ! D61   D(10,13,14,12)          0.0002         estimate D2E/DX2                !
 ! D62   D(10,13,14,16)       -179.9999         estimate D2E/DX2                !
 ! D63   D(15,13,14,12)       -180.0            estimate D2E/DX2                !
 ! D64   D(15,13,14,16)         -0.0001         estimate D2E/DX2                !
 ! D65   D(10,13,15,17)        179.9995         estimate D2E/DX2                !
 ! D66   D(10,13,15,31)         -0.0003         estimate D2E/DX2                !
 ! D67   D(14,13,15,17)         -0.0003         estimate D2E/DX2                !
 ! D68   D(14,13,15,31)        179.9999         estimate D2E/DX2                !
 ! D69   D(12,14,16,18)       -179.9996         estimate D2E/DX2                !
 ! D70   D(12,14,16,20)          0.0003         estimate D2E/DX2                !
 ! D71   D(13,14,16,18)          0.0005         estimate D2E/DX2                !
 ! D72   D(13,14,16,20)       -179.9996         estimate D2E/DX2                !
 ! D73   D(13,15,17,18)          0.0003         estimate D2E/DX2                !
 ! D74   D(13,15,17,32)       -179.9998         estimate D2E/DX2                !
 ! D75   D(31,15,17,18)       -179.9999         estimate D2E/DX2                !
 ! D76   D(31,15,17,32)          0.0            estimate D2E/DX2                !
 ! D77   D(14,16,18,17)         -0.0005         estimate D2E/DX2                !
 ! D78   D(14,16,18,19)        179.9996         estimate D2E/DX2                !
 ! D79   D(20,16,18,17)        179.9996         estimate D2E/DX2                !
 ! D80   D(20,16,18,19)         -0.0003         estimate D2E/DX2                !
 ! D81   D(14,16,20,22)       -179.9997         estimate D2E/DX2                !
 ! D82   D(14,16,20,34)          0.0006         estimate D2E/DX2                !
 ! D83   D(18,16,20,22)          0.0003         estimate D2E/DX2                !
 ! D84   D(18,16,20,34)       -179.9995         estimate D2E/DX2                !
 ! D85   D(15,17,18,16)          0.0001         estimate D2E/DX2                !
 ! D86   D(15,17,18,19)        180.0            estimate D2E/DX2                !
 ! D87   D(32,17,18,16)       -179.9998         estimate D2E/DX2                !
 ! D88   D(32,17,18,19)          0.0001         estimate D2E/DX2                !
 ! D89   D(16,18,19,21)          0.0001         estimate D2E/DX2                !
 ! D90   D(16,18,19,33)       -179.9999         estimate D2E/DX2                !
 ! D91   D(17,18,19,21)       -179.9998         estimate D2E/DX2                !
 ! D92   D(17,18,19,33)          0.0001         estimate D2E/DX2                !
 ! D93   D(18,19,21,22)          0.0001         estimate D2E/DX2                !
 ! D94   D(18,19,21,35)       -179.9999         estimate D2E/DX2                !
 ! D95   D(33,19,21,22)       -179.9998         estimate D2E/DX2                !
 ! D96   D(33,19,21,35)          0.0002         estimate D2E/DX2                !
 ! D97   D(16,20,22,21)         -0.0001         estimate D2E/DX2                !
 ! D98   D(16,20,22,36)       -180.0            estimate D2E/DX2                !
 ! D99   D(34,20,22,21)        179.9997         estimate D2E/DX2                !
 ! D100  D(34,20,22,36)         -0.0002         estimate D2E/DX2                !
 ! D101  D(19,21,22,20)         -0.0001         estimate D2E/DX2                !
 ! D102  D(19,21,22,36)        179.9998         estimate D2E/DX2                !
 ! D103  D(35,21,22,20)        179.9998         estimate D2E/DX2                !
 ! D104  D(35,21,22,36)         -0.0002         estimate D2E/DX2                !
 --------------------------------------------------------------------------------
 Trust Radius=3.00D-01 FncErr=1.00D-07 GrdErr=1.00D-06
 Number of steps in this run=    216 maximum allowed number of steps=    216.
 GradGradGradGradGradGradGradGradGradGradGradGradGradGradGradGradGradGrad

 Leave Link  103 at Fri Jul  9 19:19:36 2021, MaxMem=  4194304000 cpu:         0.0
 (Enter /home/minenky/programs//g09/l202.exe)
                          Input orientation:                          
 ---------------------------------------------------------------------
 Center     Atomic      Atomic             Coordinates (Angstroms)
 Number     Number       Type             X           Y           Z
 ---------------------------------------------------------------------
      1          6           0       -2.866154    0.303558    0.000006
      2          6           0       -3.523342    1.546714    0.000029
      3          6           0       -4.899109    1.632321    0.000025
      4          6           0       -3.661409   -0.871243   -0.000010
      5          6           0       -1.416819    0.176246    0.000000
      6          6           0       -5.063781   -0.760775   -0.000016
      7          6           0       -3.029709   -2.158133   -0.000013
      8          6           0       -5.679536    0.470019   -0.000001
      9          6           0       -0.833628   -1.127261    0.000005
     10          6           0       -0.554098    1.267865   -0.000013
     11          6           0       -1.684105   -2.280039    0.000001
     12          6           0        0.554098   -1.267864    0.000006
     13          6           0        0.833628    1.127262   -0.000014
     14          6           0        1.416820   -0.176247   -0.000002
     15          6           0        1.684105    2.280039   -0.000023
     16          6           0        2.866154   -0.303558   -0.000001
     17          6           0        3.029709    2.158133   -0.000014
     18          6           0        3.661409    0.871243   -0.000002
     19          6           0        5.063781    0.760774    0.000007
     20          6           0        3.523342   -1.546714    0.000002
     21          6           0        5.679536   -0.470019    0.000014
     22          6           0        4.899109   -1.632321    0.000010
     23          1           0       -2.946906    2.460493    0.000059
     24          1           0       -5.376529    2.603629    0.000044
     25          1           0       -5.655573   -1.668122   -0.000030
     26          1           0       -3.661771   -3.037717   -0.000023
     27          1           0       -6.759406    0.540642   -0.000008
     28          1           0       -0.950688    2.273641   -0.000029
     29          1           0       -1.219772   -3.258641    0.000005
     30          1           0        0.950688   -2.273641    0.000014
     31          1           0        1.219773    3.258641   -0.000034
     32          1           0        3.661771    3.037717   -0.000018
     33          1           0        5.655573    1.668122    0.000007
     34          1           0        2.946906   -2.460494   -0.000006
     35          1           0        6.759406   -0.540641    0.000023
     36          1           0        5.376529   -2.603629    0.000012
 ---------------------------------------------------------------------
                    Distance matrix (angstroms):
                    1          2          3          4          5
     1  C    0.000000
     2  C    1.406177   0.000000
     3  C    2.428686   1.378428   0.000000
     4  C    1.418657   2.421896   2.792800   0.000000
     5  C    1.454916   2.513090   3.774453   2.476977   0.000000
     6  C    2.441796   2.774429   2.398755   1.406716   3.765414
     7  C    2.467118   3.737588   4.226369   1.433573   2.837383
     8  C    2.818302   2.410072   1.400004   2.423184   4.272828
     9  C    2.485640   3.792717   4.913596   2.839347   1.428020
    10  C    2.505093   2.982309   4.360269   3.772422   1.391373
    11  C    2.841164   4.245802   5.063873   2.427846   2.470785
    12  C    3.763973   4.954530   6.176450   4.234124   2.443352
    13  C    3.790366   4.377114   5.754942   4.919287   2.443142
    14  C    4.309766   5.231997   6.569770   5.125566   2.855479
    15  C    4.960981   5.258828   6.615002   6.205248   3.747222
    16  C    5.764369   6.652005   8.002933   6.552202   4.309764
    17  C    6.180667   6.581513   7.946234   7.344942   4.868212
    18  C    6.552202   7.216433   8.594283   7.527278   5.125565
    19  C    7.943105   8.623015  10.000939   8.876509   6.506908
    20  C    6.652005   7.695781   9.002441   7.216433   5.231996
    21  C    8.580632   9.421262  10.785526   9.349558   7.125722
    22  C    8.002933   9.002441  10.327776   8.594283   6.569769
    23  H    2.158446   1.080403   2.120605   3.407489   2.749355
    24  H    3.404748   2.133394   1.082298   3.875096   4.644512
    25  H    3.415901   3.857665   3.386024   2.147488   4.622632
    26  H    3.434694   4.586520   4.831176   2.166474   3.920379
    27  H    3.900464   3.388848   2.156958   3.404556   5.355000
    28  H    2.747769   2.673382   4.000165   4.151904   2.148568
    29  H    3.924262   5.328965   6.120378   3.414859   3.440534
    30  H    4.605457   5.883201   7.033965   4.820597   3.406910
    31  H    5.042550   5.042602   6.331322   6.393894   4.056202
    32  H    7.077389   7.338184   8.675471   8.301140   5.829245
    33  H    8.630288   9.179718  10.554743   9.656838   7.228030
    34  H    6.436742   7.610639   8.849355   6.796731   5.098480
    35  H    9.662509  10.492471  11.859289  10.426058   8.207593
    36  H    8.740341   9.820033  11.114495   9.202472   7.340115
                    6          7          8          9         10
     6  C    0.000000
     7  C    2.467804   0.000000
     8  C    1.376230   3.732126   0.000000
     9  C    4.245999   2.425999   5.102365   0.000000
    10  C    4.944959   4.226832   5.187164   2.411383   0.000000
    11  C    3.705452   1.351115   4.850390   1.432553   3.723512
    12  C    5.640718   3.692730   6.471355   1.394831   2.767313
    13  C    6.192263   5.071409   6.546241   2.804036   1.394831
    14  C    6.506909   4.868212   7.125723   2.443142   2.443354
    15  C    7.401386   6.474366   7.582835   4.236587   2.456430
    16  C    7.943105   6.180667   8.580632   3.790366   3.763973
    17  C    8.603755   7.439536   8.871340   5.071409   3.692729
    18  C    8.876510   7.344942   9.349558   4.919286   4.234124
    19  C   10.241222   8.603755  10.747251   6.192262   5.640719
    20  C    8.623015   6.581513   9.421262   4.377114   4.954530
    21  C   10.747251   8.871340  11.397903   6.546241   6.471355
    22  C   10.000938   7.946234  10.785526   5.754942   6.176451
    23  H    3.854572   4.619368   3.380718   4.163883   2.673554
    24  H    3.378909   5.308667   2.155019   5.878562   5.004009
    25  H    1.083280   2.671193   2.138275   4.852183   5.886006
    26  H    2.673967   1.083130   4.046676   3.412951   5.309959
    27  H    2.137482   4.603697   1.082177   6.156033   6.247776
    28  H    5.111283   4.895197   5.061132   3.402916   1.081142
    29  H    4.584293   2.118252   5.813123   2.166077   4.575192
    30  H    6.201822   3.982073   7.175482   2.120842   3.847940
    31  H    7.459139   6.884732   7.441564   4.842788   2.666422
    32  H    9.516501   8.471881   9.687780   6.128267   4.572300
    33  H   10.991091   9.490751  11.398252   7.065684   6.222557
    34  H    8.189026   5.984258   9.110621   4.008734   5.114459
    35  H   11.825236   9.921847  12.479932   7.615661   7.533793
    36  H   10.601707   8.418034  11.475360   6.383237   7.082429
                   11         12         13         14         15
    11  C    0.000000
    12  C    2.456431   0.000000
    13  C    4.236588   2.411383   0.000000
    14  C    3.747223   1.391372   1.428023   0.000000
    15  C    5.669140   3.723511   1.432552   2.470786   0.000000
    16  C    4.960981   2.505093   2.485640   1.454915   2.841164
    17  C    6.474366   4.226832   2.425998   2.837383   1.351115
    18  C    6.205248   3.772421   2.839347   2.476977   2.427846
    19  C    7.401386   4.944958   4.245999   3.765413   3.705452
    20  C    5.258828   2.982309   3.792718   2.513089   4.245802
    21  C    7.582835   5.187164   5.102365   4.272827   4.850390
    22  C    6.615002   4.360269   4.913597   3.774452   5.063873
    23  H    4.905844   5.114457   4.008733   5.098480   4.634525
    24  H    6.122435   7.082429   6.383237   7.340116   7.068045
    25  H    4.018333   6.222557   7.065685   7.228031   8.334198
    26  H    2.117838   4.572300   6.128267   5.829245   7.540353
    27  H    5.806455   7.533793   7.615661   8.207594   8.620811
    28  H    4.612364   3.847940   2.120841   3.406911   2.634801
    29  H    1.083175   2.666422   4.842788   4.056201   6.253757
    30  H    2.634801   1.081143   3.402917   2.148567   4.612364
    31  H    6.253758   4.575191   2.166076   3.440535   1.083174
    32  H    7.540353   5.309958   3.412951   3.920379   2.117838
    33  H    8.334198   5.886006   4.852183   4.622632   4.018333
    34  H    4.634526   2.673555   4.163885   2.749354   4.905845
    35  H    8.620811   6.247776   6.156033   5.354998   5.806455
    36  H    7.068045   5.004009   5.878563   4.644511   6.122435
                   16         17         18         19         20
    16  C    0.000000
    17  C    2.467118   0.000000
    18  C    1.418657   1.433573   0.000000
    19  C    2.441796   2.467805   1.406716   0.000000
    20  C    1.406177   3.737588   2.421896   2.774428   0.000000
    21  C    2.818302   3.732126   2.423184   1.376229   2.410072
    22  C    2.428686   4.226369   2.792800   2.398754   1.378428
    23  H    6.436742   5.984258   6.796730   8.189026   7.610638
    24  H    8.740341   8.418034   9.202472  10.601707   9.820033
    25  H    8.630288   9.490751   9.656838  10.991091   9.179718
    26  H    7.077389   8.471881   8.301140   9.516501   7.338184
    27  H    9.662509   9.921847  10.426058  11.825236  10.492472
    28  H    4.605457   3.982073   4.820597   6.201823   5.883201
    29  H    5.042550   6.884732   6.393893   7.459138   5.042601
    30  H    2.747769   4.895197   4.151904   5.111282   2.673382
    31  H    3.924262   2.118251   3.414858   4.584292   5.328965
    32  H    3.434694   1.083130   2.166474   2.673967   4.586520
    33  H    3.415901   2.671193   2.147488   1.083281   3.857665
    34  H    2.158447   4.619369   3.407490   3.854572   1.080404
    35  H    3.900464   4.603696   3.404556   2.137481   3.388848
    36  H    3.404748   5.308667   3.875096   3.378908   2.133394
                   21         22         23         24         25
    21  C    0.000000
    22  C    1.400004   0.000000
    23  H    9.110620   8.849355   0.000000
    24  H   11.475360  11.114495   2.433836   0.000000
    25  H   11.398252  10.554743   4.937848   4.280855   0.000000
    26  H    9.687780   8.675471   5.544488   5.896200   2.418892
    27  H   12.479932  11.859289   4.268604   2.483599   2.469228
    28  H    7.175482   7.033965   2.004944   4.438126   6.137869
    29  H    7.441563   6.331321   5.974235   7.186434   4.712333
    30  H    5.061132   4.000165   6.132150   7.988832   6.633953
    31  H    5.813122   6.120378   4.242435   6.628744   8.458332
    32  H    4.046676   4.831176   6.633837   9.048718  10.438286
    33  H    2.138275   3.386024   8.638894  11.071696  11.792902
    34  H    3.380718   2.120605   7.678094   9.742942   8.638895
    35  H    1.082177   2.156959  10.159690  12.536640  12.466071
    36  H    2.155019   1.082298   9.742941  11.947543  11.071696
                   26         27         28         29         30
    26  H    0.000000
    27  H    4.732863   0.000000
    28  H    5.963262   6.061723   0.000000
    29  H    2.451972   6.717298   5.538822   0.000000
    30  H    4.675317   8.207663   4.928793   2.383510   0.000000
    31  H    7.967032   8.429402   2.383511   6.958904   5.538822
    32  H    9.515522  10.716171   4.675317   7.967031   5.963262
    33  H   10.438286  12.466071   6.633953   8.458331   6.137869
    34  H    6.633837  10.159690   6.132151   4.242434   2.004944
    35  H   10.716171  13.561986   8.207663   8.429401   6.061724
    36  H    9.048718  12.536641   7.988832   6.628743   4.438126
                   31         32         33         34         35
    31  H    0.000000
    32  H    2.451971   0.000000
    33  H    4.712332   2.418892   0.000000
    34  H    5.974236   5.544489   4.937848   0.000000
    35  H    6.717297   4.732863   2.469227   4.268605   0.000000
    36  H    7.186434   5.896200   4.280855   2.433836   2.483600
                   36
    36  H    0.000000
 Stoichiometry    C22H14
 Framework group  C1[X(C22H14)]
 Deg. of freedom   102
 Full point group                 C1      NOp   1
 Largest Abelian subgroup         C1      NOp   1
 Largest concise Abelian subgroup C1      NOp   1
                         Standard orientation:                         
 ---------------------------------------------------------------------
 Center     Atomic      Atomic             Coordinates (Angstroms)
 Number     Number       Type             X           Y           Z
 ---------------------------------------------------------------------
      1          6           0       -2.866154    0.303558    0.000006
      2          6           0       -3.523342    1.546714    0.000029
      3          6           0       -4.899109    1.632321    0.000025
      4          6           0       -3.661409   -0.871243   -0.000010
      5          6           0       -1.416819    0.176246    0.000000
      6          6           0       -5.063781   -0.760775   -0.000016
      7          6           0       -3.029709   -2.158133   -0.000013
      8          6           0       -5.679536    0.470019   -0.000001
      9          6           0       -0.833628   -1.127261    0.000005
     10          6           0       -0.554098    1.267865   -0.000013
     11          6           0       -1.684105   -2.280039    0.000001
     12          6           0        0.554098   -1.267864    0.000006
     13          6           0        0.833628    1.127262   -0.000014
     14          6           0        1.416820   -0.176247   -0.000002
     15          6           0        1.684105    2.280039   -0.000023
     16          6           0        2.866154   -0.303558   -0.000001
     17          6           0        3.029709    2.158133   -0.000014
     18          6           0        3.661409    0.871243   -0.000002
     19          6           0        5.063781    0.760774    0.000007
     20          6           0        3.523342   -1.546714    0.000002
     21          6           0        5.679536   -0.470019    0.000014
     22          6           0        4.899109   -1.632321    0.000010
     23          1           0       -2.946906    2.460493    0.000059
     24          1           0       -5.376529    2.603629    0.000044
     25          1           0       -5.655573   -1.668122   -0.000030
     26          1           0       -3.661771   -3.037717   -0.000023
     27          1           0       -6.759406    0.540642   -0.000008
     28          1           0       -0.950688    2.273641   -0.000029
     29          1           0       -1.219772   -3.258641    0.000005
     30          1           0        0.950688   -2.273641    0.000014
     31          1           0        1.219773    3.258641   -0.000034
     32          1           0        3.661771    3.037717   -0.000018
     33          1           0        5.655573    1.668122    0.000007
     34          1           0        2.946906   -2.460494   -0.000006
     35          1           0        6.759406   -0.540641    0.000023
     36          1           0        5.376529   -2.603629    0.000012
 ---------------------------------------------------------------------
 Rotational constants (GHZ):      0.9191499      0.1483257      0.1277158
 Leave Link  202 at Fri Jul  9 19:19:36 2021, MaxMem=  4194304000 cpu:         0.9
 (Enter /home/minenky/programs//g09/l301.exe)
 Standard basis: def2TZVP (5D, 7F)
 ======================================================================================================
                                       Pseudopotential Parameters
 ======================================================================================================
  Center     Atomic      Valence      Angular      Power
  Number     Number     Electrons     Momentum     of R      Exponent        Coefficient   SO-Coeffient
 ======================================================================================================
    1          6
                                   No pseudopotential on this center.
    2          6
                                   No pseudopotential on this center.
    3          6
                                   No pseudopotential on this center.
    4          6
                                   No pseudopotential on this center.
    5          6
                                   No pseudopotential on this center.
    6          6
                                   No pseudopotential on this center.
    7          6
                                   No pseudopotential on this center.
    8          6
                                   No pseudopotential on this center.
    9          6
                                   No pseudopotential on this center.
   10          6
                                   No pseudopotential on this center.
   11          6
                                   No pseudopotential on this center.
   12          6
                                   No pseudopotential on this center.
   13          6
                                   No pseudopotential on this center.
   14          6
                                   No pseudopotential on this center.
   15          6
                                   No pseudopotential on this center.
   16          6
                                   No pseudopotential on this center.
   17          6
                                   No pseudopotential on this center.
   18          6
                                   No pseudopotential on this center.
   19          6
                                   No pseudopotential on this center.
   20          6
                                   No pseudopotential on this center.
   21          6
                                   No pseudopotential on this center.
   22          6
                                   No pseudopotential on this center.
   23          1
                                   No pseudopotential on this center.
   24          1
                                   No pseudopotential on this center.
   25          1
                                   No pseudopotential on this center.
   26          1
                                   No pseudopotential on this center.
   27          1
                                   No pseudopotential on this center.
   28          1
                                   No pseudopotential on this center.
   29          1
                                   No pseudopotential on this center.
   30          1
                                   No pseudopotential on this center.
   31          1
                                   No pseudopotential on this center.
   32          1
                                   No pseudopotential on this center.
   33          1
                                   No pseudopotential on this center.
   34          1
                                   No pseudopotential on this center.
   35          1
                                   No pseudopotential on this center.
   36          1
                                   No pseudopotential on this center.
 ======================================================================================================
 Ernie: Thresh=  0.10000D-02 Tol=  0.10000D-05 Strict=F.
 AO basis set (Overlap normalization):
 Atom C1       Shell     1 S   6     bf    1 -     1         -5.416246201449          0.573641521604          0.000011441903
      0.1357534968D+05  0.6064550360D-03
      0.2035233368D+04  0.4697908888D-02
      0.4632256236D+03  0.2433247765D-01
      0.1312001960D+03  0.9739996831D-01
      0.4285301589D+02  0.3019558425D+00
      0.1558418577D+02  0.6623360914D+00
 Atom C1       Shell     2 S   2     bf    2 -     2         -5.416246201449          0.573641521604          0.000011441903
      0.6206713851D+01  0.6559530854D+00
      0.2576489653D+01  0.3758563329D+00
 Atom C1       Shell     3 S   1     bf    3 -     3         -5.416246201449          0.573641521604          0.000011441903
      0.5769633942D+00  0.1000000000D+01
 Atom C1       Shell     4 S   1     bf    4 -     4         -5.416246201449          0.573641521604          0.000011441903
      0.2297283136D+00  0.1000000000D+01
 Atom C1       Shell     5 S   1     bf    5 -     5         -5.416246201449          0.573641521604          0.000011441903
      0.9516444003D-01  0.1000000000D+01
 Atom C1       Shell     6 P   4     bf    6 -     8         -5.416246201449          0.573641521604          0.000011441903
      0.3469723224D+02  0.1132722000D-01
      0.7958262283D+01  0.7616965920D-01
      0.2378082688D+01  0.3019225220D+00
      0.8143320818D+00  0.7278502735D+00
 Atom C1       Shell     7 P   1     bf    9 -    11         -5.416246201449          0.573641521604          0.000011441903
      0.2888754725D+00  0.1000000000D+01
 Atom C1       Shell     8 P   1     bf   12 -    14         -5.416246201449          0.573641521604          0.000011441903
      0.1005682367D+00  0.1000000000D+01
 Atom C1       Shell     9 D   1     bf   15 -    19         -5.416246201449          0.573641521604          0.000011441903
      0.1097000000D+01  0.1000000000D+01
 Atom C1       Shell    10 D   1     bf   20 -    24         -5.416246201449          0.573641521604          0.000011441903
      0.3180000000D+00  0.1000000000D+01
 Atom C1       Shell    11 F   1     bf   25 -    31         -5.416246201449          0.573641521604          0.000011441903
      0.7610000000D+00  0.1000000000D+01
 Atom C2       Shell    12 S   6     bf   32 -    32         -6.658151523585          2.922865910348          0.000054905604
      0.1357534968D+05  0.6064550360D-03
      0.2035233368D+04  0.4697908888D-02
      0.4632256236D+03  0.2433247765D-01
      0.1312001960D+03  0.9739996831D-01
      0.4285301589D+02  0.3019558425D+00
      0.1558418577D+02  0.6623360914D+00
 Atom C2       Shell    13 S   2     bf   33 -    33         -6.658151523585          2.922865910348          0.000054905604
      0.6206713851D+01  0.6559530854D+00
      0.2576489653D+01  0.3758563329D+00
 Atom C2       Shell    14 S   1     bf   34 -    34         -6.658151523585          2.922865910348          0.000054905604
      0.5769633942D+00  0.1000000000D+01
 Atom C2       Shell    15 S   1     bf   35 -    35         -6.658151523585          2.922865910348          0.000054905604
      0.2297283136D+00  0.1000000000D+01
 Atom C2       Shell    16 S   1     bf   36 -    36         -6.658151523585          2.922865910348          0.000054905604
      0.9516444003D-01  0.1000000000D+01
 Atom C2       Shell    17 P   4     bf   37 -    39         -6.658151523585          2.922865910348          0.000054905604
      0.3469723224D+02  0.1132722000D-01
      0.7958262283D+01  0.7616965920D-01
      0.2378082688D+01  0.3019225220D+00
      0.8143320818D+00  0.7278502735D+00
 Atom C2       Shell    18 P   1     bf   40 -    42         -6.658151523585          2.922865910348          0.000054905604
      0.2888754725D+00  0.1000000000D+01
 Atom C2       Shell    19 P   1     bf   43 -    45         -6.658151523585          2.922865910348          0.000054905604
      0.1005682367D+00  0.1000000000D+01
 Atom C2       Shell    20 D   1     bf   46 -    50         -6.658151523585          2.922865910348          0.000054905604
      0.1097000000D+01  0.1000000000D+01
 Atom C2       Shell    21 D   1     bf   51 -    55         -6.658151523585          2.922865910348          0.000054905604
      0.3180000000D+00  0.1000000000D+01
 Atom C2       Shell    22 F   1     bf   56 -    62         -6.658151523585          2.922865910348          0.000054905604
      0.7610000000D+00  0.1000000000D+01
 Atom C3       Shell    23 S   6     bf   63 -    63         -9.257974375166          3.084639712761          0.000047346700
      0.1357534968D+05  0.6064550360D-03
      0.2035233368D+04  0.4697908888D-02
      0.4632256236D+03  0.2433247765D-01
      0.1312001960D+03  0.9739996831D-01
      0.4285301589D+02  0.3019558425D+00
      0.1558418577D+02  0.6623360914D+00
 Atom C3       Shell    24 S   2     bf   64 -    64         -9.257974375166          3.084639712761          0.000047346700
      0.6206713851D+01  0.6559530854D+00
      0.2576489653D+01  0.3758563329D+00
 Atom C3       Shell    25 S   1     bf   65 -    65         -9.257974375166          3.084639712761          0.000047346700
      0.5769633942D+00  0.1000000000D+01
 Atom C3       Shell    26 S   1     bf   66 -    66         -9.257974375166          3.084639712761          0.000047346700
      0.2297283136D+00  0.1000000000D+01
 Atom C3       Shell    27 S   1     bf   67 -    67         -9.257974375166          3.084639712761          0.000047346700
      0.9516444003D-01  0.1000000000D+01
 Atom C3       Shell    28 P   4     bf   68 -    70         -9.257974375166          3.084639712761          0.000047346700
      0.3469723224D+02  0.1132722000D-01
      0.7958262283D+01  0.7616965920D-01
      0.2378082688D+01  0.3019225220D+00
      0.8143320818D+00  0.7278502735D+00
 Atom C3       Shell    29 P   1     bf   71 -    73         -9.257974375166          3.084639712761          0.000047346700
      0.2888754725D+00  0.1000000000D+01
 Atom C3       Shell    30 P   1     bf   74 -    76         -9.257974375166          3.084639712761          0.000047346700
      0.1005682367D+00  0.1000000000D+01
 Atom C3       Shell    31 D   1     bf   77 -    81         -9.257974375166          3.084639712761          0.000047346700
      0.1097000000D+01  0.1000000000D+01
 Atom C3       Shell    32 D   1     bf   82 -    86         -9.257974375166          3.084639712761          0.000047346700
      0.3180000000D+00  0.1000000000D+01
 Atom C3       Shell    33 F   1     bf   87 -    93         -9.257974375166          3.084639712761          0.000047346700
      0.7610000000D+00  0.1000000000D+01
 Atom C4       Shell    34 S   6     bf   94 -    94         -6.919060372077         -1.646410619004         -0.000018793715
      0.1357534968D+05  0.6064550360D-03
      0.2035233368D+04  0.4697908888D-02
      0.4632256236D+03  0.2433247765D-01
      0.1312001960D+03  0.9739996831D-01
      0.4285301589D+02  0.3019558425D+00
      0.1558418577D+02  0.6623360914D+00
 Atom C4       Shell    35 S   2     bf   95 -    95         -6.919060372077         -1.646410619004         -0.000018793715
      0.6206713851D+01  0.6559530854D+00
      0.2576489653D+01  0.3758563329D+00
 Atom C4       Shell    36 S   1     bf   96 -    96         -6.919060372077         -1.646410619004         -0.000018793715
      0.5769633942D+00  0.1000000000D+01
 Atom C4       Shell    37 S   1     bf   97 -    97         -6.919060372077         -1.646410619004         -0.000018793715
      0.2297283136D+00  0.1000000000D+01
 Atom C4       Shell    38 S   1     bf   98 -    98         -6.919060372077         -1.646410619004         -0.000018793715
      0.9516444003D-01  0.1000000000D+01
 Atom C4       Shell    39 P   4     bf   99 -   101         -6.919060372077         -1.646410619004         -0.000018793715
      0.3469723224D+02  0.1132722000D-01
      0.7958262283D+01  0.7616965920D-01
      0.2378082688D+01  0.3019225220D+00
      0.8143320818D+00  0.7278502735D+00
 Atom C4       Shell    40 P   1     bf  102 -   104         -6.919060372077         -1.646410619004         -0.000018793715
      0.2888754725D+00  0.1000000000D+01
 Atom C4       Shell    41 P   1     bf  105 -   107         -6.919060372077         -1.646410619004         -0.000018793715
      0.1005682367D+00  0.1000000000D+01
 Atom C4       Shell    42 D   1     bf  108 -   112         -6.919060372077         -1.646410619004         -0.000018793715
      0.1097000000D+01  0.1000000000D+01
 Atom C4       Shell    43 D   1     bf  113 -   117         -6.919060372077         -1.646410619004         -0.000018793715
      0.3180000000D+00  0.1000000000D+01
 Atom C4       Shell    44 F   1     bf  118 -   124         -6.919060372077         -1.646410619004         -0.000018793715
      0.7610000000D+00  0.1000000000D+01
 Atom C5       Shell    45 S   6     bf  125 -   125         -2.677399978249          0.333056689890          0.000000103547
      0.1357534968D+05  0.6064550360D-03
      0.2035233368D+04  0.4697908888D-02
      0.4632256236D+03  0.2433247765D-01
      0.1312001960D+03  0.9739996831D-01
      0.4285301589D+02  0.3019558425D+00
      0.1558418577D+02  0.6623360914D+00
 Atom C5       Shell    46 S   2     bf  126 -   126         -2.677399978249          0.333056689890          0.000000103547
      0.6206713851D+01  0.6559530854D+00
      0.2576489653D+01  0.3758563329D+00
 Atom C5       Shell    47 S   1     bf  127 -   127         -2.677399978249          0.333056689890          0.000000103547
      0.5769633942D+00  0.1000000000D+01
 Atom C5       Shell    48 S   1     bf  128 -   128         -2.677399978249          0.333056689890          0.000000103547
      0.2297283136D+00  0.1000000000D+01
 Atom C5       Shell    49 S   1     bf  129 -   129         -2.677399978249          0.333056689890          0.000000103547
      0.9516444003D-01  0.1000000000D+01
 Atom C5       Shell    50 P   4     bf  130 -   132         -2.677399978249          0.333056689890          0.000000103547
      0.3469723224D+02  0.1132722000D-01
      0.7958262283D+01  0.7616965920D-01
      0.2378082688D+01  0.3019225220D+00
      0.8143320818D+00  0.7278502735D+00
 Atom C5       Shell    51 P   1     bf  133 -   135         -2.677399978249          0.333056689890          0.000000103547
      0.2888754725D+00  0.1000000000D+01
 Atom C5       Shell    52 P   1     bf  136 -   138         -2.677399978249          0.333056689890          0.000000103547
      0.1005682367D+00  0.1000000000D+01
 Atom C5       Shell    53 D   1     bf  139 -   143         -2.677399978249          0.333056689890          0.000000103547
      0.1097000000D+01  0.1000000000D+01
 Atom C5       Shell    54 D   1     bf  144 -   148         -2.677399978249          0.333056689890          0.000000103547
      0.3180000000D+00  0.1000000000D+01
 Atom C5       Shell    55 F   1     bf  149 -   155         -2.677399978249          0.333056689890          0.000000103547
      0.7610000000D+00  0.1000000000D+01
 Atom C6       Shell    56 S   6     bf  156 -   156         -9.569159387110         -1.437656334865         -0.000030132071
      0.1357534968D+05  0.6064550360D-03
      0.2035233368D+04  0.4697908888D-02
      0.4632256236D+03  0.2433247765D-01
      0.1312001960D+03  0.9739996831D-01
      0.4285301589D+02  0.3019558425D+00
      0.1558418577D+02  0.6623360914D+00
 Atom C6       Shell    57 S   2     bf  157 -   157         -9.569159387110         -1.437656334865         -0.000030132071
      0.6206713851D+01  0.6559530854D+00
      0.2576489653D+01  0.3758563329D+00
 Atom C6       Shell    58 S   1     bf  158 -   158         -9.569159387110         -1.437656334865         -0.000030132071
      0.5769633942D+00  0.1000000000D+01
 Atom C6       Shell    59 S   1     bf  159 -   159         -9.569159387110         -1.437656334865         -0.000030132071
      0.2297283136D+00  0.1000000000D+01
 Atom C6       Shell    60 S   1     bf  160 -   160         -9.569159387110         -1.437656334865         -0.000030132071
      0.9516444003D-01  0.1000000000D+01
 Atom C6       Shell    61 P   4     bf  161 -   163         -9.569159387110         -1.437656334865         -0.000030132071
      0.3469723224D+02  0.1132722000D-01
      0.7958262283D+01  0.7616965920D-01
      0.2378082688D+01  0.3019225220D+00
      0.8143320818D+00  0.7278502735D+00
 Atom C6       Shell    62 P   1     bf  164 -   166         -9.569159387110         -1.437656334865         -0.000030132071
      0.2888754725D+00  0.1000000000D+01
 Atom C6       Shell    63 P   1     bf  167 -   169         -9.569159387110         -1.437656334865         -0.000030132071
      0.1005682367D+00  0.1000000000D+01
 Atom C6       Shell    64 D   1     bf  170 -   174         -9.569159387110         -1.437656334865         -0.000030132071
      0.1097000000D+01  0.1000000000D+01
 Atom C6       Shell    65 D   1     bf  175 -   179         -9.569159387110         -1.437656334865         -0.000030132071
      0.3180000000D+00  0.1000000000D+01
 Atom C6       Shell    66 F   1     bf  180 -   186         -9.569159387110         -1.437656334865         -0.000030132071
      0.7610000000D+00  0.1000000000D+01
 Atom C7       Shell    67 S   6     bf  187 -   187         -5.725320390167         -4.078280290122         -0.000024462893
      0.1357534968D+05  0.6064550360D-03
      0.2035233368D+04  0.4697908888D-02
      0.4632256236D+03  0.2433247765D-01
      0.1312001960D+03  0.9739996831D-01
      0.4285301589D+02  0.3019558425D+00
      0.1558418577D+02  0.6623360914D+00
 Atom C7       Shell    68 S   2     bf  188 -   188         -5.725320390167         -4.078280290122         -0.000024462893
      0.6206713851D+01  0.6559530854D+00
      0.2576489653D+01  0.3758563329D+00
 Atom C7       Shell    69 S   1     bf  189 -   189         -5.725320390167         -4.078280290122         -0.000024462893
      0.5769633942D+00  0.1000000000D+01
 Atom C7       Shell    70 S   1     bf  190 -   190         -5.725320390167         -4.078280290122         -0.000024462893
      0.2297283136D+00  0.1000000000D+01
 Atom C7       Shell    71 S   1     bf  191 -   191         -5.725320390167         -4.078280290122         -0.000024462893
      0.9516444003D-01  0.1000000000D+01
 Atom C7       Shell    72 P   4     bf  192 -   194         -5.725320390167         -4.078280290122         -0.000024462893
      0.3469723224D+02  0.1132722000D-01
      0.7958262283D+01  0.7616965920D-01
      0.2378082688D+01  0.3019225220D+00
      0.8143320818D+00  0.7278502735D+00
 Atom C7       Shell    73 P   1     bf  195 -   197         -5.725320390167         -4.078280290122         -0.000024462893
      0.2888754725D+00  0.1000000000D+01
 Atom C7       Shell    74 P   1     bf  198 -   200         -5.725320390167         -4.078280290122         -0.000024462893
      0.1005682367D+00  0.1000000000D+01
 Atom C7       Shell    75 D   1     bf  201 -   205         -5.725320390167         -4.078280290122         -0.000024462893
      0.1097000000D+01  0.1000000000D+01
 Atom C7       Shell    76 D   1     bf  206 -   210         -5.725320390167         -4.078280290122         -0.000024462893
      0.3180000000D+00  0.1000000000D+01
 Atom C7       Shell    77 F   1     bf  211 -   217         -5.725320390167         -4.078280290122         -0.000024462893
      0.7610000000D+00  0.1000000000D+01
 Atom C8       Shell    78 S   6     bf  218 -   218        -10.732767686539          0.888207258901         -0.000001786179
      0.1357534968D+05  0.6064550360D-03
      0.2035233368D+04  0.4697908888D-02
      0.4632256236D+03  0.2433247765D-01
      0.1312001960D+03  0.9739996831D-01
      0.4285301589D+02  0.3019558425D+00
      0.1558418577D+02  0.6623360914D+00
 Atom C8       Shell    79 S   2     bf  219 -   219        -10.732767686539          0.888207258901         -0.000001786179
      0.6206713851D+01  0.6559530854D+00
      0.2576489653D+01  0.3758563329D+00
 Atom C8       Shell    80 S   1     bf  220 -   220        -10.732767686539          0.888207258901         -0.000001786179
      0.5769633942D+00  0.1000000000D+01
 Atom C8       Shell    81 S   1     bf  221 -   221        -10.732767686539          0.888207258901         -0.000001786179
      0.2297283136D+00  0.1000000000D+01
 Atom C8       Shell    82 S   1     bf  222 -   222        -10.732767686539          0.888207258901         -0.000001786179
      0.9516444003D-01  0.1000000000D+01
 Atom C8       Shell    83 P   4     bf  223 -   225        -10.732767686539          0.888207258901         -0.000001786179
      0.3469723224D+02  0.1132722000D-01
      0.7958262283D+01  0.7616965920D-01
      0.2378082688D+01  0.3019225220D+00
      0.8143320818D+00  0.7278502735D+00
 Atom C8       Shell    84 P   1     bf  226 -   228        -10.732767686539          0.888207258901         -0.000001786179
      0.2888754725D+00  0.1000000000D+01
 Atom C8       Shell    85 P   1     bf  229 -   231        -10.732767686539          0.888207258901         -0.000001786179
      0.1005682367D+00  0.1000000000D+01
 Atom C8       Shell    86 D   1     bf  232 -   236        -10.732767686539          0.888207258901         -0.000001786179
      0.1097000000D+01  0.1000000000D+01
 Atom C8       Shell    87 D   1     bf  237 -   241        -10.732767686539          0.888207258901         -0.000001786179
      0.3180000000D+00  0.1000000000D+01
 Atom C8       Shell    88 F   1     bf  242 -   248        -10.732767686539          0.888207258901         -0.000001786179
      0.7610000000D+00  0.1000000000D+01
 Atom C9       Shell    89 S   6     bf  249 -   249         -1.575328721529         -2.130214559766          0.000009552177
      0.1357534968D+05  0.6064550360D-03
      0.2035233368D+04  0.4697908888D-02
      0.4632256236D+03  0.2433247765D-01
      0.1312001960D+03  0.9739996831D-01
      0.4285301589D+02  0.3019558425D+00
      0.1558418577D+02  0.6623360914D+00
 Atom C9       Shell    90 S   2     bf  250 -   250         -1.575328721529         -2.130214559766          0.000009552177
      0.6206713851D+01  0.6559530854D+00
      0.2576489653D+01  0.3758563329D+00
 Atom C9       Shell    91 S   1     bf  251 -   251         -1.575328721529         -2.130214559766          0.000009552177
      0.5769633942D+00  0.1000000000D+01
 Atom C9       Shell    92 S   1     bf  252 -   252         -1.575328721529         -2.130214559766          0.000009552177
      0.2297283136D+00  0.1000000000D+01
 Atom C9       Shell    93 S   1     bf  253 -   253         -1.575328721529         -2.130214559766          0.000009552177
      0.9516444003D-01  0.1000000000D+01
 Atom C9       Shell    94 P   4     bf  254 -   256         -1.575328721529         -2.130214559766          0.000009552177
      0.3469723224D+02  0.1132722000D-01
      0.7958262283D+01  0.7616965920D-01
      0.2378082688D+01  0.3019225220D+00
      0.8143320818D+00  0.7278502735D+00
 Atom C9       Shell    95 P   1     bf  257 -   259         -1.575328721529         -2.130214559766          0.000009552177
      0.2888754725D+00  0.1000000000D+01
 Atom C9       Shell    96 P   1     bf  260 -   262         -1.575328721529         -2.130214559766          0.000009552177
      0.1005682367D+00  0.1000000000D+01
 Atom C9       Shell    97 D   1     bf  263 -   267         -1.575328721529         -2.130214559766          0.000009552177
      0.1097000000D+01  0.1000000000D+01
 Atom C9       Shell    98 D   1     bf  268 -   272         -1.575328721529         -2.130214559766          0.000009552177
      0.3180000000D+00  0.1000000000D+01
 Atom C9       Shell    99 F   1     bf  273 -   279         -1.575328721529         -2.130214559766          0.000009552177
      0.7610000000D+00  0.1000000000D+01
 Atom C10      Shell   100 S   6     bf  280 -   280         -1.047093545389          2.395917630461         -0.000024462893
      0.1357534968D+05  0.6064550360D-03
      0.2035233368D+04  0.4697908888D-02
      0.4632256236D+03  0.2433247765D-01
      0.1312001960D+03  0.9739996831D-01
      0.4285301589D+02  0.3019558425D+00
      0.1558418577D+02  0.6623360914D+00
 Atom C10      Shell   101 S   2     bf  281 -   281         -1.047093545389          2.395917630461         -0.000024462893
      0.6206713851D+01  0.6559530854D+00
      0.2576489653D+01  0.3758563329D+00
 Atom C10      Shell   102 S   1     bf  282 -   282         -1.047093545389          2.395917630461         -0.000024462893
      0.5769633942D+00  0.1000000000D+01
 Atom C10      Shell   103 S   1     bf  283 -   283         -1.047093545389          2.395917630461         -0.000024462893
      0.2297283136D+00  0.1000000000D+01
 Atom C10      Shell   104 S   1     bf  284 -   284         -1.047093545389          2.395917630461         -0.000024462893
      0.9516444003D-01  0.1000000000D+01
 Atom C10      Shell   105 P   4     bf  285 -   287         -1.047093545389          2.395917630461         -0.000024462893
      0.3469723224D+02  0.1132722000D-01
      0.7958262283D+01  0.7616965920D-01
      0.2378082688D+01  0.3019225220D+00
      0.8143320818D+00  0.7278502735D+00
 Atom C10      Shell   106 P   1     bf  288 -   290         -1.047093545389          2.395917630461         -0.000024462893
      0.2888754725D+00  0.1000000000D+01
 Atom C10      Shell   107 P   1     bf  291 -   293         -1.047093545389          2.395917630461         -0.000024462893
      0.1005682367D+00  0.1000000000D+01
 Atom C10      Shell   108 D   1     bf  294 -   298         -1.047093545389          2.395917630461         -0.000024462893
      0.1097000000D+01  0.1000000000D+01
 Atom C10      Shell   109 D   1     bf  299 -   303         -1.047093545389          2.395917630461         -0.000024462893
      0.3180000000D+00  0.1000000000D+01
 Atom C10      Shell   110 F   1     bf  304 -   310         -1.047093545389          2.395917630461         -0.000024462893
      0.7610000000D+00  0.1000000000D+01
 Atom C11      Shell   111 S   6     bf  311 -   311         -3.182497348390         -4.308649261053          0.000001993273
      0.1357534968D+05  0.6064550360D-03
      0.2035233368D+04  0.4697908888D-02
      0.4632256236D+03  0.2433247765D-01
      0.1312001960D+03  0.9739996831D-01
      0.4285301589D+02  0.3019558425D+00
      0.1558418577D+02  0.6623360914D+00
 Atom C11      Shell   112 S   2     bf  312 -   312         -3.182497348390         -4.308649261053          0.000001993273
      0.6206713851D+01  0.6559530854D+00
      0.2576489653D+01  0.3758563329D+00
 Atom C11      Shell   113 S   1     bf  313 -   313         -3.182497348390         -4.308649261053          0.000001993273
      0.5769633942D+00  0.1000000000D+01
 Atom C11      Shell   114 S   1     bf  314 -   314         -3.182497348390         -4.308649261053          0.000001993273
      0.2297283136D+00  0.1000000000D+01
 Atom C11      Shell   115 S   1     bf  315 -   315         -3.182497348390         -4.308649261053          0.000001993273
      0.9516444003D-01  0.1000000000D+01
 Atom C11      Shell   116 P   4     bf  316 -   318         -3.182497348390         -4.308649261053          0.000001993273
      0.3469723224D+02  0.1132722000D-01
      0.7958262283D+01  0.7616965920D-01
      0.2378082688D+01  0.3019225220D+00
      0.8143320818D+00  0.7278502735D+00
 Atom C11      Shell   117 P   1     bf  319 -   321         -3.182497348390         -4.308649261053          0.000001993273
      0.2888754725D+00  0.1000000000D+01
 Atom C11      Shell   118 P   1     bf  322 -   324         -3.182497348390         -4.308649261053          0.000001993273
      0.1005682367D+00  0.1000000000D+01
 Atom C11      Shell   119 D   1     bf  325 -   329         -3.182497348390         -4.308649261053          0.000001993273
      0.1097000000D+01  0.1000000000D+01
 Atom C11      Shell   120 D   1     bf  330 -   334         -3.182497348390         -4.308649261053          0.000001993273
      0.3180000000D+00  0.1000000000D+01
 Atom C11      Shell   121 F   1     bf  335 -   341         -3.182497348390         -4.308649261053          0.000001993273
      0.7610000000D+00  0.1000000000D+01
 Atom C12      Shell   122 S   6     bf  342 -   342          1.047093364182         -2.395915740735          0.000011441903
      0.1357534968D+05  0.6064550360D-03
      0.2035233368D+04  0.4697908888D-02
      0.4632256236D+03  0.2433247765D-01
      0.1312001960D+03  0.9739996831D-01
      0.4285301589D+02  0.3019558425D+00
      0.1558418577D+02  0.6623360914D+00
 Atom C12      Shell   123 S   2     bf  343 -   343          1.047093364182         -2.395915740735          0.000011441903
      0.6206713851D+01  0.6559530854D+00
      0.2576489653D+01  0.3758563329D+00
 Atom C12      Shell   124 S   1     bf  344 -   344          1.047093364182         -2.395915740735          0.000011441903
      0.5769633942D+00  0.1000000000D+01
 Atom C12      Shell   125 S   1     bf  345 -   345          1.047093364182         -2.395915740735          0.000011441903
      0.2297283136D+00  0.1000000000D+01
 Atom C12      Shell   126 S   1     bf  346 -   346          1.047093364182         -2.395915740735          0.000011441903
      0.9516444003D-01  0.1000000000D+01
 Atom C12      Shell   127 P   4     bf  347 -   349          1.047093364182         -2.395915740735          0.000011441903
      0.3469723224D+02  0.1132722000D-01
      0.7958262283D+01  0.7616965920D-01
      0.2378082688D+01  0.3019225220D+00
      0.8143320818D+00  0.7278502735D+00
 Atom C12      Shell   128 P   1     bf  350 -   352          1.047093364182         -2.395915740735          0.000011441903
      0.2888754725D+00  0.1000000000D+01
 Atom C12      Shell   129 P   1     bf  353 -   355          1.047093364182         -2.395915740735          0.000011441903
      0.1005682367D+00  0.1000000000D+01
 Atom C12      Shell   130 D   1     bf  356 -   360          1.047093364182         -2.395915740735          0.000011441903
      0.1097000000D+01  0.1000000000D+01
 Atom C12      Shell   131 D   1     bf  361 -   365          1.047093364182         -2.395915740735          0.000011441903
      0.3180000000D+00  0.1000000000D+01
 Atom C12      Shell   132 F   1     bf  366 -   372          1.047093364182         -2.395915740735          0.000011441903
      0.7610000000D+00  0.1000000000D+01
 Atom C13      Shell   133 S   6     bf  373 -   373          1.575328540323          2.130216449493         -0.000026352619
      0.1357534968D+05  0.6064550360D-03
      0.2035233368D+04  0.4697908888D-02
      0.4632256236D+03  0.2433247765D-01
      0.1312001960D+03  0.9739996831D-01
      0.4285301589D+02  0.3019558425D+00
      0.1558418577D+02  0.6623360914D+00
 Atom C13      Shell   134 S   2     bf  374 -   374          1.575328540323          2.130216449493         -0.000026352619
      0.6206713851D+01  0.6559530854D+00
      0.2576489653D+01  0.3758563329D+00
 Atom C13      Shell   135 S   1     bf  375 -   375          1.575328540323          2.130216449493         -0.000026352619
      0.5769633942D+00  0.1000000000D+01
 Atom C13      Shell   136 S   1     bf  376 -   376          1.575328540323          2.130216449493         -0.000026352619
      0.2297283136D+00  0.1000000000D+01
 Atom C13      Shell   137 S   1     bf  377 -   377          1.575328540323          2.130216449493         -0.000026352619
      0.9516444003D-01  0.1000000000D+01
 Atom C13      Shell   138 P   4     bf  378 -   380          1.575328540323          2.130216449493         -0.000026352619
      0.3469723224D+02  0.1132722000D-01
      0.7958262283D+01  0.7616965920D-01
      0.2378082688D+01  0.3019225220D+00
      0.8143320818D+00  0.7278502735D+00
 Atom C13      Shell   139 P   1     bf  381 -   383          1.575328540323          2.130216449493         -0.000026352619
      0.2888754725D+00  0.1000000000D+01
 Atom C13      Shell   140 P   1     bf  384 -   386          1.575328540323          2.130216449493         -0.000026352619
      0.1005682367D+00  0.1000000000D+01
 Atom C13      Shell   141 D   1     bf  387 -   391          1.575328540323          2.130216449493         -0.000026352619
      0.1097000000D+01  0.1000000000D+01
 Atom C13      Shell   142 D   1     bf  392 -   396          1.575328540323          2.130216449493         -0.000026352619
      0.3180000000D+00  0.1000000000D+01
 Atom C13      Shell   143 F   1     bf  397 -   403          1.575328540323          2.130216449493         -0.000026352619
      0.7610000000D+00  0.1000000000D+01
 Atom C14      Shell   144 S   6     bf  404 -   404          2.677401686768         -0.333058579616         -0.000003675906
      0.1357534968D+05  0.6064550360D-03
      0.2035233368D+04  0.4697908888D-02
      0.4632256236D+03  0.2433247765D-01
      0.1312001960D+03  0.9739996831D-01
      0.4285301589D+02  0.3019558425D+00
      0.1558418577D+02  0.6623360914D+00
 Atom C14      Shell   145 S   2     bf  405 -   405          2.677401686768         -0.333058579616         -0.000003675906
      0.6206713851D+01  0.6559530854D+00
      0.2576489653D+01  0.3758563329D+00
 Atom C14      Shell   146 S   1     bf  406 -   406          2.677401686768         -0.333058579616         -0.000003675906
      0.5769633942D+00  0.1000000000D+01
 Atom C14      Shell   147 S   1     bf  407 -   407          2.677401686768         -0.333058579616         -0.000003675906
      0.2297283136D+00  0.1000000000D+01
 Atom C14      Shell   148 S   1     bf  408 -   408          2.677401686768         -0.333058579616         -0.000003675906
      0.9516444003D-01  0.1000000000D+01
 Atom C14      Shell   149 P   4     bf  409 -   411          2.677401686768         -0.333058579616         -0.000003675906
      0.3469723224D+02  0.1132722000D-01
      0.7958262283D+01  0.7616965920D-01
      0.2378082688D+01  0.3019225220D+00
      0.8143320818D+00  0.7278502735D+00
 Atom C14      Shell   150 P   1     bf  412 -   414          2.677401686768         -0.333058579616         -0.000003675906
      0.2888754725D+00  0.1000000000D+01
 Atom C14      Shell   151 P   1     bf  415 -   417          2.677401686768         -0.333058579616         -0.000003675906
      0.1005682367D+00  0.1000000000D+01
 Atom C14      Shell   152 D   1     bf  418 -   422          2.677401686768         -0.333058579616         -0.000003675906
      0.1097000000D+01  0.1000000000D+01
 Atom C14      Shell   153 D   1     bf  423 -   427          2.677401686768         -0.333058579616         -0.000003675906
      0.3180000000D+00  0.1000000000D+01
 Atom C14      Shell   154 F   1     bf  428 -   434          2.677401686768         -0.333058579616         -0.000003675906
      0.7610000000D+00  0.1000000000D+01
 Atom C15      Shell   155 S   6     bf  435 -   435          3.182497167183          4.308649261053         -0.000043360154
      0.1357534968D+05  0.6064550360D-03
      0.2035233368D+04  0.4697908888D-02
      0.4632256236D+03  0.2433247765D-01
      0.1312001960D+03  0.9739996831D-01
      0.4285301589D+02  0.3019558425D+00
      0.1558418577D+02  0.6623360914D+00
[...]
 559,0.,-0.00000543,0.00003132,0.,-0.00002141,0.00006239,0.,0.00000150,
 0.00001741,0.,-0.00003242,-0.00005529,0.,0.00074328,-0.00026415,0.,-0.
 00007414,0.00014229,0.,-0.00017743,-0.00023397,0.,0.11445912,-0.000576
 99,0.00032380,0.,0.00012112,-0.00004582,0.,-0.00008167,0.00001141,0.,-
 0.00021610,0.00165823,0.,-0.00417931,-0.00179298,0.,0.00002480,-0.0001
 8715,0.,-0.00129366,0.00129273,0.,0.00013959,0.00011570,0.,0.01312513,
 -0.01899936,-0.00000001,0.00126863,-0.00081887,0.,0.10776653,-0.288750
 39,-0.00000015,0.00209194,0.00109986,0.,-0.00010100,0.00020209,0.,-0.0
 0048483,0.00006759,0.,-0.00002529,0.00017548,0.,0.00010772,-0.00006528
 ,0.,-0.00010709,-0.00005043,0.,0.00004868,-0.00010095,0.,-0.00002179,0
 .00005179,0.,-0.00007550,-0.00006622,0.,-0.00001064,-0.00003197,0.,0.0
 0002261,0.00007027,0.,-0.00002230,0.00001721,0.,0.00001676,-0.00001154
 ,0.,0.00001601,0.00000652,0.,0.00029979,0.00092562,0.,0.00000355,-0.00
 001165,0.,-0.00026681,-0.00033742,0.,-0.11626658,0.30484337,0.,0.,-0.0
 0069988,0.,0.,-0.00079414,0.,0.,0.00012007,0.,-0.00000001,0.01052392,0
 .,0.,0.00356158,0.,0.,0.00009170,0.,0.00000001,0.00441506,0.,0.,-0.000
 76632,0.00000001,-0.00000002,0.00271287,0.,0.,0.00005842,0.00000005,-0
 .00000015,-0.03700173,0.,0.,-0.00187791,0.,0.,-0.00003622,0.,0.,-0.000
 14215,0.,0.,0.00003622,0.,0.,0.00005327,0.,0.,-0.00000742,0.,0.,0.0000
 0831,0.,0.,-0.00000591,0.,0.,-0.00002884,0.,0.,-0.00000155,0.,0.,-0.00
 001004,0.,0.,0.00003383,0.,0.,0.00010087,0.,0.,0.00021460,0.,0.,-0.005
 97533,0.,0.,-0.00002033,0.,0.,0.00006148,-0.00000005,0.00000016,0.0250
 6749,-0.00007001,0.00158228,0.,-0.00044269,-0.00019521,0.,-0.00003140,
 0.00008897,0.,0.00007387,0.00026353,0.,-0.00525556,-0.00076794,0.,0.00
 005248,-0.00014724,0.,0.00022575,-0.00046602,0.,-0.00003327,0.00003867
 ,0.,-0.00871513,0.03040998,0.00000001,-0.00098285,-0.00076186,0.,0.000
 85249,0.00222594,0.,-0.09623647,0.09424379,0.00000004,-0.00222719,-0.0
 0312337,0.,0.01295029,-0.01677710,0.,0.00057815,-0.00079263,0.,-0.0001
 5074,0.00125629,0.,0.00019983,-0.00010254,0.,0.00010263,0.00014825,0.,
 0.00015954,0.00013290,0.,-0.00248126,-0.00137961,0.,0.00001559,0.00009
 485,0.,-0.00003740,0.00023573,0.,0.00002440,0.00000404,0.,-0.00005151,
 0.00000512,0.,-0.00003580,-0.00000426,0.,-0.00000915,-0.00001109,0.,0.
 00000102,-0.00000952,0.,0.00006715,0.00008321,0.,-0.00049896,-0.001304
 02,0.,0.10660439,-0.00041083,-0.00028256,0.,0.00015031,-0.00000814,0.,
 -0.00006421,-0.00003011,0.,-0.00011000,0.00022873,0.,0.00040328,0.0015
 1665,0.,0.00005666,-0.00002049,0.,0.00034771,0.00004568,0.,0.00004013,
 0.00006978,0.,0.00025530,-0.00231803,0.,-0.00052870,0.00038361,0.,-0.0
 0233085,0.00109859,0.,0.09553879,-0.30246241,-0.00000014,-0.00426706,-
 0.00175952,0.,0.01133170,-0.01900565,-0.00000001,0.00108721,-0.0007263
 6,0.,0.00173295,-0.00023202,0.,-0.00002219,-0.00006414,0.,-0.00012928,
 -0.00012671,0.,0.00011018,0.00006483,0.,0.00083552,-0.00046644,0.,0.00
 013158,0.00002986,0.,0.00000554,0.00076551,0.,-0.00001284,0.00000813,0
 .,0.00001365,-0.00000607,0.,0.00001423,0.00000786,0.,0.00005565,-0.000
 00154,0.,0.00000603,0.00000200,0.,0.00008321,-0.00011262,0.,0.00040158
 ,0.00034965,0.,-0.10522789,0.32175190,0.,0.,0.00001176,0.,0.,0.0001665
 8,0.,0.,0.00000446,0.,0.,-0.00003289,0.,0.,0.00642357,0.,0.,0.00002398
 ,0.,0.,-0.00007081,0.,0.,-0.00000884,0.,0.,0.00417539,0.,0.,-0.0008321
 6,0.,0.,-0.00425311,0.00000004,-0.00000014,-0.03670391,0.,0.,0.0066994
 4,0.00000001,0.,0.00388753,0.,0.,0.00012364,0.,0.,-0.00355346,0.,0.,-0
 .00023378,0.,0.,-0.00002815,0.,0.,0.00017973,0.,0.,-0.00048017,0.,0.,-
 0.00006107,0.,0.,-0.00016706,0.,0.,0.00001501,0.,0.,-0.00004304,0.,0.,
 0.00001612,0.,0.,0.00028974,0.,0.,-0.00000290,0.,0.,-0.00096479,0.,0.,
 0.00025400,-0.00000004,0.00000015,0.02337252,-0.00004315,0.00001598,0.
 ,0.00000851,-0.00006782,0.,-0.00000543,0.00003132,0.,0.00002242,-0.000
 00039,0.,0.00005549,0.00041394,0.,0.00000987,0.00000750,0.,-0.00000438
 ,-0.00002591,0.,0.00001285,0.00000559,0.,0.00021265,-0.00012303,0.,0.0
 0135550,-0.00168437,0.,-0.00003214,0.00002237,0.,0.00051044,-0.0008143
 4,0.,0.00981845,-0.01676251,0.,-0.00238619,-0.00255239,0.,-0.10892357,
 0.10683775,0.,-0.00055201,-0.00019455,0.,-0.00895487,0.03122134,0.,-0.
 00534622,-0.00158388,0.,0.00020335,0.00145823,0.,0.00029800,-0.0000219
 0,0.,-0.00049880,0.00009519,0.,-0.00014670,-0.00013986,0.,-0.00001972,
 0.00002773,0.,0.00000045,-0.00000337,0.,0.00000476,0.00000359,0.,0.000
 00071,0.00000496,0.,0.00000550,0.00000369,0.,-0.00049896,0.00040158,0.
 ,-0.00000530,0.00002146,0.,-0.00017743,-0.00023397,0.,0.11445912,0.000
 10772,-0.00006528,0.,-0.00007550,-0.00006622,0.,0.00002261,0.00007027,
 0.,0.00004868,-0.00010095,0.,-0.00048483,0.00006759,0.,-0.00002179,0.0
 0005180,0.,-0.00010709,-0.00005043,0.,-0.00001064,-0.00003197,0.,-0.00
 010100,0.00020209,0.,0.00209194,0.00109986,0.,-0.00002529,0.00017548,0
 .,0.00126863,-0.00081887,0.,0.01312513,-0.01899936,0.,-0.00417931,-0.0
 0179298,0.,0.10776653,-0.28875039,0.,-0.00057699,0.00032380,0.,-0.0012
 9366,0.00129273,0.,-0.00021610,0.00165823,0.,0.00002480,-0.00018715,0.
 ,0.00012112,-0.00004582,0.,0.00013959,0.00011570,0.,-0.00008167,0.0000
 1141,0.,-0.00001747,0.00002991,0.,-0.00001042,0.00000453,0.,0.00000111
 ,-0.00000059,0.,-0.00001204,0.00000486,0.,-0.00000191,0.00000528,0.,-0
 .00130402,0.00034965,0.,0.00002146,0.00001475,0.,-0.00026681,-0.000337
 42,0.,-0.11626658,0.30484337,0.,0.,0.00005327,0.,0.,-0.00002884,0.,0.,
 -0.00001004,0.,0.,0.00000831,0.,0.,-0.00014215,0.,0.,-0.00000591,0.,0.
 ,-0.00000742,0.,0.,-0.00000155,0.,0.,-0.00003622,0.,0.,-0.00187791,0.,
 0.,0.00003622,0.,0.,0.00005842,0.,0.,0.00271287,0.,0.,0.00356158,0.,0.
 ,-0.03700173,0.,0.,-0.00069988,0.,0.,0.00441505,0.,0.,0.01052392,0.,0.
 ,0.00009170,0.,0.,-0.00079414,0.,0.,-0.00076632,0.,0.,0.00012007,0.,0.
 ,0.00004455,0.,0.,0.00000679,0.,0.,0.00000239,0.,0.,0.00000034,0.,0.,0
 .00000254,0.,0.,0.00025400,0.,0.,-0.00000248,0.,0.,0.00006148,0.,0.,0.
 02506749,0.00007207,-0.00016196,0.,-0.00004340,0.00001730,0.,0.0000192
 4,0.00000538,0.,-0.00003904,-0.00002844,0.,-0.00052775,0.00002401,0.,-
 0.00002174,0.00000943,0.,-0.00005418,0.00002053,0.,-0.00002174,-0.0000
 2069,0.,-0.00013964,0.00013349,0.,-0.00006748,-0.00144521,0.,0.0000480
 2,0.00004971,0.,0.00031116,-0.00001117,0.,-0.00485950,0.00273207,0.,-0
 .00041592,0.00028490,0.,-0.01394005,-0.02843122,0.,-0.00116428,0.00249
 470,0.,-0.15297884,-0.13168593,-0.00000002,0.00963163,0.01164402,0.,0.
 00130433,0.00159184,0.,0.00039617,0.00058233,0.,0.00004631,-0.00041812
 ,0.,0.00022956,0.00012491,0.,0.00001228,-0.00001270,0.,-0.00000867,0.0
 0000649,0.,-0.00000874,-0.00000434,0.,-0.00000806,-0.00000430,0.,-0.00
 000662,-0.00000040,0.,-0.00000915,0.00005565,0.,0.00000071,-0.00001204
 ,0.,-0.00002924,-0.00005320,0.,0.00074328,0.00029979,0.,0.16192630,-0.
 00000852,0.00002610,0.,0.00000096,-0.00001665,0.,-0.00001594,-0.000013
 03,0.,-0.00002720,0.00002848,0.,0.00004672,0.00012937,0.,0.00001932,-0
 .00000107,0.,0.00002041,-0.00000602,0.,-0.00001302,0.00001810,0.,0.000
 12059,-0.00003985,0.,-0.00011484,0.00008242,0.,-0.00002920,-0.00000583
 ,0.,-0.00020830,-0.00001512,0.,0.00147711,0.00108687,0.,0.00074265,0.0
 0019574,0.,0.00405908,0.00625676,0.,0.00403642,-0.00305836,0.,-0.13263
 170,-0.24481406,-0.00000002,-0.01832979,-0.01867196,0.,-0.00204963,0.0
 0112892,0.,-0.00147598,-0.00067262,0.,0.00035632,0.00002114,0.,0.00018
 315,0.00018586,0.,0.00000271,0.00000023,0.,-0.00000215,0.00000214,0.,-
 0.00000119,-0.00000210,0.,-0.00000430,-0.00000234,0.,-0.00000167,0.000
 00045,0.,-0.00001109,-0.00000154,0.,0.00000496,0.00000486,0.,0.0000315
 7,0.00002270,0.,-0.00026415,0.00092562,0.,0.14239618,0.25745454,0.,0.,
 -0.00004385,0.,0.,-0.00001569,0.,0.,0.00000057,0.,0.,0.00006138,0.,0.,
 -0.00091263,0.,0.,0.00000219,0.,0.,-0.00002303,0.,0.,-0.00000712,0.,0.
 ,0.00011549,0.,0.,0.00011039,0.,0.,0.00007337,0.,0.,-0.00063934,0.,0.,
 0.01063220,0.,0.,-0.00070772,0.,0.,0.00438233,0.,0.,0.00349749,-0.0000
 0002,-0.00000002,-0.03724408,0.,0.,0.00269348,0.,0.,-0.00181817,0.,0.,
 0.00002606,0.,0.,-0.00015092,0.,0.,-0.00000911,0.,0.,-0.00000012,0.,0.
 ,0.00000166,0.,0.,0.00000936,0.,0.,-0.00000804,0.,0.,0.00000143,0.,0.,
 0.00028974,0.,0.,0.00000034,0.,0.,0.00004179,0.,0.,-0.00597533,0.00000
 002,0.00000003,0.02525457,0.00002974,0.00001337,0.,-0.00001738,-0.0000
 0795,0.,-0.00000008,-0.00000173,0.,-0.00001006,-0.00000434,0.,-0.00002
 491,-0.00001790,0.,0.00000446,0.00000915,0.,-0.00001007,-0.00000953,0.
 ,-0.00001366,0.00000183,0.,-0.00001740,-0.00011835,0.,0.00003804,0.000
 12554,0.,-0.00004530,0.00003488,0.,-0.00046302,0.00029166,0.,0.0001020
 8,-0.00021364,0.,-0.00026110,-0.00163876,0.,0.00017237,0.00045489,0.,-
 0.00505707,0.00193338,0.,0.00109400,-0.00212626,0.,-0.01266591,-0.0275
 4418,0.,-0.14397402,-0.12756170,-0.00000002,-0.00079205,0.00100583,0.,
 0.01185605,0.01346764,0.,-0.00035323,0.00310088,0.,0.00000228,0.000000
 48,0.,-0.00000333,0.00000246,0.,-0.00000117,-0.00000172,0.,-0.00000874
 ,-0.00000119,0.,-0.00000177,0.00000048,0.,-0.00003580,0.00001423,0.,0.
 00000476,0.00000111,0.,0.00002571,-0.00001121,0.,-0.00003242,0.0000160
 1,0.,-0.00029240,0.00135917,0.,0.14951843,-0.00000233,-0.00000009,0.,-
 0.00000642,-0.00001056,0.,-0.00001087,-0.00000527,0.,-0.00001525,0.000
 01167,0.,0.00002275,0.00007896,0.,0.00001078,0.00000571,0.,0.00000876,
 -0.00002028,0.,-0.00001050,0.00001076,0.,0.00009494,-0.00001199,0.,-0.
 00010769,-0.00004483,0.,-0.00002266,0.00000906,0.,-0.00008931,-0.00005
 661,0.,0.00016447,0.00024713,0.,0.00046959,0.00000889,0.,-0.00041069,0
 .00008819,0.,0.00087364,0.00130138,0.,0.00185791,0.00100696,0.,0.00237
 789,0.00345984,0.,-0.12781364,-0.25439161,-0.00000003,0.00080923,0.000
 15902,0.,-0.01839480,-0.01833985,0.,0.00392403,-0.00357480,0.,0.000004
 77,-0.00000231,0.,-0.00000305,0.00000338,0.,-0.00000172,-0.00000335,0.
 ,-0.00000434,-0.00000210,0.,-0.00000380,0.00000049,0.,-0.00000426,0.00
 000786,0.,0.00000359,-0.00000059,0.,0.00001256,0.00001093,0.,-0.000055
 29,0.00000652,0.,-0.00033363,0.00015749,0.,0.13727442,0.27011184,0.,0.
 ,-0.00000264,0.,0.,-0.00000099,0.,0.,-0.00000176,0.,0.,-0.00000215,0.,
 0.,-0.00000687,0.,0.,0.00000010,0.,0.,-0.00000157,0.,0.,-0.00000171,0.
 ,0.,-0.00000566,0.,0.,0.00000431,0.,0.,-0.00004361,0.,0.,0.00013528,0.
 ,0.,0.00001599,0.,0.,0.00006069,0.,0.,-0.00006795,0.,0.,0.00599342,0.,
 0.,-0.00355295,0.,0.,0.00305863,-0.00000002,-0.00000003,-0.03690089,0.
 ,0.,-0.00089923,0.,0.,0.00338672,0.,0.,0.00836660,0.,0.,0.00000167,0.,
 0.,0.00000162,0.,0.,0.00000109,0.,0.,0.00000936,0.,0.,0.00000090,0.,0.
 ,0.00001611,0.,0.,0.00000239,0.,0.,0.00000597,0.,0.,0.00021460,0.,0.,0
 .00022680,0.00000003,0.00000003,0.02554420,0.00001149,-0.00002230,0.,0
 .00001094,0.00001655,0.,0.00001845,-0.00000270,0.,0.00001789,-0.000011
 40,0.,-0.00003857,-0.00006927,0.,-0.00001639,-0.00000931,0.,-0.0000189
 6,0.00004395,0.,0.00000783,-0.00001677,0.,-0.00010764,-0.00013607,0.,0
 .00012271,-0.00012841,0.,0.00003685,0.00001812,0.,-0.00222374,0.001657
 82,0.,0.00009529,-0.00010904,0.,-0.00068125,-0.00118787,0.,0.00019618,
 0.00002438,0.,0.01271535,0.01087492,0.,0.00050872,0.00060280,0.,-0.000
 90665,0.00305227,0.,-0.00066922,0.00097424,0.,-0.13827348,-0.12622363,
 0.,-0.00557932,0.00154279,0.,-0.01289288,-0.02923419,0.,-0.00000799,0.
 00000394,0.,0.00000456,-0.00000411,0.,0.00000228,0.00000477,0.,0.00001
 228,0.00000271,0.,0.00000618,-0.00000160,0.,0.00002440,-0.00001284,0.,
 -0.00001972,-0.00001747,0.,-0.00448459,0.00077690,0.,-0.00002141,-0.00
 002230,0.,-0.00009968,0.00022360,0.,0.00005050,-0.00008452,0.,0.152113
 69,-0.00001881,0.00009853,0.,-0.00002932,-0.00002277,0.,-0.00001248,0.
 00001970,0.,0.00001410,0.00000302,0.,-0.00014339,0.00004294,0.,0.00000
 554,0.00000727,0.,0.00000998,-0.00003546,0.,0.00000542,0.00000717,0.,0
 .00017723,0.00078638,0.,-0.00012159,0.00012660,0.,0.00001630,0.0000086
 8,0.,-0.00045753,-0.00061093,0.,0.00008465,-0.00014865,0.,-0.00161823,
 0.00028968,0.,-0.00003827,-0.00007852,0.,-0.01720202,-0.01861211,0.,-0
 .00128177,-0.00062338,0.,0.00395669,-0.00314301,0.,0.00093983,0.000061
 10,0.,-0.12736772,-0.26427658,0.,0.00076835,0.00162271,0.,0.00327848,0
 .00480387,0.,0.00000394,0.00000189,0.,-0.00000556,0.00000271,0.,0.0000
 0048,-0.00000231,0.,-0.00001270,0.00000023,0.,-0.00000410,0.00000145,0
 .,0.00000404,0.00000813,0.,0.00002773,0.00002991,0.,0.00045203,0.00154
 926,0.,0.00006239,0.00001721,0.,0.00019906,-0.00041531,0.,-0.00011621,
 -0.00003499,0.,0.13846400,0.27750914,0.,0.,0.00006041,0.,0.,0.00001316
 ,0.,0.,-0.00001617,0.,0.,-0.00000758,0.,0.,0.00000651,0.,0.,-0.0000010
 4,0.,0.,-0.00000500,0.,0.,0.00000017,0.,0.,-0.00022940,0.,0.,0.0000937
 4,0.,0.,-0.00005054,0.,0.,-0.00043436,0.,0.,-0.00001680,0.,0.,-0.00300
 651,0.,0.,-0.00019276,0.,0.,0.00289413,0.,0.,0.00016268,0.,0.,0.006334
 98,0.,0.,-0.00097060,0.,0.,-0.03674095,0.,0.,0.00864752,0.,0.,0.003413
 02,0.,0.,0.00000070,0.,0.,0.00000102,0.,0.,0.00000167,0.,0.,-0.0000001
 2,0.,0.,0.00000286,0.,0.,0.00001501,0.,0.,0.00004455,0.,0.,0.00163568,
 0.,0.,0.00003383,0.,0.,0.00002021,0.,0.,-0.00110198,0.00000002,0.,0.02
 397613,0.00002040,-0.00000695,0.,-0.00001468,0.00000098,0.,-0.00000251
 ,0.00000325,0.,-0.00000087,-0.00001351,0.,0.00000185,-0.00000555,0.,0.
 00000064,0.00001090,0.,-0.00001549,-0.00002384,0.,-0.00000676,0.000000
 34,0.,0.00000372,0.00001032,0.,-0.00000498,-0.00000235,0.,-0.00000588,
 0.00003089,0.,-0.00003876,-0.00004346,0.,0.00001430,0.00001978,0.,-0.0
 0001151,0.00001980,0.,-0.00003716,0.00032798,0.,0.00068089,-0.00012863
 ,0.,-0.00060838,-0.00039512,0.,0.00117161,0.00251529,0.,-0.00977888,-0
 .00212775,0.,0.00017500,-0.00344229,0.,-0.34144746,0.01808728,-0.00000
 006,-0.01249518,0.00447825,0.,0.00000618,-0.00000410,0.,-0.00000268,0.
 00000371,0.,-0.00000177,-0.00000380,0.,-0.00000662,-0.00000167,0.,-0.0
 0000498,0.00000047,0.,0.00000102,0.00000603,0.,0.00000550,-0.00000191,
 0.,0.00003048,0.00004073,0.,-0.00007414,0.00000355,0.,0.00001133,0.000
 03449,0.,0.00079542,0.00034516,0.,-0.00073613,0.00019442,0.,0.36163861
 ,0.00002743,0.00000635,0.,-0.00001114,0.00000748,0.,0.00001153,0.00000
 761,0.,0.00001250,-0.00002438,0.,-0.00006032,-0.00010073,0.,-0.0000113
 5,0.00000625,0.,-0.00002140,0.00002148,0.,0.00000100,-0.00001268,0.,-0
 .00008029,0.00010356,0.,0.00012480,0.00008389,0.,0.00002885,0.00000584
 ,0.,0.00010723,-0.00000014,0.,-0.00024312,-0.00021321,0.,-0.00026947,0
 .00013443,0.,0.00032783,-0.00036531,0.,0.00024172,-0.00140981,0.,0.001
 06225,0.00068296,0.,0.00191923,-0.00498859,0.,0.02973798,0.00342081,0.
 ,-0.00282041,-0.00419033,0.,0.01763285,-0.06193652,0.,-0.02709202,0.00
 692063,0.,-0.00000160,0.00000145,0.,0.00000030,-0.00000032,0.,0.000000
 48,0.00000049,0.,-0.00000040,0.00000045,0.,0.00000047,0.,0.,-0.0000095
 2,0.00000200,0.,0.00000369,0.00000528,0.,0.00003942,0.00006834,0.,0.00
 014229,-0.00001165,0.,-0.00002261,-0.00003512,0.,-0.00042429,0.0008360
 9,0.,-0.00131131,0.00006906,0.,-0.01960679,0.06006647,0.,0.,0.00002551
 ,0.,0.,-0.00000055,0.,0.,-0.00000426,0.,0.,0.00000011,0.,0.,-0.0000131
 9,0.,0.,-0.00000217,0.,0.,-0.00000507,0.,0.,-0.00000075,0.,0.,-0.00005
 197,0.,0.,0.00003947,0.,0.,0.00000001,0.,0.,0.00002869,0.,0.,0.0000792
 5,0.,0.,-0.00093100,0.,0.,-0.00039036,0.,0.,-0.00102763,0.,0.,0.000182
 63,0.,0.,0.00884254,0.,0.,0.00289275,0.,0.,0.00681165,-0.00000006,0.,-
 0.03696379,0.,0.,0.00222242,0.,0.,0.00000286,0.,0.,0.00000071,0.,0.,0.
 00000090,0.,0.,0.00000143,0.,0.,0.00000137,0.,0.,-0.00000290,0.,0.,0.0
 0000254,0.,0.,0.00008997,0.,0.,-0.00002033,0.,0.,0.00007385,0.,0.,-0.0
 0454811,0.,0.,-0.00001445,0.00000006,0.,0.02588800,-0.00000368,-0.0000
 0465,0.,-0.00000353,-0.00000738,0.,-0.00001189,-0.00001122,0.,-0.00002
 478,0.00002290,0.,0.00003817,0.00009209,0.,0.00001545,-0.00000082,0.,0
 .00001162,-0.00003543,0.,-0.00001241,0.00001366,0.,0.00011088,-0.00008
 011,0.,-0.00011647,0.00011906,0.,-0.00004869,0.00003312,0.,-0.00009497
 ,-0.00001146,0.,-0.00037437,0.00000373,0.,0.00034806,0.00154755,0.,-0.
 00020355,-0.00015662,0.,-0.00564340,-0.00084556,0.,0.00032298,-0.00011
 143,0.,-0.00111523,-0.00058236,0.,-0.00133061,-0.00350343,0.,-0.009154
 85,0.03007588,0.,0.01199656,-0.01697891,0.,-0.11484896,0.11078910,-0.0
 0000002,0.00000456,-0.00000556,0.,-0.00000223,0.00000217,0.,-0.0000033
 3,-0.00000305,0.,-0.00000867,-0.00000215,0.,-0.00000268,0.00000030,0.,
 -0.00005151,0.00001365,0.,0.00000045,-0.00001042,0.,-0.00001314,-0.000
 01659,0.,0.00000150,0.00001676,0.,-0.00001626,0.00007325,0.,0.00038702
 ,-0.00087972,0.,0.00082204,-0.00023495,0.,0.00073784,0.00056422,0.,0.1
 1828809,-0.00003763,0.00000890,0.,0.00001827,-0.00000367,0.,-0.0000040
 4,-0.00000038,0.,0.00000367,0.00001850,0.,0.00003850,0.00005118,0.,0.0
 0000301,-0.00001247,0.,0.00002468,0.00000213,0.,0.00001189,0.00000518,
 0.,0.00004169,-0.00002792,0.,-0.00005681,-0.00001657,0.,-0.00000614,-0
 .00003637,0.,-0.00000643,-0.00006593,0.,0.00014451,0.00010467,0.,-0.00
 003372,-0.00001512,0.,-0.00007678,-0.00002593,0.,-0.00036712,0.0017669
 2,0.,0.00014789,-0.00005079,0.,-0.00085948,0.00043419,0.,-0.00413839,-
 0.00284684,0.,-0.00176971,0.00195301,0.,0.01461459,-0.01782520,0.,0.11
 151419,-0.28768968,0.00000003,-0.00000410,0.00000271,0.,0.00000217,-0.
 00000322,0.,0.00000246,0.00000338,0.,0.00000649,0.00000214,0.,0.000003
 71,-0.00000032,0.,0.00000512,-0.00000607,0.,-0.00000337,0.00000453,0.,
 -0.00001202,-0.00001376,0.,0.00001741,-0.00001154,0.,-0.00002582,0.000
 04319,0.,0.00069153,-0.00102295,0.,0.00032134,0.00093739,0.,-0.0003259
 1,0.00083788,0.,-0.11988565,0.30349881,0.,0.,-0.00000054,0.,0.,0.00000
 210,0.,0.,-0.00000161,0.,0.,0.00000292,0.,0.,0.00004254,0.,0.,-0.00000
 081,0.,0.,-0.00001035,0.,0.,-0.00000020,0.,0.,-0.00006654,0.,0.,-0.000
 01771,0.,0.,0.00000685,0.,0.,0.00023487,0.,0.,-0.00038068,0.,0.,0.0001
 2952,0.,0.,0.00010054,0.,0.,0.00875118,0.,0.,-0.00097288,0.,0.,-0.0010
 8616,0.,0.,0.00676652,0.,0.,0.00255903,0.,0.,0.00231274,-0.00000002,0.
 00000004,-0.03648238,0.,0.,0.00000102,0.,0.,0.00000019,0.,0.,0.0000016
 2,0.,0.,0.00000166,0.,0.,0.00000071,0.,0.,-0.00004304,0.,0.,0.00000679
 ,0.,0.,-0.00004221,0.,0.,0.00010087,0.,0.,0.00004045,0.,0.,0.00009165,
 0.,0.,-0.00456971,0.,0.,-0.00321011,0.00000002,-0.00000004,0.02573118\
 \0.00000003,-0.00000293,0.,0.00000011,0.00000150,0.,0.00000014,-0.0000
 0090,0.,0.00000216,0.00000042,0.,-0.00000017,-0.00000118,0.,-0.0000023
 8,-0.00000085,0.,-0.00000083,-0.00000064,0.,-0.00000015,-0.00000107,0.
 ,-0.00000074,0.00000087,0.,-0.00000238,0.00000208,0.,0.00000081,0.0000
 0018,0.,0.00000239,-0.00000208,0.,0.00000074,-0.00000087,0.,0.00000017
 ,0.00000118,0.,-0.00000081,-0.00000018,0.,-0.00000003,0.00000293,0.,0.
 00000083,0.00000064,0.,-0.00000216,-0.00000042,0.,0.00000239,0.0000008
 5,0.,-0.00000011,-0.00000150,0.,0.00000015,0.00000107,0.,-0.00000014,0
 .00000090,0.,-0.00000013,-0.00000048,0.,-0.00000047,-0.00000087,0.,0.0
 0000057,-0.00000031,0.,0.00000038,-0.00000036,0.,-0.00000012,-0.000000
 58,0.,-0.00000026,-0.00000060,0.,0.00000042,-0.00000016,0.,0.00000026,
 0.00000060,0.,-0.00000042,0.00000016,0.,-0.00000038,0.00000036,0.,-0.0
 0000057,0.00000031,0.,0.00000013,0.00000048,0.,0.00000012,0.00000058,0
 .,0.00000047,0.00000087,0.\\\@


 FROM WHENCE IT HAPPENS, THAT THEY WHICH TRUST TO BOOKS, DO AS THEY THAT CAST UP MANY LITTLE SUMMS INTO GREATER,
 WITHOUT CONSIDERING WETHER THOSE LITTLE SUMMES WERE RIGHTLY CAST UP OR NOT...
 AND AT LAST FINDING THE ERROUR VISIBLE, AND NOT MISTRUSTING THEIR FIRST GROUNDS,
 KNOW NOT WHICH WAY TO CLEERE THEMSELVES...
 BUT SPEND TIME IN FLUTTERING OVER THEIR BOOKES....
 AS BIRDS THAT ENTERING BY THE CHIMNEY, AND FINDING THEMSELVES INCLOSED IN A CHAMBER,
 FLUTTER AT THE FALSE LIGHT OF A GLASSE WINDOW,
 FOR WANT OF WIT TO CONSIDER WHICH WAY THEY CAME IN....
           LEVIATHAN
 Job cpu time:       1 days 19 hours 47 minutes 33.4 seconds.
 File lengths (MBytes):  RWF=   1723 Int=      0 D2E=      0 Chk=     43 Scr=      1
 Normal termination of Gaussian 09 at Fri Jul  9 23:41:19 2021.
