 Entering Gaussian System, Link 0=g09
 Initial command:
 /home/minenky/programs//g09/l1.exe "/local/scratch/minenky/m1_00_215-58-7-C22H14_wB97XD/Gau-46877.inp" -scrdir="/local/scratch/minenky/m1_00_215-58-7-C22H14_wB97XD/"
 Entering Link 1 = /home/minenky/programs//g09/l1.exe PID=     46880.
  
 Copyright (c) 1988,1990,1992,1993,1995,1998,2003,2009,2013,
            Gaussian, Inc.  All Rights Reserved.
  
 This is part of the Gaussian(R) 09 program.  It is based on
 the Gaussian(R) 03 system (copyright 2003, Gaussian, Inc.),
 the Gaussian(R) 98 system (copyright 1998, Gaussian, Inc.),
 the Gaussian(R) 94 system (copyright 1995, Gaussian, Inc.),
 the Gaussian 92(TM) system (copyright 1992, Gaussian, Inc.),
 the Gaussian 90(TM) system (copyright 1990, Gaussian, Inc.),
 the Gaussian 88(TM) system (copyright 1988, Gaussian, Inc.),
 the Gaussian 86(TM) system (copyright 1986, Carnegie Mellon
 University), and the Gaussian 82(TM) system (copyright 1983,
 Carnegie Mellon University). Gaussian is a federally registered
 trademark of Gaussian, Inc.
  
 This software contains proprietary and confidential information,
 including trade secrets, belonging to Gaussian, Inc.
  
 This software is provided under written license and may be
 used, copied, transmitted, or stored only in accord with that
 written license.
  
 The following legend is applicable only to US Government
 contracts under FAR:
  
                    RESTRICTED RIGHTS LEGEND
  
 Use, reproduction and disclosure by the US Government is
 subject to restrictions as set forth in subparagraphs (a)
 and (c) of the Commercial Computer Software - Restricted
 Rights clause in FAR 52.227-19.
  
 Gaussian, Inc.
 340 Quinnipiac St., Bldg. 40, Wallingford CT 06492
  
  
 ---------------------------------------------------------------
 Warning -- This program may not be used in any manner that
 competes with the business of Gaussian, Inc. or will provide
 assistance to any competitor of Gaussian, Inc.  The licensee
 of this program is prohibited from giving any competitor of
 Gaussian, Inc. access to this program.  By using this program,
 the user acknowledges that Gaussian, Inc. is engaged in the
 business of creating and licensing software in the field of
 computational chemistry and represents and warrants to the
 licensee that it is not a competitor of Gaussian, Inc. and that
 it will not use this program in any manner prohibited above.
 ---------------------------------------------------------------
  

 Cite this work as:
 Gaussian 09, Revision D.01,
 M. J. Frisch, G. W. Trucks, H. B. Schlegel, G. E. Scuseria, 
 M. A. Robb, J. R. Cheeseman, G. Scalmani, V. Barone, B. Mennucci, 
 G. A. Petersson, H. Nakatsuji, M. Caricato, X. Li, H. P. Hratchian, 
 A. F. Izmaylov, J. Bloino, G. Zheng, J. L. Sonnenberg, M. Hada, 
 M. Ehara, K. Toyota, R. Fukuda, J. Hasegawa, M. Ishida, T. Nakajima, 
 Y. Honda, O. Kitao, H. Nakai, T. Vreven, J. A. Montgomery, Jr., 
 J. E. Peralta, F. Ogliaro, M. Bearpark, J. J. Heyd, E. Brothers, 
 K. N. Kudin, V. N. Staroverov, T. Keith, R. Kobayashi, J. Normand, 
 K. Raghavachari, A. Rendell, J. C. Burant, S. S. Iyengar, J. Tomasi, 
 M. Cossi, N. Rega, J. M. Millam, M. Klene, J. E. Knox, J. B. Cross, 
 V. Bakken, C. Adamo, J. Jaramillo, R. Gomperts, R. E. Stratmann, 
 O. Yazyev, A. J. Austin, R. Cammi, C. Pomelli, J. W. Ochterski, 
 R. L. Martin, K. Morokuma, V. G. Zakrzewski, G. A. Voth, 
 P. Salvador, J. J. Dannenberg, S. Dapprich, A. D. Daniels, 
 O. Farkas, J. B. Foresman, J. V. Ortiz, J. Cioslowski, 
 and D. J. Fox, Gaussian, Inc., Wallingford CT, 2013.
 
 ******************************************
 Gaussian 09:  AM64L-G09RevD.01 24-Apr-2013
                 9-Jul-2021 
 ******************************************
 %Mem=32000MB
 %NProcShared=16
 Will use up to   16 processors via shared memory.
 %Chk=m1_00_215-58-7-C22H14_wB97XD
 ----------------------------------------------------------------------
 #P wB97XD/def2tzvp opt=(tight) freq integral(Grid=ultrafine) # SCF(Max
 Cycle=380) 5d 7f GFPrint
 ----------------------------------------------------------------------
 1/7=10,14=-1,18=20,19=15,26=4,38=1/1,3;
 2/9=110,12=2,17=6,18=5,40=1/2;
 3/5=44,7=101,8=11,11=2,16=1,24=100,25=1,30=1,71=1,74=-58,75=-5/1,2,3;
 4//1;
 5/5=2,7=380,38=5/2;
 6/7=2,8=2,9=2,10=2,28=1/1;
 7//1,2,3,16;
 1/7=10,14=-1,18=20,19=15,26=4/3(2);
 2/9=110/2;
 99//99;
 2/9=110/2;
 3/5=44,7=101,8=11,11=2,16=1,25=1,30=1,71=1,74=-58,75=-5/1,2,3;
 4/5=5,16=3,69=1/1;
 5/5=2,7=380,38=5/2;
 7//1,2,3,16;
 1/7=10,14=-1,18=20,19=15,26=4/3(-5);
 2/9=110/2;
 6/7=2,8=2,9=2,10=2,19=2,28=1/1;
 99/9=1/99;
 Leave Link    1 at Fri Jul  9 19:19:35 2021, MaxMem=  4194304000 cpu:         1.2
 (Enter /home/minenky/programs//g09/l101.exe)
 ---------------------------------------
 The PBEPBE optimization and frequencies
 ---------------------------------------
 Symbolic Z-matrix:
 Charge =  0 Multiplicity = 1
 C                    -0.24717   0.71659  0. 
 C                    -0.24717  -0.71659  0. 
 C                     1.02528  -1.44226  0. 
 C                    -1.46281  -1.38175  0. 
 C                     1.02528   1.44226  0. 
 C                    -1.46281   1.38175  0. 
 C                     2.24652  -0.73239   0. 
 C                     1.06599  -2.8475   -0.00001 
 C                    -2.69374  -0.71298   0. 
 C                     2.24652   0.73239   0. 
 C                     1.06599   2.8475   -0.00001 
 C                    -2.69374   0.71298   0. 
 C                     3.44744  -1.46368   0.00001 
 C                     2.25592  -3.54198  -0.00001 
 C                    -3.93568  -1.39953   0. 
 C                     3.44744   1.46368   0.00001 
 C                     2.25592   3.54198  -0.00001 
 C                    -3.93568   1.39953   0. 
 C                     3.46146  -2.84154   0. 
 C                    -5.11519  -0.70806   0. 
 C                     3.46146   2.84154   0.00001 
 C                    -5.11519   0.70806   0. 
 H                    -1.49268  -2.46122   0. 
 H                    -1.49268   2.46122   0. 
 H                     0.14645  -3.4121   -0.00002 
 H                     0.14645   3.4121   -0.00002 
 H                     4.39342  -0.945     0.00001 
 H                     2.25032  -4.62413  -0.00001 
 H                    -3.93265  -2.48285   0. 
 H                     4.39342   0.945     0.00002 
 H                     2.25032   4.62413  -0.00001 
 H                    -3.93265   2.48285   0. 
 H                     4.40435  -3.37259   0.00001 
 H                    -6.05737  -1.24069   0.00001 
 H                     4.40435   3.37259   0.00001 
 H                    -6.05737   1.24069   0.00001 
 
 NAtoms=     36 NQM=       36 NQMF=       0 NMMI=      0 NMMIF=      0
                NMic=       0 NMicF=      0.
                    Isotopes and Nuclear Properties:
 (Nuclear quadrupole moments (NQMom) in fm**2, nuclear magnetic moments (NMagM)
  in nuclear magnetons)

  Atom         1           2           3           4           5           6           7           8           9          10
 IAtWgt=          12          12          12          12          12          12          12          12          12          12
 AtmWgt=  12.0000000  12.0000000  12.0000000  12.0000000  12.0000000  12.0000000  12.0000000  12.0000000  12.0000000  12.0000000
 NucSpn=           0           0           0           0           0           0           0           0           0           0
 AtZEff=   0.0000000   0.0000000   0.0000000   0.0000000   0.0000000   0.0000000   0.0000000   0.0000000   0.0000000   0.0000000
 NQMom=    0.0000000   0.0000000   0.0000000   0.0000000   0.0000000   0.0000000   0.0000000   0.0000000   0.0000000   0.0000000
 NMagM=    0.0000000   0.0000000   0.0000000   0.0000000   0.0000000   0.0000000   0.0000000   0.0000000   0.0000000   0.0000000
 AtZNuc=   6.0000000   6.0000000   6.0000000   6.0000000   6.0000000   6.0000000   6.0000000   6.0000000   6.0000000   6.0000000

  Atom        11          12          13          14          15          16          17          18          19          20
 IAtWgt=          12          12          12          12          12          12          12          12          12          12
 AtmWgt=  12.0000000  12.0000000  12.0000000  12.0000000  12.0000000  12.0000000  12.0000000  12.0000000  12.0000000  12.0000000
 NucSpn=           0           0           0           0           0           0           0           0           0           0
 AtZEff=   0.0000000   0.0000000   0.0000000   0.0000000   0.0000000   0.0000000   0.0000000   0.0000000   0.0000000   0.0000000
 NQMom=    0.0000000   0.0000000   0.0000000   0.0000000   0.0000000   0.0000000   0.0000000   0.0000000   0.0000000   0.0000000
 NMagM=    0.0000000   0.0000000   0.0000000   0.0000000   0.0000000   0.0000000   0.0000000   0.0000000   0.0000000   0.0000000
 AtZNuc=   6.0000000   6.0000000   6.0000000   6.0000000   6.0000000   6.0000000   6.0000000   6.0000000   6.0000000   6.0000000

  Atom        21          22          23          24          25          26          27          28          29          30
 IAtWgt=          12          12           1           1           1           1           1           1           1           1
 AtmWgt=  12.0000000  12.0000000   1.0078250   1.0078250   1.0078250   1.0078250   1.0078250   1.0078250   1.0078250   1.0078250
 NucSpn=           0           0           1           1           1           1           1           1           1           1
 AtZEff=   0.0000000   0.0000000   0.0000000   0.0000000   0.0000000   0.0000000   0.0000000   0.0000000   0.0000000   0.0000000
 NQMom=    0.0000000   0.0000000   0.0000000   0.0000000   0.0000000   0.0000000   0.0000000   0.0000000   0.0000000   0.0000000
 NMagM=    0.0000000   0.0000000   2.7928460   2.7928460   2.7928460   2.7928460   2.7928460   2.7928460   2.7928460   2.7928460
 AtZNuc=   6.0000000   6.0000000   1.0000000   1.0000000   1.0000000   1.0000000   1.0000000   1.0000000   1.0000000   1.0000000

  Atom        31          32          33          34          35          36
 IAtWgt=           1           1           1           1           1           1
 AtmWgt=   1.0078250   1.0078250   1.0078250   1.0078250   1.0078250   1.0078250
 NucSpn=           1           1           1           1           1           1
 AtZEff=   0.0000000   0.0000000   0.0000000   0.0000000   0.0000000   0.0000000
 NQMom=    0.0000000   0.0000000   0.0000000   0.0000000   0.0000000   0.0000000
 NMagM=    2.7928460   2.7928460   2.7928460   2.7928460   2.7928460   2.7928460
 AtZNuc=   1.0000000   1.0000000   1.0000000   1.0000000   1.0000000   1.0000000
 Leave Link  101 at Fri Jul  9 19:19:35 2021, MaxMem=  4194304000 cpu:         1.2
 (Enter /home/minenky/programs//g09/l103.exe)

 GradGradGradGradGradGradGradGradGradGradGradGradGradGradGradGradGradGrad
 Berny optimization.
 Initialization pass.
                           ----------------------------
                           !    Initial Parameters    !
                           ! (Angstroms and Degrees)  !
 --------------------------                            --------------------------
 ! Name  Definition              Value          Derivative Info.                !
 --------------------------------------------------------------------------------
 ! R1    R(1,2)                  1.4332         estimate D2E/DX2                !
 ! R2    R(1,5)                  1.4648         estimate D2E/DX2                !
 ! R3    R(1,6)                  1.3857         estimate D2E/DX2                !
 ! R4    R(2,3)                  1.4648         estimate D2E/DX2                !
 ! R5    R(2,4)                  1.3857         estimate D2E/DX2                !
 ! R6    R(3,7)                  1.4126         estimate D2E/DX2                !
 ! R7    R(3,8)                  1.4058         estimate D2E/DX2                !
 ! R8    R(4,9)                  1.4009         estimate D2E/DX2                !
 ! R9    R(4,23)                 1.0799         estimate D2E/DX2                !
 ! R10   R(5,10)                 1.4126         estimate D2E/DX2                !
 ! R11   R(5,11)                 1.4058         estimate D2E/DX2                !
 ! R12   R(6,12)                 1.4009         estimate D2E/DX2                !
 ! R13   R(6,24)                 1.0799         estimate D2E/DX2                !
 ! R14   R(7,10)                 1.4648         estimate D2E/DX2                !
 ! R15   R(7,13)                 1.4061         estimate D2E/DX2                !
 ! R16   R(8,14)                 1.3778         estimate D2E/DX2                !
 ! R17   R(8,25)                 1.079          estimate D2E/DX2                !
 ! R18   R(9,12)                 1.426          estimate D2E/DX2                !
 ! R19   R(9,15)                 1.4191         estimate D2E/DX2                !
 ! R20   R(10,16)                1.4061         estimate D2E/DX2                !
 ! R21   R(11,17)                1.3778         estimate D2E/DX2                !
 ! R22   R(11,26)                1.079          estimate D2E/DX2                !
 ! R23   R(12,18)                1.4191         estimate D2E/DX2                !
 ! R24   R(13,19)                1.3779         estimate D2E/DX2                !
 ! R25   R(13,27)                1.0788         estimate D2E/DX2                !
 ! R26   R(14,19)                1.3942         estimate D2E/DX2                !
 ! R27   R(14,28)                1.0822         estimate D2E/DX2                !
 ! R28   R(15,20)                1.3672         estimate D2E/DX2                !
 ! R29   R(15,29)                1.0833         estimate D2E/DX2                !
 ! R30   R(16,21)                1.3779         estimate D2E/DX2                !
 ! R31   R(16,30)                1.0788         estimate D2E/DX2                !
 ! R32   R(17,21)                1.3942         estimate D2E/DX2                !
 ! R33   R(17,31)                1.0822         estimate D2E/DX2                !
 ! R34   R(18,22)                1.3672         estimate D2E/DX2                !
 ! R35   R(18,32)                1.0833         estimate D2E/DX2                !
 ! R36   R(19,33)                1.0822         estimate D2E/DX2                !
 ! R37   R(20,22)                1.4161         estimate D2E/DX2                !
 ! R38   R(20,34)                1.0823         estimate D2E/DX2                !
 ! R39   R(21,35)                1.0822         estimate D2E/DX2                !
 ! R40   R(22,36)                1.0823         estimate D2E/DX2                !
 ! A1    A(2,1,5)              119.6956         estimate D2E/DX2                !
 ! A2    A(2,1,6)              118.686          estimate D2E/DX2                !
 ! A3    A(5,1,6)              121.6184         estimate D2E/DX2                !
 ! A4    A(1,2,3)              119.6956         estimate D2E/DX2                !
 ! A5    A(1,2,4)              118.686          estimate D2E/DX2                !
 ! A6    A(3,2,4)              121.6184         estimate D2E/DX2                !
 ! A7    A(2,3,7)              120.1362         estimate D2E/DX2                !
 ! A8    A(2,3,8)              121.3551         estimate D2E/DX2                !
 ! A9    A(7,3,8)              118.5087         estimate D2E/DX2                !
 ! A10   A(2,4,9)              122.7985         estimate D2E/DX2                !
 ! A11   A(2,4,23)             120.2711         estimate D2E/DX2                !
 ! A12   A(9,4,23)             116.9305         estimate D2E/DX2                !
 ! A13   A(1,5,10)             120.1362         estimate D2E/DX2                !
 ! A14   A(1,5,11)             121.3551         estimate D2E/DX2                !
 ! A15   A(10,5,11)            118.5087         estimate D2E/DX2                !
 ! A16   A(1,6,12)             122.7985         estimate D2E/DX2                !
 ! A17   A(1,6,24)             120.2711         estimate D2E/DX2                !
 ! A18   A(12,6,24)            116.9305         estimate D2E/DX2                !
 ! A19   A(3,7,10)             120.1682         estimate D2E/DX2                !
 ! A20   A(3,7,13)             118.4927         estimate D2E/DX2                !
 ! A21   A(10,7,13)            121.3391         estimate D2E/DX2                !
 ! A22   A(3,8,14)             121.9287         estimate D2E/DX2                !
 ! A23   A(3,8,25)             119.8904         estimate D2E/DX2                !
 ! A24   A(14,8,25)            118.1809         estimate D2E/DX2                !
 ! A25   A(4,9,12)             118.5155         estimate D2E/DX2                !
 ! A26   A(4,9,15)             122.5504         estimate D2E/DX2                !
 ! A27   A(12,9,15)            118.9341         estimate D2E/DX2                !
 ! A28   A(5,10,7)             120.1682         estimate D2E/DX2                !
 ! A29   A(5,10,16)            118.4927         estimate D2E/DX2                !
 ! A30   A(7,10,16)            121.3391         estimate D2E/DX2                !
 ! A31   A(5,11,17)            121.9287         estimate D2E/DX2                !
 ! A32   A(5,11,26)            119.8905         estimate D2E/DX2                !
 ! A33   A(17,11,26)           118.1808         estimate D2E/DX2                !
 ! A34   A(6,12,9)             118.5155         estimate D2E/DX2                !
 ! A35   A(6,12,18)            122.5504         estimate D2E/DX2                !
 ! A36   A(9,12,18)            118.9341         estimate D2E/DX2                !
 ! A37   A(7,13,19)            121.9219         estimate D2E/DX2                !
 ! A38   A(7,13,27)            119.9246         estimate D2E/DX2                !
 ! A39   A(19,13,27)           118.1535         estimate D2E/DX2                !
 ! A40   A(8,14,19)            119.5735         estimate D2E/DX2                !
 ! A41   A(8,14,28)            119.9723         estimate D2E/DX2                !
 ! A42   A(19,14,28)           120.4542         estimate D2E/DX2                !
 ! A43   A(9,15,20)            120.6855         estimate D2E/DX2                !
 ! A44   A(9,15,29)            118.7739         estimate D2E/DX2                !
 ! A45   A(20,15,29)           120.5406         estimate D2E/DX2                !
 ! A46   A(10,16,21)           121.9219         estimate D2E/DX2                !
 ! A47   A(10,16,30)           119.9246         estimate D2E/DX2                !
 ! A48   A(21,16,30)           118.1535         estimate D2E/DX2                !
 ! A49   A(11,17,21)           119.5734         estimate D2E/DX2                !
 ! A50   A(11,17,31)           119.9723         estimate D2E/DX2                !
 ! A51   A(21,17,31)           120.4542         estimate D2E/DX2                !
 ! A52   A(12,18,22)           120.6855         estimate D2E/DX2                !
 ! A53   A(12,18,32)           118.7739         estimate D2E/DX2                !
 ! A54   A(22,18,32)           120.5406         estimate D2E/DX2                !
 ! A55   A(13,19,14)           119.5746         estimate D2E/DX2                !
 ! A56   A(13,19,33)           119.9715         estimate D2E/DX2                !
 ! A57   A(14,19,33)           120.4539         estimate D2E/DX2                !
 ! A58   A(15,20,22)           120.3804         estimate D2E/DX2                !
 ! A59   A(15,20,34)           120.1393         estimate D2E/DX2                !
 ! A60   A(22,20,34)           119.4804         estimate D2E/DX2                !
 ! A61   A(16,21,17)           119.5746         estimate D2E/DX2                !
 ! A62   A(16,21,35)           119.9715         estimate D2E/DX2                !
 ! A63   A(17,21,35)           120.4539         estimate D2E/DX2                !
 ! A64   A(18,22,20)           120.3804         estimate D2E/DX2                !
 ! A65   A(18,22,36)           120.1393         estimate D2E/DX2                !
 ! A66   A(20,22,36)           119.4804         estimate D2E/DX2                !
 ! D1    D(5,1,2,3)              0.0            estimate D2E/DX2                !
 ! D2    D(5,1,2,4)            179.9999         estimate D2E/DX2                !
 ! D3    D(6,1,2,3)           -179.9999         estimate D2E/DX2                !
 ! D4    D(6,1,2,4)              0.0            estimate D2E/DX2                !
 ! D5    D(2,1,5,10)            -0.0003         estimate D2E/DX2                !
 ! D6    D(2,1,5,11)           179.9998         estimate D2E/DX2                !
 ! D7    D(6,1,5,10)           179.9995         estimate D2E/DX2                !
 ! D8    D(6,1,5,11)            -0.0004         estimate D2E/DX2                !
 ! D9    D(2,1,6,12)             0.0            estimate D2E/DX2                !
 ! D10   D(2,1,6,24)           179.9998         estimate D2E/DX2                !
 ! D11   D(5,1,6,12)          -179.9999         estimate D2E/DX2                !
 ! D12   D(5,1,6,24)             0.0            estimate D2E/DX2                !
 ! D13   D(1,2,3,7)              0.0003         estimate D2E/DX2                !
 ! D14   D(1,2,3,8)           -179.9997         estimate D2E/DX2                !
 ! D15   D(4,2,3,7)           -179.9996         estimate D2E/DX2                !
 ! D16   D(4,2,3,8)              0.0003         estimate D2E/DX2                !
 ! D17   D(1,2,4,9)              0.0            estimate D2E/DX2                !
 ! D18   D(1,2,4,23)          -179.9999         estimate D2E/DX2                !
 ! D19   D(3,2,4,9)            180.0            estimate D2E/DX2                !
 ! D20   D(3,2,4,23)             0.0001         estimate D2E/DX2                !
 ! D21   D(2,3,7,10)            -0.0002         estimate D2E/DX2                !
 ! D22   D(2,3,7,13)           179.9999         estimate D2E/DX2                !
 ! D23   D(8,3,7,10)           179.9998         estimate D2E/DX2                !
 ! D24   D(8,3,7,13)            -0.0001         estimate D2E/DX2                !
 ! D25   D(2,3,8,14)          -179.9999         estimate D2E/DX2                !
 ! D26   D(2,3,8,25)             0.0002         estimate D2E/DX2                !
 ! D27   D(7,3,8,14)             0.0001         estimate D2E/DX2                !
 ! D28   D(7,3,8,25)          -179.9999         estimate D2E/DX2                !
 ! D29   D(2,4,9,12)             0.0            estimate D2E/DX2                !
 ! D30   D(2,4,9,15)           180.0            estimate D2E/DX2                !
 ! D31   D(23,4,9,12)          179.9998         estimate D2E/DX2                !
 ! D32   D(23,4,9,15)           -0.0001         estimate D2E/DX2                !
 ! D33   D(1,5,10,7)             0.0004         estimate D2E/DX2                !
 ! D34   D(1,5,10,16)         -179.9997         estimate D2E/DX2                !
 ! D35   D(11,5,10,7)         -179.9997         estimate D2E/DX2                !
 ! D36   D(11,5,10,16)           0.0002         estimate D2E/DX2                !
 ! D37   D(1,5,11,17)          179.9998         estimate D2E/DX2                !
 ! D38   D(1,5,11,26)           -0.0003         estimate D2E/DX2                !
 ! D39   D(10,5,11,17)          -0.0001         estimate D2E/DX2                !
 ! D40   D(10,5,11,26)         179.9998         estimate D2E/DX2                !
 ! D41   D(1,6,12,9)             0.0            estimate D2E/DX2                !
 ! D42   D(1,6,12,18)         -180.0            estimate D2E/DX2                !
 ! D43   D(24,6,12,9)         -179.9999         estimate D2E/DX2                !
 ! D44   D(24,6,12,18)           0.0001         estimate D2E/DX2                !
 ! D45   D(3,7,10,5)            -0.0001         estimate D2E/DX2                !
 ! D46   D(3,7,10,16)          180.0            estimate D2E/DX2                !
 ! D47   D(13,7,10,5)          179.9998         estimate D2E/DX2                !
 ! D48   D(13,7,10,16)          -0.0001         estimate D2E/DX2                !
 ! D49   D(3,7,13,19)            0.0            estimate D2E/DX2                !
 ! D50   D(3,7,13,27)         -180.0            estimate D2E/DX2                !
 ! D51   D(10,7,13,19)        -179.9999         estimate D2E/DX2                !
 ! D52   D(10,7,13,27)           0.0001         estimate D2E/DX2                !
 ! D53   D(3,8,14,19)            0.0            estimate D2E/DX2                !
 ! D54   D(3,8,14,28)          180.0            estimate D2E/DX2                !
 ! D55   D(25,8,14,19)         180.0            estimate D2E/DX2                !
 ! D56   D(25,8,14,28)           0.0            estimate D2E/DX2                !
 ! D57   D(4,9,12,6)             0.0            estimate D2E/DX2                !
 ! D58   D(4,9,12,18)         -180.0            estimate D2E/DX2                !
 ! D59   D(15,9,12,6)          180.0            estimate D2E/DX2                !
 ! D60   D(15,9,12,18)           0.0            estimate D2E/DX2                !
 ! D61   D(4,9,15,20)          179.9999         estimate D2E/DX2                !
 ! D62   D(4,9,15,29)            0.0            estimate D2E/DX2                !
 ! D63   D(12,9,15,20)           0.0            estimate D2E/DX2                !
 ! D64   D(12,9,15,29)        -179.9999         estimate D2E/DX2                !
 ! D65   D(5,10,16,21)          -0.0002         estimate D2E/DX2                !
 ! D66   D(5,10,16,30)         179.9999         estimate D2E/DX2                !
 ! D67   D(7,10,16,21)         179.9997         estimate D2E/DX2                !
 ! D68   D(7,10,16,30)          -0.0002         estimate D2E/DX2                !
 ! D69   D(5,11,17,21)           0.0            estimate D2E/DX2                !
 ! D70   D(5,11,17,31)         180.0            estimate D2E/DX2                !
 ! D71   D(26,11,17,21)       -179.9999         estimate D2E/DX2                !
 ! D72   D(26,11,17,31)          0.0001         estimate D2E/DX2                !
 ! D73   D(6,12,18,22)        -180.0            estimate D2E/DX2                !
 ! D74   D(6,12,18,32)           0.0            estimate D2E/DX2                !
 ! D75   D(9,12,18,22)           0.0            estimate D2E/DX2                !
 ! D76   D(9,12,18,32)         180.0            estimate D2E/DX2                !
 ! D77   D(7,13,19,14)           0.0001         estimate D2E/DX2                !
 ! D78   D(7,13,19,33)         180.0            estimate D2E/DX2                !
 ! D79   D(27,13,19,14)       -179.9999         estimate D2E/DX2                !
 ! D80   D(27,13,19,33)          0.0            estimate D2E/DX2                !
 ! D81   D(8,14,19,13)          -0.0001         estimate D2E/DX2                !
 ! D82   D(8,14,19,33)        -180.0            estimate D2E/DX2                !
 ! D83   D(28,14,19,13)        179.9999         estimate D2E/DX2                !
 ! D84   D(28,14,19,33)          0.0            estimate D2E/DX2                !
 ! D85   D(9,15,20,22)           0.0            estimate D2E/DX2                !
 ! D86   D(9,15,20,34)        -180.0            estimate D2E/DX2                !
 ! D87   D(29,15,20,22)        179.9999         estimate D2E/DX2                !
 ! D88   D(29,15,20,34)          0.0            estimate D2E/DX2                !
 ! D89   D(10,16,21,17)          0.0            estimate D2E/DX2                !
 ! D90   D(10,16,21,35)        180.0            estimate D2E/DX2                !
 ! D91   D(30,16,21,17)        180.0            estimate D2E/DX2                !
 ! D92   D(30,16,21,35)         -0.0001         estimate D2E/DX2                !
 ! D93   D(11,17,21,16)          0.0001         estimate D2E/DX2                !
 ! D94   D(11,17,21,35)       -179.9999         estimate D2E/DX2                !
 ! D95   D(31,17,21,16)       -179.9999         estimate D2E/DX2                !
 ! D96   D(31,17,21,35)          0.0001         estimate D2E/DX2                !
 ! D97   D(12,18,22,20)          0.0            estimate D2E/DX2                !
 ! D98   D(12,18,22,36)        180.0            estimate D2E/DX2                !
 ! D99   D(32,18,22,20)        180.0            estimate D2E/DX2                !
 ! D100  D(32,18,22,36)          0.0            estimate D2E/DX2                !
 ! D101  D(15,20,22,18)          0.0            estimate D2E/DX2                !
 ! D102  D(15,20,22,36)       -180.0            estimate D2E/DX2                !
 ! D103  D(34,20,22,18)        180.0            estimate D2E/DX2                !
 ! D104  D(34,20,22,36)          0.0            estimate D2E/DX2                !
 --------------------------------------------------------------------------------
 Trust Radius=3.00D-01 FncErr=1.00D-07 GrdErr=1.00D-06
 Number of steps in this run=    216 maximum allowed number of steps=    216.
 GradGradGradGradGradGradGradGradGradGradGradGradGradGradGradGradGradGrad

 Leave Link  103 at Fri Jul  9 19:19:36 2021, MaxMem=  4194304000 cpu:         0.1
 (Enter /home/minenky/programs//g09/l202.exe)
                          Input orientation:                          
 ---------------------------------------------------------------------
 Center     Atomic      Atomic             Coordinates (Angstroms)
 Number     Number       Type             X           Y           Z
 ---------------------------------------------------------------------
      1          6           0       -0.247173    0.716593   -0.000004
      2          6           0       -0.247173   -0.716593   -0.000003
      3          6           0        1.025281   -1.442258   -0.000003
      4          6           0       -1.462809   -1.381748   -0.000001
      5          6           0        1.025281    1.442258   -0.000004
      6          6           0       -1.462809    1.381748   -0.000002
      7          6           0        2.246519   -0.732387    0.000003
      8          6           0        1.065994   -2.847500   -0.000008
      9          6           0       -2.693738   -0.712976    0.000000
     10          6           0        2.246519    0.732387    0.000004
     11          6           0        1.065994    2.847500   -0.000010
     12          6           0       -2.693738    0.712976    0.000000
     13          6           0        3.447441   -1.463682    0.000006
     14          6           0        2.255923   -3.541980   -0.000005
     15          6           0       -3.935681   -1.399529    0.000002
     16          6           0        3.447441    1.463682    0.000010
     17          6           0        2.255923    3.541980   -0.000006
     18          6           0       -3.935681    1.399529    0.000002
     19          6           0        3.461456   -2.841544    0.000003
     20          6           0       -5.115186   -0.708060    0.000004
     21          6           0        3.461456    2.841543    0.000005
     22          6           0       -5.115186    0.708060    0.000004
     23          1           0       -1.492680   -2.461223    0.000002
     24          1           0       -1.492680    2.461223    0.000000
     25          1           0        0.146450   -3.412101   -0.000015
     26          1           0        0.146451    3.412101   -0.000020
     27          1           0        4.393417   -0.944997    0.000011
     28          1           0        2.250316   -4.624131   -0.000009
     29          1           0       -3.932652   -2.482846    0.000003
     30          1           0        4.393417    0.944997    0.000018
     31          1           0        2.250316    4.624130   -0.000011
     32          1           0       -3.932652    2.482846    0.000002
     33          1           0        4.404352   -3.372594    0.000005
     34          1           0       -6.057367   -1.240694    0.000006
     35          1           0        4.404352    3.372594    0.000010
     36          1           0       -6.057367    1.240694    0.000006
 ---------------------------------------------------------------------
                    Distance matrix (angstroms):
                    1          2          3          4          5
     1  C    0.000000
     2  C    1.433186   0.000000
     3  C    2.505948   1.464831   0.000000
     4  C    2.425037   1.385714   2.488826   0.000000
     5  C    1.464831   2.505948   2.884516   3.763722   0.000000
     6  C    1.385714   2.425037   3.763722   2.763496   2.488826
     7  C    2.884102   2.493742   1.412565   3.765738   2.494094
     8  C    3.798311   2.503033   1.405832   2.922888   4.289951
     9  C    2.833610   2.446568   3.789849   1.400872   4.298388
    10  C    2.493742   2.884102   2.494094   4.269506   1.412565
    11  C    2.503033   3.798311   4.289951   4.927614   1.405832
    12  C    2.446568   2.833610   4.298388   2.429620   3.789849
    13  C    4.289962   3.769392   2.422255   4.910934   3.783034
    14  C    4.939730   3.774692   2.433786   4.300648   5.133917
    15  C    4.252419   3.751199   4.961146   2.472936   5.717246
    16  C    3.769392   4.289962   3.783034   5.675124   2.422255
    17  C    3.774692   4.939730   5.133917   6.170256   2.433786
    18  C    3.751199   4.252419   5.717246   3.721639   4.961146
    19  C    5.139481   4.274266   2.809439   5.136087   4.928073
    20  C    5.072197   4.868020   6.184204   3.713989   6.506090
    21  C    4.274265   5.139481   4.928073   6.487262   2.809439
    22  C    4.868020   5.072197   6.506090   4.207987   6.184204
    23  H    3.413181   2.143600   2.716324   1.079888   4.645136
    24  H    2.143600   3.413181   4.645136   3.843087   2.716324
    25  H    4.147415   2.724097   2.156995   2.590762   4.933269
    26  H    2.724097   4.147415   4.933269   5.056749   2.156994
    27  H    4.929093   4.646207   3.404645   5.872490   4.128356
    28  H    5.895828   4.637489   3.409549   4.929538   6.188844
    29  H    4.880488   4.086858   5.065957   2.704171   6.323570
    30  H    4.646207   4.929093   4.128356   6.301518   3.404645
    31  H    4.637488   5.895827   6.188843   7.061010   3.409548
    32  H    4.086858   4.880488   6.323570   4.586416   5.065957
    33  H    6.193394   5.356400   3.891570   6.195728   5.882255
    34  H    6.131014   5.833784   7.085516   4.596723   7.573779
    35  H    5.356400   6.193394   5.882255   7.551645   3.891570
    36  H    5.833784   6.131014   7.573779   5.290290   7.085516
                    6          7          8          9         10
     6  C    0.000000
     7  C    4.269506   0.000000
     8  C    4.927614   2.422260   0.000000
     9  C    2.429620   4.940295   4.323399   0.000000
    10  C    3.765738   1.464774   3.769513   5.147350   0.000000
    11  C    2.922888   3.769513   5.695000   5.178086   2.422260
    12  C    1.400872   5.147350   5.178086   1.425952   4.940295
    13  C    5.675124   1.406060   2.754313   6.186893   2.502985
    14  C    6.170256   2.809609   1.377764   5.701088   4.274377
    15  C    3.721639   6.218093   5.207050   1.419076   6.539470
    16  C    4.910934   2.502985   4.925198   6.515514   1.406060
    17  C    4.300648   4.274377   6.499337   6.527158   2.809609
    18  C    2.472936   6.539470   6.561555   2.450531   6.218093
    19  C    6.487263   2.434053   2.395469   6.512850   3.774792
    20  C    4.207987   7.361745   6.540962   2.421453   7.501306
    21  C    5.136087   3.774791   6.172799   7.107814   2.434052
    22  C    3.713989   7.501306   7.130848   2.807624   7.361745
    23  H    3.843087   4.119525   2.587667   2.121063   4.917393
    24  H    1.079888   4.917393   5.893162   3.393830   4.119525
    25  H    5.056748   3.404579   1.079044   3.918156   4.646189
    26  H    2.590763   4.646188   6.326781   5.008287   3.404578
    27  H    6.301518   2.157400   3.832918   7.090952   2.724479
    28  H    7.061011   3.891746   2.135190   6.304031   5.356519
    29  H    4.586416   6.422325   5.011929   2.160405   6.965621
    30  H    5.872490   2.724479   5.045273   7.278505   2.157400
    31  H    4.929537   5.356518   7.564911   7.275189   3.891745
    32  H    2.704171   6.965621   7.307465   3.427563   6.422325
    33  H    7.551645   3.409829   3.379402   7.580003   4.637576
    34  H    5.290290   8.319429   7.302335   3.404774   8.535079
    35  H    6.195728   4.637576   7.059334   8.189918   3.409829
    36  H    4.596723   8.535079   8.213136   3.889836   8.319429
                   11         12         13         14         15
    11  C    0.000000
    12  C    4.323399   0.000000
    13  C    4.925198   6.515514   0.000000
    14  C    6.499337   6.527158   2.395629   0.000000
    15  C    6.561555   2.450531   7.383401   6.551798   0.000000
    16  C    2.754313   6.186893   2.927364   5.145519   7.918868
    17  C    1.377764   5.701088   5.145519   7.083960   7.921772
    18  C    5.207050   1.419076   7.918868   7.921772   2.799058
    19  C    6.172800   7.107814   1.377933   1.394245   7.536381
    20  C    7.130848   2.807624   8.595903   7.897110   1.367246
    21  C    2.395469   6.512850   4.305248   6.496359   8.526683
    22  C    6.540962   2.421453   8.833745   8.508589   2.415194
    23  H    5.893162   3.393830   5.039830   3.901290   2.663728
    24  H    2.587667   2.121063   6.309491   7.077462   4.568770
    25  H    6.326782   5.008286   3.833129   2.113468   4.551290
    26  H    1.079043   3.918156   5.888106   7.266988   6.309959
    27  H    5.045273   7.278505   1.078844   3.363510   8.341491
    28  H    7.564912   7.275189   3.379578   1.082166   6.976003
    29  H    7.307465   3.427563   7.450132   6.278553   1.083321
    30  H    3.832918   7.090952   2.587780   4.970095   8.652784
    31  H    2.135189   6.304030   6.204399   8.166112   8.634294
    32  H    5.011929   2.160405   8.369042   8.636955   3.882376
    33  H    7.059334   8.189918   2.135328   2.155096   8.570247
    34  H    8.213136   3.889836   9.507423   8.625932   2.127623
    35  H    3.379402   7.580003   4.930035   7.240655   9.608814
    36  H    7.302335   3.404774   9.882056   9.590869   3.387083
                   16         17         18         19         20
    16  C    0.000000
    17  C    2.395629   0.000000
    18  C    7.383401   6.551798   0.000000
    19  C    4.305249   6.496360   8.526684   0.000000
    20  C    8.833745   8.508589   2.415194   8.838017   0.000000
    21  C    1.377932   1.394246   7.536381   5.683087   9.282159
    22  C    8.595903   7.897110   1.367246   9.282159   1.416120
    23  H    6.309491   7.077462   4.568770   4.968713   4.024442
    24  H    5.039830   3.901290   2.663728   7.256914   4.813201
    25  H    5.888107   7.266988   6.309959   3.363748   5.915797
    26  H    3.833128   2.113467   4.551291   7.077947   6.682855
    27  H    2.587780   4.970095   8.652784   2.113159   9.511555
    28  H    6.204400   8.166113   8.634294   2.155105   8.341836
    29  H    8.369042   8.636955   3.882376   7.402803   2.132663
    30  H    1.078844   3.363510   8.341491   3.899544   9.651224
    31  H    3.379577   1.082165   6.976002   7.563276   9.093012
    32  H    7.450132   6.278553   1.083321   9.111639   3.402979
    33  H    4.930035   7.240655   9.608814   1.082158   9.885411
    34  H    9.882056   9.590869   3.387083   9.652498   1.082314
    35  H    2.135328   2.155096   8.570247   6.285266  10.357284
    36  H    9.507423   8.625932   2.127623  10.357251   2.164566
                   21         22         23         24         25
    21  C    0.000000
    22  C    8.838017   0.000000
    23  H    7.256913   4.813201   0.000000
    24  H    4.968713   4.024442   4.922446   0.000000
    25  H    7.077947   6.682854   1.894971   6.097760   0.000000
    26  H    3.363747   5.915798   6.097761   1.894972   6.824202
    27  H    3.899543   9.651224   6.078246   6.800623   4.911551
    28  H    7.563276   9.093013   4.322984   8.013255   2.428017
    29  H    9.111638   3.402979   2.440068   5.513373   4.183609
    30  H    2.113158   9.511555   6.800623   6.078246   6.084491
    31  H    2.155105   8.341836   8.013254   4.322983   8.307061
    32  H    7.402803   2.132663   5.513373   2.440068   7.168645
    33  H    6.285265  10.357284   5.967041   8.295083   4.258085
    34  H   10.357251   2.164566   4.725046   5.877121   6.572850
    35  H    1.082159   9.885411   8.295083   5.967041   8.010107
    36  H    9.652498   1.082314   5.877121   4.725046   7.754731
                   26         27         28         29         30
    26  H    0.000000
    27  H    6.084490   0.000000
    28  H    8.307062   4.257806   0.000000
    29  H    7.168646   8.466901   6.543256   0.000000
    30  H    4.911550   1.889994   5.967250   9.004084   0.000000
    31  H    2.428016   5.967249   9.248261   9.420096   4.257805
    32  H    4.183610   9.004084   9.420096   4.965692   8.466901
    33  H    8.010107   2.427622   2.491228   8.384348   4.317605
    34  H    7.754731  10.454966   8.970242   2.461170  10.676897
    35  H    4.258084   4.317605   8.281756  10.187827   2.427622
    36  H    6.572851  10.676897  10.169256   4.287093  10.454966
                   31         32         33         34         35
    31  H    0.000000
    32  H    6.543255   0.000000
    33  H    8.281755  10.187827   0.000000
    34  H   10.169255   4.287093  10.676730   0.000000
    35  H    2.491227   8.384348   6.745188  11.433722   0.000000
    36  H    8.970242   2.461170  11.433722   2.481388  10.676730
                   36
    36  H    0.000000
 Stoichiometry    C22H14
 Framework group  C1[X(C22H14)]
 Deg. of freedom   102
 Full point group                 C1      NOp   1
 Largest Abelian subgroup         C1      NOp   1
 Largest concise Abelian subgroup C1      NOp   1
                         Standard orientation:                         
 ---------------------------------------------------------------------
 Center     Atomic      Atomic             Coordinates (Angstroms)
 Number     Number       Type             X           Y           Z
 ---------------------------------------------------------------------
      1          6           0        0.247173   -0.716593   -0.000004
      2          6           0        0.247173    0.716593   -0.000003
      3          6           0       -1.025281    1.442258   -0.000003
      4          6           0        1.462809    1.381748   -0.000001
      5          6           0       -1.025281   -1.442258   -0.000004
      6          6           0        1.462809   -1.381748   -0.000002
      7          6           0       -2.246519    0.732387    0.000003
      8          6           0       -1.065994    2.847500   -0.000008
      9          6           0        2.693738    0.712976    0.000000
     10          6           0       -2.246519   -0.732387    0.000004
     11          6           0       -1.065994   -2.847500   -0.000010
     12          6           0        2.693738   -0.712976    0.000000
     13          6           0       -3.447441    1.463682    0.000006
     14          6           0       -2.255923    3.541980   -0.000005
     15          6           0        3.935681    1.399529    0.000002
     16          6           0       -3.447441   -1.463682    0.000010
     17          6           0       -2.255923   -3.541980   -0.000006
     18          6           0        3.935681   -1.399529    0.000002
     19          6           0       -3.461456    2.841544    0.000003
     20          6           0        5.115186    0.708060    0.000004
     21          6           0       -3.461456   -2.841543    0.000005
     22          6           0        5.115186   -0.708060    0.000004
     23          1           0        1.492680    2.461223    0.000002
     24          1           0        1.492680   -2.461223    0.000000
     25          1           0       -0.146450    3.412101   -0.000015
     26          1           0       -0.146451   -3.412101   -0.000020
     27          1           0       -4.393417    0.944997    0.000011
     28          1           0       -2.250316    4.624131   -0.000009
     29          1           0        3.932652    2.482846    0.000003
     30          1           0       -4.393417   -0.944997    0.000018
     31          1           0       -2.250316   -4.624130   -0.000011
     32          1           0        3.932652   -2.482846    0.000002
     33          1           0       -4.404352    3.372594    0.000005
     34          1           0        6.057367    1.240694    0.000006
     35          1           0       -4.404352   -3.372594    0.000010
     36          1           0        6.057367   -1.240694    0.000006
 ---------------------------------------------------------------------
 Rotational constants (GHZ):      0.4803485      0.2203888      0.1510743
 Leave Link  202 at Fri Jul  9 19:19:36 2021, MaxMem=  4194304000 cpu:         1.4
 (Enter /home/minenky/programs//g09/l301.exe)
 Standard basis: def2TZVP (5D, 7F)
 ======================================================================================================
                                       Pseudopotential Parameters
 ======================================================================================================
  Center     Atomic      Valence      Angular      Power
  Number     Number     Electrons     Momentum     of R      Exponent        Coefficient   SO-Coeffient
 ======================================================================================================
    1          6
                                   No pseudopotential on this center.
    2          6
                                   No pseudopotential on this center.
    3          6
                                   No pseudopotential on this center.
    4          6
                                   No pseudopotential on this center.
    5          6
                                   No pseudopotential on this center.
    6          6
                                   No pseudopotential on this center.
    7          6
                                   No pseudopotential on this center.
    8          6
                                   No pseudopotential on this center.
    9          6
                                   No pseudopotential on this center.
   10          6
                                   No pseudopotential on this center.
   11          6
                                   No pseudopotential on this center.
   12          6
                                   No pseudopotential on this center.
   13          6
                                   No pseudopotential on this center.
   14          6
                                   No pseudopotential on this center.
   15          6
                                   No pseudopotential on this center.
   16          6
                                   No pseudopotential on this center.
   17          6
                                   No pseudopotential on this center.
   18          6
                                   No pseudopotential on this center.
   19          6
                                   No pseudopotential on this center.
   20          6
                                   No pseudopotential on this center.
   21          6
                                   No pseudopotential on this center.
   22          6
                                   No pseudopotential on this center.
   23          1
                                   No pseudopotential on this center.
   24          1
                                   No pseudopotential on this center.
   25          1
                                   No pseudopotential on this center.
   26          1
                                   No pseudopotential on this center.
   27          1
                                   No pseudopotential on this center.
   28          1
                                   No pseudopotential on this center.
   29          1
                                   No pseudopotential on this center.
   30          1
                                   No pseudopotential on this center.
   31          1
                                   No pseudopotential on this center.
   32          1
                                   No pseudopotential on this center.
   33          1
                                   No pseudopotential on this center.
   34          1
                                   No pseudopotential on this center.
   35          1
                                   No pseudopotential on this center.
   36          1
                                   No pseudopotential on this center.
 ======================================================================================================
 Ernie: Thresh=  0.10000D-02 Tol=  0.10000D-05 Strict=F.
 AO basis set (Overlap normalization):
 Atom C1       Shell     1 S   6     bf    1 -     1          0.467089278884         -1.354164595456         -0.000007429471
      0.1357534968D+05  0.6064550360D-03
      0.2035233368D+04  0.4697908888D-02
      0.4632256236D+03  0.2433247765D-01
      0.1312001960D+03  0.9739996831D-01
      0.4285301589D+02  0.3019558425D+00
      0.1558418577D+02  0.6623360914D+00
 Atom C1       Shell     2 S   2     bf    2 -     2          0.467089278884         -1.354164595456         -0.000007429471
      0.6206713851D+01  0.6559530854D+00
      0.2576489653D+01  0.3758563329D+00
 Atom C1       Shell     3 S   1     bf    3 -     3          0.467089278884         -1.354164595456         -0.000007429471
      0.5769633942D+00  0.1000000000D+01
 Atom C1       Shell     4 S   1     bf    4 -     4          0.467089278884         -1.354164595456         -0.000007429471
      0.2297283136D+00  0.1000000000D+01
 Atom C1       Shell     5 S   1     bf    5 -     5          0.467089278884         -1.354164595456         -0.000007429471
      0.9516444003D-01  0.1000000000D+01
 Atom C1       Shell     6 P   4     bf    6 -     8          0.467089278884         -1.354164595456         -0.000007429471
      0.3469723224D+02  0.1132722000D-01
      0.7958262283D+01  0.7616965920D-01
      0.2378082688D+01  0.3019225220D+00
      0.8143320818D+00  0.7278502735D+00
 Atom C1       Shell     7 P   1     bf    9 -    11          0.467089278884         -1.354164595456         -0.000007429471
      0.2888754725D+00  0.1000000000D+01
 Atom C1       Shell     8 P   1     bf   12 -    14          0.467089278884         -1.354164595456         -0.000007429471
      0.1005682367D+00  0.1000000000D+01
 Atom C1       Shell     9 D   1     bf   15 -    19          0.467089278884         -1.354164595456         -0.000007429471
      0.1097000000D+01  0.1000000000D+01
 Atom C1       Shell    10 D   1     bf   20 -    24          0.467089278884         -1.354164595456         -0.000007429471
      0.3180000000D+00  0.1000000000D+01
 Atom C1       Shell    11 F   1     bf   25 -    31          0.467089278884         -1.354164595456         -0.000007429471
      0.7610000000D+00  0.1000000000D+01
 Atom C2       Shell    12 S   6     bf   32 -    32          0.467089198343          1.354164442030         -0.000005539745
      0.1357534968D+05  0.6064550360D-03
      0.2035233368D+04  0.4697908888D-02
      0.4632256236D+03  0.2433247765D-01
      0.1312001960D+03  0.9739996831D-01
      0.4285301589D+02  0.3019558425D+00
      0.1558418577D+02  0.6623360914D+00
 Atom C2       Shell    13 S   2     bf   33 -    33          0.467089198343          1.354164442030         -0.000005539745
      0.6206713851D+01  0.6559530854D+00
      0.2576489653D+01  0.3758563329D+00
 Atom C2       Shell    14 S   1     bf   34 -    34          0.467089198343          1.354164442030         -0.000005539745
      0.5769633942D+00  0.1000000000D+01
 Atom C2       Shell    15 S   1     bf   35 -    35          0.467089198343          1.354164442030         -0.000005539745
      0.2297283136D+00  0.1000000000D+01
 Atom C2       Shell    16 S   1     bf   36 -    36          0.467089198343          1.354164442030         -0.000005539745
      0.9516444003D-01  0.1000000000D+01
 Atom C2       Shell    17 P   4     bf   37 -    39          0.467089198343          1.354164442030         -0.000005539745
      0.3469723224D+02  0.1132722000D-01
      0.7958262283D+01  0.7616965920D-01
      0.2378082688D+01  0.3019225220D+00
      0.8143320818D+00  0.7278502735D+00
 Atom C2       Shell    18 P   1     bf   40 -    42          0.467089198343          1.354164442030         -0.000005539745
      0.2888754725D+00  0.1000000000D+01
 Atom C2       Shell    19 P   1     bf   43 -    45          0.467089198343          1.354164442030         -0.000005539745
      0.1005682367D+00  0.1000000000D+01
 Atom C2       Shell    20 D   1     bf   46 -    50          0.467089198343          1.354164442030         -0.000005539745
      0.1097000000D+01  0.1000000000D+01
 Atom C2       Shell    21 D   1     bf   51 -    55          0.467089198343          1.354164442030         -0.000005539745
      0.3180000000D+00  0.1000000000D+01
 Atom C2       Shell    22 F   1     bf   56 -    62          0.467089198343          1.354164442030         -0.000005539745
      0.7610000000D+00  0.1000000000D+01
 Atom C3       Shell    23 S   6     bf   63 -    63         -1.937500419132          2.725472484742         -0.000005539745
      0.1357534968D+05  0.6064550360D-03
      0.2035233368D+04  0.4697908888D-02
      0.4632256236D+03  0.2433247765D-01
      0.1312001960D+03  0.9739996831D-01
      0.4285301589D+02  0.3019558425D+00
      0.1558418577D+02  0.6623360914D+00
 Atom C3       Shell    24 S   2     bf   64 -    64         -1.937500419132          2.725472484742         -0.000005539745
      0.6206713851D+01  0.6559530854D+00
      0.2576489653D+01  0.3758563329D+00
 Atom C3       Shell    25 S   1     bf   65 -    65         -1.937500419132          2.725472484742         -0.000005539745
      0.5769633942D+00  0.1000000000D+01
 Atom C3       Shell    26 S   1     bf   66 -    66         -1.937500419132          2.725472484742         -0.000005539745
      0.2297283136D+00  0.1000000000D+01
 Atom C3       Shell    27 S   1     bf   67 -    67         -1.937500419132          2.725472484742         -0.000005539745
      0.9516444003D-01  0.1000000000D+01
 Atom C3       Shell    28 P   4     bf   68 -    70         -1.937500419132          2.725472484742         -0.000005539745
      0.3469723224D+02  0.1132722000D-01
      0.7958262283D+01  0.7616965920D-01
      0.2378082688D+01  0.3019225220D+00
      0.8143320818D+00  0.7278502735D+00
 Atom C3       Shell    29 P   1     bf   71 -    73         -1.937500419132          2.725472484742         -0.000005539745
      0.2888754725D+00  0.1000000000D+01
 Atom C3       Shell    30 P   1     bf   74 -    76         -1.937500419132          2.725472484742         -0.000005539745
      0.1005682367D+00  0.1000000000D+01
 Atom C3       Shell    31 D   1     bf   77 -    81         -1.937500419132          2.725472484742         -0.000005539745
      0.1097000000D+01  0.1000000000D+01
 Atom C3       Shell    32 D   1     bf   82 -    86         -1.937500419132          2.725472484742         -0.000005539745
      0.3180000000D+00  0.1000000000D+01
 Atom C3       Shell    33 F   1     bf   87 -    93         -1.937500419132          2.725472484742         -0.000005539745
      0.7610000000D+00  0.1000000000D+01
 Atom C4       Shell    34 S   6     bf   94 -    94          2.764308278240          2.611125296265         -0.000001760293
      0.1357534968D+05  0.6064550360D-03
      0.2035233368D+04  0.4697908888D-02
      0.4632256236D+03  0.2433247765D-01
      0.1312001960D+03  0.9739996831D-01
      0.4285301589D+02  0.3019558425D+00
      0.1558418577D+02  0.6623360914D+00
 Atom C4       Shell    35 S   2     bf   95 -    95          2.764308278240          2.611125296265         -0.000001760293
      0.6206713851D+01  0.6559530854D+00
      0.2576489653D+01  0.3758563329D+00
 Atom C4       Shell    36 S   1     bf   96 -    96          2.764308278240          2.611125296265         -0.000001760293
      0.5769633942D+00  0.1000000000D+01
 Atom C4       Shell    37 S   1     bf   97 -    97          2.764308278240          2.611125296265         -0.000001760293
      0.2297283136D+00  0.1000000000D+01
 Atom C4       Shell    38 S   1     bf   98 -    98          2.764308278240          2.611125296265         -0.000001760293
      0.9516444003D-01  0.1000000000D+01
 Atom C4       Shell    39 P   4     bf   99 -   101          2.764308278240          2.611125296265         -0.000001760293
      0.3469723224D+02  0.1132722000D-01
      0.7958262283D+01  0.7616965920D-01
      0.2378082688D+01  0.3019225220D+00
      0.8143320818D+00  0.7278502735D+00
 Atom C4       Shell    40 P   1     bf  102 -   104          2.764308278240          2.611125296265         -0.000001760293
      0.2888754725D+00  0.1000000000D+01
 Atom C4       Shell    41 P   1     bf  105 -   107          2.764308278240          2.611125296265         -0.000001760293
      0.1005682367D+00  0.1000000000D+01
 Atom C4       Shell    42 D   1     bf  108 -   112          2.764308278240          2.611125296265         -0.000001760293
      0.1097000000D+01  0.1000000000D+01
 Atom C4       Shell    43 D   1     bf  113 -   117          2.764308278240          2.611125296265         -0.000001760293
      0.3180000000D+00  0.1000000000D+01
 Atom C4       Shell    44 F   1     bf  118 -   124          2.764308278240          2.611125296265         -0.000001760293
      0.7610000000D+00  0.1000000000D+01
 Atom C5       Shell    45 S   6     bf  125 -   125         -1.937500257031         -2.725472781184         -0.000007429471
      0.1357534968D+05  0.6064550360D-03
      0.2035233368D+04  0.4697908888D-02
      0.4632256236D+03  0.2433247765D-01
      0.1312001960D+03  0.9739996831D-01
      0.4285301589D+02  0.3019558425D+00
      0.1558418577D+02  0.6623360914D+00
 Atom C5       Shell    46 S   2     bf  126 -   126         -1.937500257031         -2.725472781184         -0.000007429471
      0.6206713851D+01  0.6559530854D+00
      0.2576489653D+01  0.3758563329D+00
 Atom C5       Shell    47 S   1     bf  127 -   127         -1.937500257031         -2.725472781184         -0.000007429471
      0.5769633942D+00  0.1000000000D+01
 Atom C5       Shell    48 S   1     bf  128 -   128         -1.937500257031         -2.725472781184         -0.000007429471
      0.2297283136D+00  0.1000000000D+01
 Atom C5       Shell    49 S   1     bf  129 -   129         -1.937500257031         -2.725472781184         -0.000007429471
      0.9516444003D-01  0.1000000000D+01
 Atom C5       Shell    50 P   4     bf  130 -   132         -1.937500257031         -2.725472781184         -0.000007429471
      0.3469723224D+02  0.1132722000D-01
      0.7958262283D+01  0.7616965920D-01
      0.2378082688D+01  0.3019225220D+00
      0.8143320818D+00  0.7278502735D+00
 Atom C5       Shell    51 P   1     bf  133 -   135         -1.937500257031         -2.725472781184         -0.000007429471
      0.2888754725D+00  0.1000000000D+01
 Atom C5       Shell    52 P   1     bf  136 -   138         -1.937500257031         -2.725472781184         -0.000007429471
      0.1005682367D+00  0.1000000000D+01
 Atom C5       Shell    53 D   1     bf  139 -   143         -1.937500257031         -2.725472781184         -0.000007429471
      0.1097000000D+01  0.1000000000D+01
 Atom C5       Shell    54 D   1     bf  144 -   148         -1.937500257031         -2.725472781184         -0.000007429471
      0.3180000000D+00  0.1000000000D+01
 Atom C5       Shell    55 F   1     bf  149 -   155         -1.937500257031         -2.725472781184         -0.000007429471
      0.7610000000D+00  0.1000000000D+01
 Atom C6       Shell    56 S   6     bf  156 -   156          2.764308433540         -2.611125313060         -0.000003650019
      0.1357534968D+05  0.6064550360D-03
      0.2035233368D+04  0.4697908888D-02
      0.4632256236D+03  0.2433247765D-01
      0.1312001960D+03  0.9739996831D-01
      0.4285301589D+02  0.3019558425D+00
      0.1558418577D+02  0.6623360914D+00
 Atom C6       Shell    57 S   2     bf  157 -   157          2.764308433540         -2.611125313060         -0.000003650019
      0.6206713851D+01  0.6559530854D+00
      0.2576489653D+01  0.3758563329D+00
 Atom C6       Shell    58 S   1     bf  158 -   158          2.764308433540         -2.611125313060         -0.000003650019
      0.5769633942D+00  0.1000000000D+01
 Atom C6       Shell    59 S   1     bf  159 -   159          2.764308433540         -2.611125313060         -0.000003650019
      0.2297283136D+00  0.1000000000D+01
 Atom C6       Shell    60 S   1     bf  160 -   160          2.764308433540         -2.611125313060         -0.000003650019
      0.9516444003D-01  0.1000000000D+01
 Atom C6       Shell    61 P   4     bf  161 -   163          2.764308433540         -2.611125313060         -0.000003650019
      0.3469723224D+02  0.1132722000D-01
      0.7958262283D+01  0.7616965920D-01
      0.2378082688D+01  0.3019225220D+00
      0.8143320818D+00  0.7278502735D+00
 Atom C6       Shell    62 P   1     bf  164 -   166          2.764308433540         -2.611125313060         -0.000003650019
      0.2888754725D+00  0.1000000000D+01
 Atom C6       Shell    63 P   1     bf  167 -   169          2.764308433540         -2.611125313060         -0.000003650019
      0.1005682367D+00  0.1000000000D+01
 Atom C6       Shell    64 D   1     bf  170 -   174          2.764308433540         -2.611125313060         -0.000003650019
      0.1097000000D+01  0.1000000000D+01
 Atom C6       Shell    65 D   1     bf  175 -   179          2.764308433540         -2.611125313060         -0.000003650019
      0.3180000000D+00  0.1000000000D+01
 Atom C6       Shell    66 F   1     bf  180 -   186          2.764308433540         -2.611125313060         -0.000003650019
      0.7610000000D+00  0.1000000000D+01
 Atom C7       Shell    67 S   6     bf  187 -   187         -4.245305742312          1.384010636435          0.000005798612
      0.1357534968D+05  0.6064550360D-03
      0.2035233368D+04  0.4697908888D-02
      0.4632256236D+03  0.2433247765D-01
      0.1312001960D+03  0.9739996831D-01
      0.4285301589D+02  0.3019558425D+00
      0.1558418577D+02  0.6623360914D+00
 Atom C7       Shell    68 S   2     bf  188 -   188         -4.245305742312          1.384010636435          0.000005798612
      0.6206713851D+01  0.6559530854D+00
      0.2576489653D+01  0.3758563329D+00
 Atom C7       Shell    69 S   1     bf  189 -   189         -4.245305742312          1.384010636435          0.000005798612
      0.5769633942D+00  0.1000000000D+01
 Atom C7       Shell    70 S   1     bf  190 -   190         -4.245305742312          1.384010636435          0.000005798612
      0.2297283136D+00  0.1000000000D+01
 Atom C7       Shell    71 S   1     bf  191 -   191         -4.245305742312          1.384010636435          0.000005798612
      0.9516444003D-01  0.1000000000D+01
 Atom C7       Shell    72 P   4     bf  192 -   194         -4.245305742312          1.384010636435          0.000005798612
      0.3469723224D+02  0.1132722000D-01
      0.7958262283D+01  0.7616965920D-01
      0.2378082688D+01  0.3019225220D+00
      0.8143320818D+00  0.7278502735D+00
 Atom C7       Shell    73 P   1     bf  195 -   197         -4.245305742312          1.384010636435          0.000005798612
      0.2888754725D+00  0.1000000000D+01
 Atom C7       Shell    74 P   1     bf  198 -   200         -4.245305742312          1.384010636435          0.000005798612
      0.1005682367D+00  0.1000000000D+01
 Atom C7       Shell    75 D   1     bf  201 -   205         -4.245305742312          1.384010636435          0.000005798612
      0.1097000000D+01  0.1000000000D+01
 Atom C7       Shell    76 D   1     bf  206 -   210         -4.245305742312          1.384010636435          0.000005798612
      0.3180000000D+00  0.1000000000D+01
 Atom C7       Shell    77 F   1     bf  211 -   217         -4.245305742312          1.384010636435          0.000005798612
      0.7610000000D+00  0.1000000000D+01
 Atom C8       Shell    78 S   6     bf  218 -   218         -2.014436918150          5.380995012883         -0.000014988376
      0.1357534968D+05  0.6064550360D-03
      0.2035233368D+04  0.4697908888D-02
      0.4632256236D+03  0.2433247765D-01
      0.1312001960D+03  0.9739996831D-01
      0.4285301589D+02  0.3019558425D+00
      0.1558418577D+02  0.6623360914D+00
 Atom C8       Shell    79 S   2     bf  219 -   219         -2.014436918150          5.380995012883         -0.000014988376
      0.6206713851D+01  0.6559530854D+00
      0.2576489653D+01  0.3758563329D+00
 Atom C8       Shell    80 S   1     bf  220 -   220         -2.014436918150          5.380995012883         -0.000014988376
      0.5769633942D+00  0.1000000000D+01
 Atom C8       Shell    81 S   1     bf  221 -   221         -2.014436918150          5.380995012883         -0.000014988376
      0.2297283136D+00  0.1000000000D+01
 Atom C8       Shell    82 S   1     bf  222 -   222         -2.014436918150          5.380995012883         -0.000014988376
      0.9516444003D-01  0.1000000000D+01
 Atom C8       Shell    83 P   4     bf  223 -   225         -2.014436918150          5.380995012883         -0.000014988376
      0.3469723224D+02  0.1132722000D-01
      0.7958262283D+01  0.7616965920D-01
      0.2378082688D+01  0.3019225220D+00
      0.8143320818D+00  0.7278502735D+00
 Atom C8       Shell    84 P   1     bf  226 -   228         -2.014436918150          5.380995012883         -0.000014988376
      0.2888754725D+00  0.1000000000D+01
 Atom C8       Shell    85 P   1     bf  229 -   231         -2.014436918150          5.380995012883         -0.000014988376
      0.1005682367D+00  0.1000000000D+01
 Atom C8       Shell    86 D   1     bf  232 -   236         -2.014436918150          5.380995012883         -0.000014988376
      0.1097000000D+01  0.1000000000D+01
 Atom C8       Shell    87 D   1     bf  237 -   241         -2.014436918150          5.380995012883         -0.000014988376
      0.3180000000D+00  0.1000000000D+01
 Atom C8       Shell    88 F   1     bf  242 -   248         -2.014436918150          5.380995012883         -0.000014988376
      0.7610000000D+00  0.1000000000D+01
 Atom C9       Shell    89 S   6     bf  249 -   249          5.090427014850          1.347329440097          0.000000129433
      0.1357534968D+05  0.6064550360D-03
      0.2035233368D+04  0.4697908888D-02
      0.4632256236D+03  0.2433247765D-01
      0.1312001960D+03  0.9739996831D-01
      0.4285301589D+02  0.3019558425D+00
      0.1558418577D+02  0.6623360914D+00
 Atom C9       Shell    90 S   2     bf  250 -   250          5.090427014850          1.347329440097          0.000000129433
      0.6206713851D+01  0.6559530854D+00
      0.2576489653D+01  0.3758563329D+00
 Atom C9       Shell    91 S   1     bf  251 -   251          5.090427014850          1.347329440097          0.000000129433
      0.5769633942D+00  0.1000000000D+01
 Atom C9       Shell    92 S   1     bf  252 -   252          5.090427014850          1.347329440097          0.000000129433
      0.2297283136D+00  0.1000000000D+01
 Atom C9       Shell    93 S   1     bf  253 -   253          5.090427014850          1.347329440097          0.000000129433
      0.9516444003D-01  0.1000000000D+01
 Atom C9       Shell    94 P   4     bf  254 -   256          5.090427014850          1.347329440097          0.000000129433
      0.3469723224D+02  0.1132722000D-01
      0.7958262283D+01  0.7616965920D-01
      0.2378082688D+01  0.3019225220D+00
      0.8143320818D+00  0.7278502735D+00
 Atom C9       Shell    95 P   1     bf  257 -   259          5.090427014850          1.347329440097          0.000000129433
      0.2888754725D+00  0.1000000000D+01
 Atom C9       Shell    96 P   1     bf  260 -   262          5.090427014850          1.347329440097          0.000000129433
      0.1005682367D+00  0.1000000000D+01
 Atom C9       Shell    97 D   1     bf  263 -   267          5.090427014850          1.347329440097          0.000000129433
      0.1097000000D+01  0.1000000000D+01
 Atom C9       Shell    98 D   1     bf  268 -   272          5.090427014850          1.347329440097          0.000000129433
      0.3180000000D+00  0.1000000000D+01
 Atom C9       Shell    99 F   1     bf  273 -   279          5.090427014850          1.347329440097          0.000000129433
      0.7610000000D+00  0.1000000000D+01
 Atom C10      Shell   100 S   6     bf  280 -   280         -4.245305659996         -1.384011070137          0.000007688338
      0.1357534968D+05  0.6064550360D-03
      0.2035233368D+04  0.4697908888D-02
      0.4632256236D+03  0.2433247765D-01
      0.1312001960D+03  0.9739996831D-01
      0.4285301589D+02  0.3019558425D+00
      0.1558418577D+02  0.6623360914D+00
 Atom C10      Shell   101 S   2     bf  281 -   281         -4.245305659996         -1.384011070137          0.000007688338
      0.6206713851D+01  0.6559530854D+00
      0.2576489653D+01  0.3758563329D+00
 Atom C10      Shell   102 S   1     bf  282 -   282         -4.245305659996         -1.384011070137          0.000007688338
      0.5769633942D+00  0.1000000000D+01
 Atom C10      Shell   103 S   1     bf  283 -   283         -4.245305659996         -1.384011070137          0.000007688338
      0.2297283136D+00  0.1000000000D+01
 Atom C10      Shell   104 S   1     bf  284 -   284         -4.245305659996         -1.384011070137          0.000007688338
      0.9516444003D-01  0.1000000000D+01
 Atom C10      Shell   105 P   4     bf  285 -   287         -4.245305659996         -1.384011070137          0.000007688338
      0.3469723224D+02  0.1132722000D-01
      0.7958262283D+01  0.7616965920D-01
      0.2378082688D+01  0.3019225220D+00
      0.8143320818D+00  0.7278502735D+00
 Atom C10      Shell   106 P   1     bf  288 -   290         -4.245305659996         -1.384011070137          0.000007688338
      0.2888754725D+00  0.1000000000D+01
 Atom C10      Shell   107 P   1     bf  291 -   293         -4.245305659996         -1.384011070137          0.000007688338
      0.1005682367D+00  0.1000000000D+01
 Atom C10      Shell   108 D   1     bf  294 -   298         -4.245305659996         -1.384011070137          0.000007688338
      0.1097000000D+01  0.1000000000D+01
 Atom C10      Shell   109 D   1     bf  299 -   303         -4.245305659996         -1.384011070137          0.000007688338
      0.3180000000D+00  0.1000000000D+01
 Atom C10      Shell   110 F   1     bf  304 -   310         -4.245305659996         -1.384011070137          0.000007688338
      0.7610000000D+00  0.1000000000D+01
 Atom C11      Shell   111 S   6     bf  311 -   311         -2.014436598108         -5.380995313901         -0.000018767828
      0.1357534968D+05  0.6064550360D-03
      0.2035233368D+04  0.4697908888D-02
      0.4632256236D+03  0.2433247765D-01
      0.1312001960D+03  0.9739996831D-01
      0.4285301589D+02  0.3019558425D+00
      0.1558418577D+02  0.6623360914D+00
 Atom C11      Shell   112 S   2     bf  312 -   312         -2.014436598108         -5.380995313901         -0.000018767828
      0.6206713851D+01  0.6559530854D+00
      0.2576489653D+01  0.3758563329D+00
 Atom C11      Shell   113 S   1     bf  313 -   313         -2.014436598108         -5.380995313901         -0.000018767828
      0.5769633942D+00  0.1000000000D+01
 Atom C11      Shell   114 S   1     bf  314 -   314         -2.014436598108         -5.380995313901         -0.000018767828
      0.2297283136D+00  0.1000000000D+01
 Atom C11      Shell   115 S   1     bf  315 -   315         -2.014436598108         -5.380995313901         -0.000018767828
      0.9516444003D-01  0.1000000000D+01
 Atom C11      Shell   116 P   4     bf  316 -   318         -2.014436598108         -5.380995313901         -0.000018767828
      0.3469723224D+02  0.1132722000D-01
      0.7958262283D+01  0.7616965920D-01
      0.2378082688D+01  0.3019225220D+00
      0.8143320818D+00  0.7278502735D+00
 Atom C11      Shell   117 P   1     bf  319 -   321         -2.014436598108         -5.380995313901         -0.000018767828
      0.2888754725D+00  0.1000000000D+01
 Atom C11      Shell   118 P   1     bf  322 -   324         -2.014436598108         -5.380995313901         -0.000018767828
      0.1005682367D+00  0.1000000000D+01
 Atom C11      Shell   119 D   1     bf  325 -   329         -2.014436598108         -5.380995313901         -0.000018767828
      0.1097000000D+01  0.1000000000D+01
 Atom C11      Shell   120 D   1     bf  330 -   334         -2.014436598108         -5.380995313901         -0.000018767828
      0.3180000000D+00  0.1000000000D+01
 Atom C11      Shell   121 F   1     bf  335 -   341         -2.014436598108         -5.380995313901         -0.000018767828
      0.7610000000D+00  0.1000000000D+01
 Atom C12      Shell   122 S   6     bf  342 -   342          5.090427094984         -1.347329318544          0.000000129433
      0.1357534968D+05  0.6064550360D-03
      0.2035233368D+04  0.4697908888D-02
      0.4632256236D+03  0.2433247765D-01
      0.1312001960D+03  0.9739996831D-01
      0.4285301589D+02  0.3019558425D+00
      0.1558418577D+02  0.6623360914D+00
 Atom C12      Shell   123 S   2     bf  343 -   343          5.090427094984         -1.347329318544          0.000000129433
      0.6206713851D+01  0.6559530854D+00
      0.2576489653D+01  0.3758563329D+00
 Atom C12      Shell   124 S   1     bf  344 -   344          5.090427094984         -1.347329318544          0.000000129433
      0.5769633942D+00  0.1000000000D+01
 Atom C12      Shell   125 S   1     bf  345 -   345          5.090427094984         -1.347329318544          0.000000129433
      0.2297283136D+00  0.1000000000D+01
 Atom C12      Shell   126 S   1     bf  346 -   346          5.090427094984         -1.347329318544          0.000000129433
      0.9516444003D-01  0.1000000000D+01
 Atom C12      Shell   127 P   4     bf  347 -   349          5.090427094984         -1.347329318544          0.000000129433
      0.3469723224D+02  0.1132722000D-01
      0.7958262283D+01  0.7616965920D-01
      0.2378082688D+01  0.3019225220D+00
      0.8143320818D+00  0.7278502735D+00
 Atom C12      Shell   128 P   1     bf  350 -   352          5.090427094984         -1.347329318544          0.000000129433
      0.2888754725D+00  0.1000000000D+01
 Atom C12      Shell   129 P   1     bf  353 -   355          5.090427094984         -1.347329318544          0.000000129433
      0.1005682367D+00  0.1000000000D+01
 Atom C12      Shell   130 D   1     bf  356 -   360          5.090427094984         -1.347329318544          0.000000129433
      0.1097000000D+01  0.1000000000D+01
 Atom C12      Shell   131 D   1     bf  361 -   365          5.090427094984         -1.347329318544          0.000000129433
      0.3180000000D+00  0.1000000000D+01
 Atom C12      Shell   132 F   1     bf  366 -   372          5.090427094984         -1.347329318544          0.000000129433
      0.7610000000D+00  0.1000000000D+01
 Atom C13      Shell   133 S   6     bf  373 -   373         -6.514719470366          2.765957841295          0.000011467790
      0.1357534968D+05  0.6064550360D-03
      0.2035233368D+04  0.4697908888D-02
      0.4632256236D+03  0.2433247765D-01
      0.1312001960D+03  0.9739996831D-01
      0.4285301589D+02  0.3019558425D+00
      0.1558418577D+02  0.6623360914D+00
 Atom C13      Shell   134 S   2     bf  374 -   374         -6.514719470366          2.765957841295          0.000011467790
      0.6206713851D+01  0.6559530854D+00
      0.2576489653D+01  0.3758563329D+00
 Atom C13      Shell   135 S   1     bf  375 -   375         -6.514719470366          2.765957841295          0.000011467790
      0.5769633942D+00  0.1000000000D+01
 Atom C13      Shell   136 S   1     bf  376 -   376         -6.514719470366          2.765957841295          0.000011467790
      0.2297283136D+00  0.1000000000D+01
 Atom C13      Shell   137 S   1     bf  377 -   377         -6.514719470366          2.765957841295          0.000011467790
      0.9516444003D-01  0.1000000000D+01
 Atom C13      Shell   138 P   4     bf  378 -   380         -6.514719470366          2.765957841295          0.000011467790
      0.3469723224D+02  0.1132722000D-01
      0.7958262283D+01  0.7616965920D-01
      0.2378082688D+01  0.3019225220D+00
      0.8143320818D+00  0.7278502735D+00
 Atom C13      Shell   139 P   1     bf  381 -   383         -6.514719470366          2.765957841295          0.000011467790
      0.2888754725D+00  0.1000000000D+01
 Atom C13      Shell   140 P   1     bf  384 -   386         -6.514719470366          2.765957841295          0.000011467790
      0.1005682367D+00  0.1000000000D+01
 Atom C13      Shell   141 D   1     bf  387 -   391         -6.514719470366          2.765957841295          0.000011467790
      0.1097000000D+01  0.1000000000D+01
 Atom C13      Shell   142 D   1     bf  392 -   396         -6.514719470366          2.765957841295          0.000011467790
      0.3180000000D+00  0.1000000000D+01
 Atom C13      Shell   143 F   1     bf  397 -   403         -6.514719470366          2.765957841295          0.000011467790
      0.7610000000D+00  0.1000000000D+01
 Atom C14      Shell   144 S   6     bf  404 -   404         -4.263076884756          6.693371950779         -0.000009319197
      0.1357534968D+05  0.6064550360D-03
      0.2035233368D+04  0.4697908888D-02
      0.4632256236D+03  0.2433247765D-01
      0.1312001960D+03  0.9739996831D-01
      0.4285301589D+02  0.3019558425D+00
      0.1558418577D+02  0.6623360914D+00
 Atom C14      Shell   145 S   2     bf  405 -   405         -4.263076884756          6.693371950779         -0.000009319197
      0.6206713851D+01  0.6559530854D+00
      0.2576489653D+01  0.3758563329D+00
 Atom C14      Shell   146 S   1     bf  406 -   406         -4.263076884756          6.693371950779         -0.000009319197
      0.5769633942D+00  0.1000000000D+01
 Atom C14      Shell   147 S   1     bf  407 -   407         -4.263076884756          6.693371950779         -0.000009319197
      0.2297283136D+00  0.1000000000D+01
 Atom C14      Shell   148 S   1     bf  408 -   408         -4.263076884756          6.693371950779         -0.000009319197
      0.9516444003D-01  0.1000000000D+01
 Atom C14      Shell   149 P   4     bf  409 -   411         -4.263076884756          6.693371950779         -0.000009319197
      0.3469723224D+02  0.1132722000D-01
      0.7958262283D+01  0.7616965920D-01
      0.2378082688D+01  0.3019225220D+00
      0.8143320818D+00  0.7278502735D+00
 Atom C14      Shell   150 P   1     bf  412 -   414         -4.263076884756          6.693371950779         -0.000009319197
      0.2888754725D+00  0.1000000000D+01
 Atom C14      Shell   151 P   1     bf  415 -   417         -4.263076884756          6.693371950779         -0.000009319197
      0.1005682367D+00  0.1000000000D+01
 Atom C14      Shell   152 D   1     bf  418 -   422         -4.263076884756          6.693371950779         -0.000009319197
      0.1097000000D+01  0.1000000000D+01
 Atom C14      Shell   153 D   1     bf  423 -   427         -4.263076884756          6.693371950779         -0.000009319197
      0.3180000000D+00  0.1000000000D+01
 Atom C14      Shell   154 F   1     bf  428 -   434         -4.263076884756          6.693371950779         -0.000009319197
      0.7610000000D+00  0.1000000000D+01
 Atom C15      Shell   155 S   6     bf  435 -   435          7.437359118922          2.644726655601          0.000003908886
      0.1357534968D+05  0.6064550360D-03
      0.2035233368D+04  0.4697908888D-02
      0.4632256236D+03  0.2433247765D-01
      0.1312001960D+03  0.9739996831D-01
      0.4285301589D+02  0.3019558425D+00
      0.1558418577D+02  0.6623360914D+00
 Atom C15      Shell   156 S   2     bf  436 -   436          7.437359118922          2.644726655601          0.000003908886
[...]
 0.00001799,-0.00005208,0.,-0.00007272,-0.00000226,0.,0.00261525,-0.012
 62207,0.,-0.00003219,-0.00000999,0.,-0.00000930,-0.00004124,0.,-0.0029
 0848,0.00073244,0.,-0.00000127,0.00002939,0.,0.00002526,0.00002424,0.,
 -0.00020915,-0.33838234,0.00000013,-0.00000294,-0.00000921,0.,0.000000
 44,0.00003415,0.,-0.00014008,0.00063753,0.,-0.00002127,-0.00000728,0.,
 -0.00307620,-0.01166838,0.,-0.00003952,-0.00000689,0.,0.00317253,0.000
 69821,0.,-0.00091024,0.00041452,0.,-0.00021336,-0.00014327,0.,-0.00000
 562,0.00000909,0.,0.00000018,0.00002573,0.,-0.00000119,-0.00000230,0.,
 -0.00000713,0.00000925,0.,-0.00040986,0.35964840,0.,0.,-0.00011739,0.,
 0.,-0.00015600,0.,0.,0.00013890,0.,0.,-0.00271213,0.,0.,0.00004583,0.,
 0.,0.00004593,0.,0.,0.00000764,0.,0.,-0.00003875,0.,0.00000002,0.00301
 129,0.,0.,0.00000271,0.,0.,-0.00001088,0.,0.,0.00497147,0.,0.,-0.00001
 723,0.,0.,-0.00000389,0.00000001,0.00000013,-0.03657693,0.,0.,-0.00000
 053,0.,0.,-0.00000201,0.,0.,-0.00085597,0.,0.,-0.00000198,0.,-0.000000
 01,0.00398195,0.,0.,-0.00000582,0.,0.,0.00910981,0.,0.,0.00024203,0.,0
 .,0.00022524,0.,0.,0.00004242,0.,0.,-0.00000131,0.,0.,0.00000195,0.,0.
 ,0.00000721,-0.00000002,-0.00000015,0.02507102,-0.00059377,0.00128471,
 0.,-0.00006195,0.00020408,0.,-0.00010750,-0.00021812,0.,0.00006195,-0.
 00008423,0.,-0.00267376,-0.00402292,-0.00000002,-0.00032132,-0.0004348
 6,0.,-0.00018402,0.00188143,0.,0.00007478,0.00014124,0.,-0.00003708,-0
 .00002596,0.,-0.01881516,0.01504562,-0.00000007,0.00018817,-0.00093161
 ,0.,-0.00002009,0.00011518,0.,-0.00048737,0.00095902,0.,0.00007503,0.0
 0014135,0.,0.00001492,0.00001730,0.,-0.28118041,0.11963414,-0.00000080
 ,0.00172674,-0.00032534,-0.00000002,-0.00003885,-0.00005307,0.,0.00083
 441,-0.00004069,0.,-0.00003173,-0.00001606,0.,0.00336934,-0.00232980,0
 .,-0.00000453,-0.00000061,0.,-0.00004892,-0.00003570,0.,0.00003015,0.0
 0001479,0.,0.00000423,0.00000040,0.,-0.00004502,0.00011893,0.,0.002073
 19,0.00038985,0.,0.00008489,0.00005304,0.,-0.00000619,-0.00001116,0.,0
 .29518878,-0.00064975,0.00068231,0.,-0.00005349,0.00013949,0.,0.000055
 31,0.00014687,0.,0.00009871,-0.00004725,0.,-0.00321140,-0.00134221,0.,
 -0.00014046,-0.00025738,0.,0.00128265,-0.00046693,0.,0.00016721,0.0000
 7876,0.,-0.00004418,0.00001510,0.,-0.01255682,0.01302679,-0.00000004,-
 0.00096770,-0.00082221,0.,-0.00005694,0.00004420,0.,-0.00189737,-0.003
 20832,0.,0.00003430,-0.00000899,0.,0.00002686,-0.00000309,0.,0.1192659
 3,-0.12307142,0.00000043,-0.00101368,-0.00583865,0.00000002,-0.0000046
 6,-0.00001757,0.,0.00017676,0.00000448,0.,-0.00001182,0.00000962,0.,0.
 03030233,-0.01170143,0.00000010,-0.00000302,-0.00001249,0.,-0.00002873
 ,-0.00001245,0.,0.00000824,0.00001023,0.,0.00000781,0.00003523,0.,0.00
 005994,0.00005844,0.,-0.00038985,-0.00563101,0.,0.00003378,0.00002421,
 0.,-0.00000387,-0.00000187,0.,-0.13151539,0.13803772,0.,0.,0.00015486,
 0.,0.,-0.00010376,0.,0.,-0.00037977,0.,0.,0.00004775,-0.00000003,0.000
 00001,0.00690018,0.,0.,-0.00001446,0.,0.,-0.00193953,0.,0.,0.00019660,
 0.,0.,0.00000968,0.,0.00000004,0.00131875,0.,-0.00000002,-0.00110554,0
 .,0.,-0.00002512,0.,0.,-0.00117631,0.,0.,-0.00007608,0.,0.,-0.00000904
 ,-0.00000081,0.00000040,-0.03567042,0.,0.00000002,0.00860229,0.,0.,-0.
 00001403,0.,0.,-0.00012213,0.,0.,0.00000496,-0.00000004,0.00000003,0.0
 0332585,0.,0.,-0.00000690,0.,0.,-0.00001138,0.,0.,0.00001563,0.,0.,0.0
 0002728,0.,0.,-0.00103491,0.,0.,0.00228755,0.,0.,0.00009835,0.,0.,0.00
 000175,0.00000088,-0.00000048,0.02316330,0.00074374,-0.00118088,0.,-0.
 00034334,-0.00010030,0.,-0.00014773,0.00009373,0.,-0.00000133,-0.00014
 132,0.,-0.00446720,-0.00232572,-0.00000003,-0.00001462,0.00000419,0.,0
 .00014549,0.00016022,0.,0.00004573,-0.00001486,0.,0.00004602,-0.000028
 25,0.,-0.00149169,-0.00021782,0.,0.00440893,-0.02873556,0.00000006,0.0
 0002852,0.00007975,0.,-0.00006521,0.00000116,0.,-0.00002116,0.00001411
 ,0.,-0.00001937,0.00001406,0.,-0.00459177,0.00259226,-0.00000004,-0.06
 078978,0.00239497,-0.00000008,-0.00002958,-0.00003482,0.,0.00008491,0.
 00001030,0.,-0.00000334,-0.00002438,0.,0.00560422,0.02828676,-0.000000
 04,0.00000291,0.00002626,0.,-0.00004308,-0.00002575,0.,-0.00002440,0.0
 0000898,0.,-0.00000053,0.00000840,0.,0.00090419,0.00018283,0.00000001,
 0.00008489,-0.00003378,0.,0.00000830,0.00000334,0.,0.00000072,-0.00000
 050,0.,0.00000970,0.00135352,0.,0.05909664,0.00046844,-0.00057971,0.,-
 0.00028315,-0.00000024,0.,-0.00001766,0.00000262,0.,0.00002376,-0.0000
 7730,0.,-0.00279779,0.00081356,0.,-0.00002710,-0.00005870,0.,-0.000006
 99,0.00002217,0.,-0.00001100,-0.00000938,0.,-0.00001079,-0.00002101,0.
 ,-0.00003175,0.00068395,0.,0.00307555,-0.01144187,0.00000003,0.0000183
 4,0.00003311,0.,0.00006194,-0.00004238,0.,0.00000066,-0.00000961,0.,0.
 00000634,0.00002834,0.,0.00325795,0.00053307,0.00000002,0.00168922,-0.
 34240009,0.00000059,-0.00000724,-0.00004214,0.,-0.00001799,-0.00000092
 ,0.,-0.00003103,-0.00000834,0.,-0.00330156,-0.01099036,0.00000002,-0.0
 0001352,-0.00000128,0.,-0.00002604,-0.00002008,0.,0.00000489,-0.000013
 25,0.,-0.00000653,-0.00000377,0.,-0.00033889,0.00087839,-0.00000001,-0
 .00005304,0.00002421,0.,-0.00000334,-0.00001054,0.,0.00000025,-0.00000
 621,0.,-0.00016120,-0.00066387,0.,-0.00178732,0.36267927,0.,0.,0.00013
 021,0.,0.,-0.00033469,0.,0.,0.00007344,0.,0.,-0.00001497,-0.00000002,0
 .,0.00855658,0.,0.,0.00021598,0.,0.,-0.00097464,0.,0.,0.00008091,0.,0.
 ,0.00002567,0.,0.,-0.00109273,0.00000001,-0.00000004,0.00236087,0.,0.,
 -0.00005362,0.,0.,0.00003144,0.,0.,-0.00000421,0.,0.,-0.00000250,-0.00
 000004,0.00000002,0.00717769,-0.00000009,0.00000059,-0.03639976,0.,0.,
 0.00000589,0.,0.,-0.00007935,0.,0.,-0.00000136,0.00000002,0.00000009,0
 .00224236,0.,0.,-0.00000653,0.,0.,-0.00001870,0.,0.,-0.00004837,0.,0.,
 -0.00000280,0.00000002,0.,-0.00441476,0.,0.,0.00009835,0.,0.,0.0000161
 8,0.,0.,0.00000294,0.,0.,-0.00002389,0.00000009,-0.00000065,0.02574934
 ,0.00015786,-0.00052437,0.,0.00023943,0.00021400,0.,-0.00000721,-0.000
 08040,0.,0.00029604,0.00139092,0.,-0.00003009,-0.00002325,0.,0.0014311
 9,0.00156452,0.,-0.00002661,0.00006556,0.,0.00000457,0.00003620,0.,-0.
 00463502,0.00148027,0.,0.00001621,0.00002246,0.,-0.00005373,0.00008315
 ,0.,0.00407179,0.02739903,-0.00000001,0.00000697,-0.00002430,0.,-0.000
 02070,-0.00003463,0.,-0.00109715,-0.00003250,0.,0.00001661,-0.00001201
 ,0.,0.00001683,-0.00004870,0.,-0.05968971,0.00101692,0.00000001,-0.000
 01458,0.00001921,0.,-0.00449064,-0.00210498,0.,0.00001443,0.00000125,0
 .,0.00477223,-0.02903017,0.00000001,-0.00036217,0.00022223,0.,-0.00054
 136,-0.00090152,0.,-0.00001016,-0.00002854,0.,-0.00001359,-0.00004462,
 0.,-0.00000619,0.00000387,0.,0.00000072,-0.00000025,0.,0.00014147,0.00
 000310,0.,0.00000741,0.00000152,0.,-0.00000482,0.00000021,0.,0.0589028
 8,0.00042109,-0.00001882,0.,0.00010183,0.00031788,0.,-0.00004477,0.000
 09813,0.,-0.00075971,-0.00069540,0.,-0.00006670,-0.00008481,0.,-0.0017
 5054,0.00103681,0.,0.00003219,-0.00000999,0.,0.00000930,-0.00004124,0.
 ,0.00290848,0.00073244,0.,0.00001799,-0.00005208,0.,0.00007272,-0.0000
 0226,0.,-0.00261525,-0.01262207,0.,0.00000294,-0.00000921,0.,-0.000000
 44,0.00003415,0.,0.00014008,0.00063753,0.,0.00000127,0.00002939,0.,-0.
 00002526,0.00002424,0.,0.00020914,-0.33838234,0.00000011,0.00003952,-0
 .00000689,0.,-0.00317253,0.00069821,0.,0.00002127,-0.00000728,0.,0.003
 07619,-0.01166838,0.,0.00021336,-0.00014327,0.,0.00091024,0.00041452,0
 .,-0.00000018,0.00002573,0.,0.00000562,0.00000909,0.,0.00001116,-0.000
 00187,0.,0.00000050,-0.00000621,0.,-0.00000310,-0.00011082,0.,0.000001
 19,-0.00000230,0.,0.00000713,0.00000925,0.,0.00040986,0.35964840,0.,0.
 ,-0.00015600,0.,0.,-0.00011739,0.,0.,0.00004583,0.,0.,0.00004593,0.,0.
 ,0.00013890,0.,0.,-0.00271213,0.,0.,0.00000271,0.,0.,-0.00001088,0.,0.
 ,0.00497147,0.,0.,0.00000764,0.,0.,-0.00003875,0.,-0.00000001,0.003011
 29,0.,0.,-0.00000053,0.,0.,-0.00000201,0.,0.,-0.00085597,0.,0.,-0.0000
 1723,0.,0.,-0.00000389,0.00000001,0.00000011,-0.03657693,0.,0.,-0.0000
 0582,0.,0.,0.00910981,0.,0.,-0.00000198,0.,0.00000002,0.00398195,0.,0.
 ,0.00022524,0.,0.,0.00024203,0.,0.,-0.00000131,0.,0.,0.00004242,0.,0.,
 0.00000175,0.,0.,0.00000294,0.,0.,-0.00119950,0.,0.,0.00000195,0.,0.,0
 .00000721,-0.00000002,-0.00000012,0.02507102,-0.00007911,-0.00001339,0
 .,-0.00002141,0.00009458,0.,0.00026287,-0.00097326,0.,-0.00006394,-0.0
 0005222,0.,0.00009087,0.00003405,0.,0.00003027,0.00002340,0.,0.0017333
 5,-0.00072658,-0.00000001,-0.00324247,-0.00402907,-0.00000003,0.000027
 81,0.00005177,0.,0.00001520,-0.00008298,0.,0.00000189,-0.00001656,0.,-
 0.00002929,0.00000196,0.,0.00349973,-0.00253998,0.,-0.01766745,0.01656
 404,-0.00000002,0.00000786,0.00001133,0.,-0.00001996,0.00004306,0.,0.0
 0001381,0.00003793,0.,0.00001465,-0.00000315,0.,-0.27545185,0.12047030
 ,-0.00000033,-0.00001849,0.00000433,0.,-0.00002800,0.00001194,0.,-0.00
 001069,-0.00001125,0.,0.00007073,0.00006060,0.,-0.00000461,0.00000757,
 0.,-0.00101857,0.00073894,0.,-0.00000414,0.00000379,0.,0.00094966,0.00
 031562,0.00000001,0.00085160,-0.00033579,0.,0.00000742,-0.00000146,0.,
 -0.00002125,-0.00001101,0.,-0.00000130,0.00000653,0.,-0.00000084,0.000
 00540,0.,0.29010956,-0.00016963,-0.00005741,0.,-0.00008547,0.00015407,
 0.,-0.00077579,-0.00106458,0.,0.00003199,-0.00002107,0.,-0.00012411,-0
 .00046033,0.,0.00006252,0.00002481,0.,-0.00120294,-0.00536018,-0.00000
 002,-0.00335630,-0.00082693,-0.00000002,0.00000211,0.00006537,0.,0.001
 55618,0.00011191,0.,0.00014439,-0.00004248,0.,-0.00004601,-0.00002191,
 0.,0.02927433,-0.01047840,0.00000004,-0.01505093,0.01224950,-0.0000000
 2,0.00001879,-0.00001108,0.,0.00002150,-0.00000953,0.,0.00002719,-0.00
 003027,0.,0.00002087,0.00001130,0.,0.11979209,-0.12799310,0.00000012,0
 .00000013,0.00001825,0.,-0.00004990,0.00002908,0.,-0.00000408,-0.00001
 418,0.,0.00003604,0.00003552,0.,-0.00000676,0.00000022,0.,-0.00077694,
 0.00035628,0.,0.00000277,-0.00005981,0.,-0.00021516,0.00081504,0.,0.00
 058868,0.00070005,0.,0.00000279,0.00000364,0.,-0.00000784,-0.00001735,
 0.,-0.00000210,-0.00000693,0.,-0.00000260,-0.00000029,0.,-0.12970099,0
 .13192879,0.,0.,0.00006932,0.,0.,-0.00097450,0.,0.,-0.00110536,0.,0.,0
 .00002896,0.,0.,-0.00033658,0.,0.,0.00005492,0.,-0.00000002,0.00857173
 ,-0.00000003,-0.00000003,0.00718915,0.,0.,-0.00005483,0.,0.,0.00015366
 ,0.,0.,-0.00001698,0.,0.,-0.00000468,0.00000004,-0.00000002,0.00234130
 ,-0.00000007,0.00000005,0.00223725,0.,0.,0.00000250,0.,0.,0.00019138,0
 .,0.,0.00001159,0.,0.,0.00001061,-0.00000032,0.00000011,-0.03635521,0.
 ,0.,-0.00000581,0.,0.,-0.00005651,0.,0.,-0.00000194,0.,0.,0.00011495,0
 .,0.,-0.00000433,0.,0.,-0.00004536,0.,0.,0.00000093,0.,0.,-0.00441329,
 0.,0.,-0.00331101,0.,0.,0.00000261,0.,0.,-0.00003649,0.,0.,0.00000435,
 0.,0.,0.00000149,0.00000037,-0.00000012,0.02571844,-0.00007448,0.00024
 251,0.,-0.00046655,0.00015848,0.,0.00000935,-0.00015386,0.,-0.00045082
 ,-0.00115557,0.,0.00005451,0.00003579,0.,0.00030044,-0.00007644,0.,-0.
 00004721,0.00002460,0.,-0.00003227,0.00003104,0.,-0.00274573,0.0040996
 3,0.,-0.00000578,0.00003700,0.,-0.00002097,-0.00002942,0.,-0.00005053,
 0.00061052,0.,-0.00000958,0.00000673,0.,0.00000699,-0.00001527,0.,-0.0
 1906364,-0.01640369,0.00000002,-0.00000743,-0.00001714,0.,0.00001091,0
 .00000130,0.,0.00156589,0.00054859,0.,-0.00003237,0.00000465,0.,-0.273
 52178,-0.12063057,0.00000020,-0.00001500,0.00000632,0.,0.00388847,0.00
 264196,0.,0.00000887,0.00004325,0.,-0.00001475,-0.00003108,0.,0.000005
 86,-0.00001891,0.,0.00000445,0.00001213,0.,-0.00001028,0.00000127,0.,-
 0.00000502,0.00001013,0.,0.00085998,0.00034885,0.,-0.00000417,0.000002
 15,0.,-0.00000123,-0.00000583,0.,0.00004056,0.00016739,0.,-0.00000586,
 0.00000175,0.,0.28919132,0.00021195,-0.00029759,0.,0.00036910,0.000150
 01,0.,0.00001678,0.00008630,0.,0.00005455,0.00065610,0.,-0.00004183,-0
 .00000223,0.,-0.00051317,0.00008698,0.,0.00001210,0.00003443,0.,-0.000
 00400,-0.00002055,0.,0.00343206,-0.00144494,0.,-0.00000679,-0.00005214
 ,0.,0.00001621,0.00000579,0.,0.00117568,-0.00039359,0.,0.00002133,-0.0
 0000895,0.,-0.00002101,-0.00000136,0.,0.01572611,0.01200159,-0.0000000
 1,0.00001010,0.00002169,0.,-0.00002195,0.00000600,0.,0.00128838,-0.005
 80934,0.,0.00000328,0.00002159,0.,-0.12160760,-0.12897978,0.00000012,0
 .00000782,-0.00001944,0.,-0.02890816,-0.00966952,0.00000002,-0.0000169
 0,-0.00001072,0.,0.00007135,0.00004610,0.,0.00000192,0.00000325,0.,0.0
 0000362,0.00001051,0.,0.00000088,-0.00000246,0.,0.00000080,0.00000104,
 0.,-0.00033497,0.00082869,0.,-0.00000197,0.00000076,0.,0.00000088,-0.0
 0000106,0.,-0.00137363,-0.00068259,0.,-0.00000080,0.00000106,0.,0.1299
 6720,0.13255142,0.,0.,0.00010557,0.,0.,-0.00074607,0.,0.,-0.00003713,0
 .,0.,0.00018218,0.,0.,0.00006214,0.,0.,-0.00074634,0.,0.,0.00004042,0.
 ,0.,-0.00001606,0.,0.,0.00988344,0.,0.,-0.00001457,0.,0.,-0.00001272,0
 .,0.,-0.00094245,0.,0.,0.00000067,0.,0.,0.00000175,0.,0.,0.00353272,0.
 ,0.,-0.00000320,0.,0.,0.00000352,0.,0.,0.00537473,0.,0.,-0.00000409,0.
 00000020,0.00000012,-0.03717512,0.,0.,-0.00000421,0.00000001,0.,0.0020
 7465,0.,0.,0.00023852,0.,0.,0.00004958,0.,0.,-0.00000080,0.,0.,0.00000
 110,0.,0.,0.00000627,0.,0.,0.00000200,0.,0.,-0.00529468,0.,0.,0.000000
 01,0.,0.,0.00000251,0.,0.,0.00008080,0.,0.,0.00000097,-0.00000022,-0.0
 0000013,0.02578927,-0.00002141,-0.00009458,0.,-0.00007911,0.00001339,0
 .,0.00009087,-0.00003405,0.,0.00003027,-0.00002340,0.,0.00026287,0.000
 97326,0.,-0.00006394,0.00005222,0.,0.00001520,0.00008298,0.,0.00000189
 ,0.00001656,0.,-0.00002929,-0.00000196,0.,0.00173335,0.00072658,-0.000
 00002,-0.00324247,0.00402907,-0.00000004,0.00002781,-0.00005177,0.,-0.
 00001996,-0.00004306,0.,0.00001381,-0.00003793,0.,0.00001465,0.0000031
 5,0.,0.00349973,0.00253998,0.,-0.01766745,-0.01656403,-0.00000003,0.00
 000786,-0.00001133,0.,-0.00002800,-0.00001194,0.,-0.00001069,0.0000112
 5,0.,-0.27545186,-0.12047029,-0.00000048,-0.00001849,-0.00000433,0.,-0
 .00000461,-0.00000757,0.,0.00007073,-0.00006060,0.,-0.00000414,-0.0000
 0379,0.,-0.00101857,-0.00073894,0.,-0.00002125,0.00001101,0.,-0.000001
 30,-0.00000653,0.,-0.00000084,-0.00000540,0.,0.00094966,-0.00031562,0.
 00000001,0.00085160,0.00033579,0.00000001,0.00000742,0.00000146,0.,0.0
 0000716,-0.00000885,0.,-0.00000521,-0.00000252,0.,0.29010957,0.0000854
 7,0.00015407,0.,0.00016963,-0.00005741,0.,0.00012411,-0.00046033,0.,-0
 .00006252,0.00002481,0.,0.00077579,-0.00106458,0.,-0.00003199,-0.00002
 107,0.,-0.00155618,0.00011191,0.,-0.00014439,-0.00004248,0.,0.00004601
 ,-0.00002191,0.,0.00120294,-0.00536018,0.00000002,0.00335630,-0.000826
 93,0.00000002,-0.00000211,0.00006537,0.,-0.00002150,-0.00000953,0.,-0.
 00002719,-0.00003027,0.,-0.00002087,0.00001130,0.,-0.02927433,-0.01047
 840,-0.00000006,0.01505093,0.01224950,0.00000002,-0.00001879,-0.000011
 08,0.,0.00004990,0.00002908,0.,0.00000408,-0.00001418,0.,-0.11979208,-
 0.12799309,-0.00000019,-0.00000013,0.00001825,0.,0.00000676,0.00000022
 ,0.,-0.00003604,0.00003552,0.,-0.00000277,-0.00005981,0.,0.00077694,0.
 00035628,0.,0.00000784,-0.00001735,0.,0.00000210,-0.00000693,0.,0.0000
 0260,-0.00000029,0.,0.00021516,0.00081504,0.,-0.00058868,0.00070005,0.
 ,-0.00000279,0.00000364,0.,0.00000885,-0.00002856,0.,-0.00000227,-0.00
 000051,0.,0.12970098,0.13192878,0.,0.,-0.00097450,0.,0.,0.00006932,0.,
 0.,-0.00033658,0.,0.,0.00005492,0.,0.,-0.00110536,0.,0.,0.00002896,0.,
 0.,0.00015366,0.,0.,-0.00001698,0.,0.,-0.00000468,-0.00000001,0.000000
 02,0.00857173,-0.00000003,0.00000003,0.00718915,0.,0.,-0.00005483,0.,0
 .,0.00019138,0.,0.,0.00001159,0.,0.,0.00001061,0.00000004,0.00000001,0
 .00234130,-0.00000008,-0.00000006,0.00223725,0.,0.,0.00000250,0.,0.,-0
 .00005651,0.,0.,-0.00000194,-0.00000048,-0.00000018,-0.03635521,0.,0.,
 -0.00000581,0.,0.,-0.00000433,0.,0.,0.00011495,0.,0.,0.00000093,0.,0.,
 -0.00004536,0.,0.,-0.00003649,0.,0.,0.00000435,0.,0.,0.00000149,0.0000
 0001,0.,-0.00441329,0.00000001,0.,-0.00331101,0.,0.,0.00000261,0.,0.,0
 .00001567,0.,0.,0.00000111,0.00000053,0.00000020,0.02571844,-0.0004665
 5,-0.00015848,0.,-0.00007448,-0.00024251,0.,0.00005451,-0.00003579,0.,
 0.00030044,0.00007644,0.,0.00000935,0.00015386,0.,-0.00045082,0.001155
 57,0.,-0.00000578,-0.00003700,0.,-0.00002097,0.00002942,0.,-0.00005053
 ,-0.00061052,0.,-0.00004721,-0.00002460,0.,-0.00003227,-0.00003104,0.,
 -0.00274573,-0.00409963,0.,-0.00000743,0.00001714,0.,0.00001091,-0.000
 00130,0.,0.00156589,-0.00054859,0.,-0.00000958,-0.00000672,0.,0.000006
 99,0.00001527,0.,-0.01906364,0.01640369,0.,-0.00001500,-0.00000632,0.,
 0.00388848,-0.00264196,0.,-0.00003237,-0.00000465,0.,-0.27352177,0.120
 63057,0.00000010,-0.00001475,0.00003108,0.,0.00000887,-0.00004325,0.,0
 .00000445,-0.00001213,0.,0.00000586,0.00001891,0.,-0.00000417,-0.00000
 215,0.,-0.00000123,0.00000583,0.,0.00004056,-0.00016739,0.,-0.00001028
 ,-0.00000127,0.,-0.00000502,-0.00001013,0.,0.00085998,-0.00034885,0.,-
 0.00000521,0.00000227,0.,0.00064307,0.00046317,0.,-0.00000586,-0.00000
 175,0.,0.28919132,-0.00036910,0.00015001,0.,-0.00021195,-0.00029759,0.
 ,0.00004183,-0.00000223,0.,0.00051317,0.00008698,0.,-0.00001678,0.0000
 8630,0.,-0.00005455,0.00065610,0.,0.00000679,-0.00005214,0.,-0.0000162
 1,0.00000579,0.,-0.00117568,-0.00039359,0.,-0.00001210,0.00003443,0.,0
 .00000400,-0.00002055,0.,-0.00343206,-0.00144494,0.,-0.00001010,0.0000
 2169,0.,0.00002195,0.00000600,0.,-0.00128838,-0.00580934,0.,-0.0000213
 3,-0.00000895,0.,0.00002101,-0.00000136,0.,-0.01572611,0.01200159,0.,-
 0.00000782,-0.00001944,0.,0.02890816,-0.00966952,-0.00000001,-0.000003
 28,0.00002159,0.,0.12160760,-0.12897978,-0.00000004,-0.00007135,0.0000
 4610,0.,0.00001690,-0.00001072,0.,-0.00000362,0.00001051,0.,-0.0000019
 2,0.00000325,0.,0.00000197,0.00000076,0.,-0.00000088,-0.00000106,0.,0.
 00137363,-0.00068259,0.,-0.00000088,-0.00000246,0.,-0.00000080,0.00000
 104,0.,0.00033497,0.00082869,0.,0.00000252,-0.00000051,0.,-0.00046317,
 0.00088346,0.,0.00000080,0.00000106,0.,-0.12996720,0.13255143,0.,0.,-0
 .00074607,0.,0.,0.00010557,0.,0.,0.00006214,0.,0.,-0.00074634,0.,0.,-0
 .00003713,0.,0.,0.00018218,0.,0.,-0.00001457,0.,0.,-0.00001272,0.,0.,-
 0.00094245,0.,0.,0.00004042,0.,0.,-0.00001606,0.00000001,0.,0.00988344
 ,0.,0.,-0.00000320,0.,0.,0.00000352,0.,0.,0.00537473,0.,0.,0.00000067,
 0.,0.,0.00000175,0.00000002,-0.00000001,0.00353272,0.,0.,-0.00000421,-
 0.00000001,0.,0.00207465,0.,0.,-0.00000409,0.00000010,-0.00000004,-0.0
 3717512,0.,0.,0.00004958,0.,0.,0.00023852,0.,0.,0.00000110,0.,0.,-0.00
 000080,0.,0.,0.00000001,0.,0.,0.00000251,0.,0.,0.00008080,0.,0.,0.0000
 0627,0.,0.,0.00000200,0.,0.,-0.00529468,0.,0.,0.00000111,0.,0.,-0.0024
 3646,0.,0.,0.00000097,-0.00000012,0.00000004,0.02578927\\0.00000098,-0
 .00000089,0.,0.00000098,0.00000089,0.,-0.00000011,0.00000175,0.,-0.000
 00132,-0.00000144,0.,-0.00000011,-0.00000175,0.,-0.00000132,0.00000144
 ,0.,-0.00000048,0.00000109,0.,-0.00000024,-0.00000161,0.,0.00000127,0.
 00000038,0.,-0.00000048,-0.00000109,0.,-0.00000024,0.00000162,0.,0.000
 00127,-0.00000038,0.,0.00000085,-0.00000021,0.,-0.00000090,0.00000039,
 0.,-0.00000164,0.00000007,0.,0.00000085,0.00000021,0.,-0.00000090,-0.0
 0000039,0.,-0.00000164,-0.00000007,0.,-0.00000006,0.00000106,0.,0.0000
 0092,-0.00000181,0.,-0.00000006,-0.00000107,0.,0.00000092,0.00000181,0
 .,-0.00000005,0.00000014,0.,-0.00000005,-0.00000014,0.,0.00000005,0.00
 000028,0.,0.00000005,-0.00000028,0.,0.00000009,0.00000059,0.,0.0000003
 0,-0.00000009,0.,0.00000051,-0.00000012,0.,0.00000009,-0.00000059,0.,0
 .00000030,0.00000009,0.,0.00000051,0.00000012,0.,-0.00000004,-0.000000
 23,0.,-0.00000012,0.00000047,0.,-0.00000004,0.00000023,0.,-0.00000012,
 -0.00000047,0.\\\@


      SCIENCE SANS CONSCIENCE N'EST QUE RUINE DE L'AME.

                                                  -- RABELAIS
 Job cpu time:       1 days 23 hours 21 minutes 20.3 seconds.
 File lengths (MBytes):  RWF=   1723 Int=      0 D2E=      0 Chk=     43 Scr=      1
 Normal termination of Gaussian 09 at Sat Jul 10 00:02:28 2021.
