 Entering Gaussian System, Link 0=/home/minenky/programs/g09/g09
 Input=m1_00_103-29-70_C14H14_1_wB97XD.inp
 Output=m1_00_103-29-70_C14H14_1_wB97XD.out
 Initial command:
 /home/minenky/programs//g09/l1.exe "/home/minenky/tmp/Gau-4544.inp" -scrdir="/home/minenky/tmp/"
 Entering Link 1 = /home/minenky/programs//g09/l1.exe PID=      4546.
  
 Copyright (c) 1988,1990,1992,1993,1995,1998,2003,2009,2013,
            Gaussian, Inc.  All Rights Reserved.
  
 This is part of the Gaussian(R) 09 program.  It is based on
 the Gaussian(R) 03 system (copyright 2003, Gaussian, Inc.),
 the Gaussian(R) 98 system (copyright 1998, Gaussian, Inc.),
 the Gaussian(R) 94 system (copyright 1995, Gaussian, Inc.),
 the Gaussian 92(TM) system (copyright 1992, Gaussian, Inc.),
 the Gaussian 90(TM) system (copyright 1990, Gaussian, Inc.),
 the Gaussian 88(TM) system (copyright 1988, Gaussian, Inc.),
 the Gaussian 86(TM) system (copyright 1986, Carnegie Mellon
 University), and the Gaussian 82(TM) system (copyright 1983,
 Carnegie Mellon University). Gaussian is a federally registered
 trademark of Gaussian, Inc.
  
 This software contains proprietary and confidential information,
 including trade secrets, belonging to Gaussian, Inc.
  
 This software is provided under written license and may be
 used, copied, transmitted, or stored only in accord with that
 written license.
  
 The following legend is applicable only to US Government
 contracts under FAR:
  
                    RESTRICTED RIGHTS LEGEND
  
 Use, reproduction and disclosure by the US Government is
 subject to restrictions as set forth in subparagraphs (a)
 and (c) of the Commercial Computer Software - Restricted
 Rights clause in FAR 52.227-19.
  
 Gaussian, Inc.
 340 Quinnipiac St., Bldg. 40, Wallingford CT 06492
  
  
 ---------------------------------------------------------------
 Warning -- This program may not be used in any manner that
 competes with the business of Gaussian, Inc. or will provide
 assistance to any competitor of Gaussian, Inc.  The licensee
 of this program is prohibited from giving any competitor of
 Gaussian, Inc. access to this program.  By using this program,
 the user acknowledges that Gaussian, Inc. is engaged in the
 business of creating and licensing software in the field of
 computational chemistry and represents and warrants to the
 licensee that it is not a competitor of Gaussian, Inc. and that
 it will not use this program in any manner prohibited above.
 ---------------------------------------------------------------
  

 Cite this work as:
 Gaussian 09, Revision D.01,
 M. J. Frisch, G. W. Trucks, H. B. Schlegel, G. E. Scuseria, 
 M. A. Robb, J. R. Cheeseman, G. Scalmani, V. Barone, B. Mennucci, 
 G. A. Petersson, H. Nakatsuji, M. Caricato, X. Li, H. P. Hratchian, 
 A. F. Izmaylov, J. Bloino, G. Zheng, J. L. Sonnenberg, M. Hada, 
 M. Ehara, K. Toyota, R. Fukuda, J. Hasegawa, M. Ishida, T. Nakajima, 
 Y. Honda, O. Kitao, H. Nakai, T. Vreven, J. A. Montgomery, Jr., 
 J. E. Peralta, F. Ogliaro, M. Bearpark, J. J. Heyd, E. Brothers, 
 K. N. Kudin, V. N. Staroverov, T. Keith, R. Kobayashi, J. Normand, 
 K. Raghavachari, A. Rendell, J. C. Burant, S. S. Iyengar, J. Tomasi, 
 M. Cossi, N. Rega, J. M. Millam, M. Klene, J. E. Knox, J. B. Cross, 
 V. Bakken, C. Adamo, J. Jaramillo, R. Gomperts, R. E. Stratmann, 
 O. Yazyev, A. J. Austin, R. Cammi, C. Pomelli, J. W. Ochterski, 
 R. L. Martin, K. Morokuma, V. G. Zakrzewski, G. A. Voth, 
 P. Salvador, J. J. Dannenberg, S. Dapprich, A. D. Daniels, 
 O. Farkas, J. B. Foresman, J. V. Ortiz, J. Cioslowski, 
 and D. J. Fox, Gaussian, Inc., Wallingford CT, 2013.
 
 ******************************************
 Gaussian 09:  AM64L-G09RevD.01 24-Apr-2013
                28-Sep-2023 
 ******************************************
 %chk=m1_00_103-29-70_C14H14_1_wB97XD
 %NProcLinda=1
 Will use up to    1 processors via Linda.
 %Nprocshared=16
 Will use up to   16 processors via shared memory.
 %mem=48000MB
 ----------------------------------------------------------------------
 #P wB97XD/def2tzvp opt=(tight) freq integral(Grid=ultrafine) # SCF(Max
 Cycle=380) 5d 7f GFPrint
 ----------------------------------------------------------------------
 1/7=10,14=-1,18=20,19=15,26=4,38=1/1,3;
 2/9=110,12=2,17=6,18=5,40=1/2;
 3/5=44,7=101,8=11,11=2,16=1,24=100,25=1,30=1,71=1,74=-58,75=-5/1,2,3;
 4//1;
 5/5=2,7=380,38=5/2;
 6/7=2,8=2,9=2,10=2,28=1/1;
 7//1,2,3,16;
 1/7=10,14=-1,18=20,19=15,26=4/3(2);
 2/9=110/2;
 99//99;
 2/9=110/2;
 3/5=44,7=101,8=11,11=2,16=1,25=1,30=1,71=1,74=-58,75=-5/1,2,3;
 4/5=5,16=3,69=1/1;
 5/5=2,7=380,38=5/2;
 7//1,2,3,16;
 1/7=10,14=-1,18=20,19=15,26=4/3(-5);
 2/9=110/2;
 6/7=2,8=2,9=2,10=2,19=2,28=1/1;
 99/9=1/99;
 Leave Link    1 at Thu Sep 28 12:11:14 2023, MaxMem=  6291456000 cpu:         0.3
 (Enter /home/minenky/programs//g09/l101.exe)
 ---------------------------------------
 The PBEPBE optimization and frequencies
 ---------------------------------------
 Symbolic Z-matrix:
 Charge =  0 Multiplicity = 1
 C                     0.41294   0.63074  -0.1437 
 C                    -0.41288  -0.63064   0.14426 
 C                     1.87279   0.32718  -0.29844 
 C                    -1.87276  -0.32712   0.29873 
 C                     2.4042   -0.00408  -1.5414 
 C                     2.72106   0.32341   0.80496 
 C                     3.74432  -0.33129  -1.68002 
 C                     4.06202  -0.00297   0.67273 
 C                     4.57826  -0.33292  -0.57167 
 C                    -2.72008  -0.31989  -0.80541 
 C                    -2.40516   0.00066   1.54216 
 C                    -4.06105   0.00647  -0.6734 
 C                    -3.74532   0.32785   1.68057 
 C                    -4.57829   0.33295   0.57153 
 H                     0.2618    1.34522   0.6707 
 H                     0.02912   1.10418  -1.05206 
 H                    -0.02921  -1.10395   1.05274 
 H                    -0.26156  -1.34522  -0.67004 
 H                     1.75762   0.00026  -2.41345 
 H                     2.32409   0.58573   1.78075 
 H                    -2.32235  -0.57949  -1.78162 
 H                    -1.75933  -0.00639   2.41475 
 H                     4.14008  -0.58177  -2.65771 
 H                     4.70743   0.00446   1.54374 
 H                    -4.70571   0.00176  -1.54499 
 H                    -4.14186   0.57561   2.65865 
 H                     5.62678  -0.58535  -0.67803 
 H                    -5.62683   0.58537   0.6777 
 
 NAtoms=     28 NQM=       28 NQMF=       0 NMMI=      0 NMMIF=      0
                NMic=       0 NMicF=      0.
                    Isotopes and Nuclear Properties:
 (Nuclear quadrupole moments (NQMom) in fm**2, nuclear magnetic moments (NMagM)
  in nuclear magnetons)

  Atom         1           2           3           4           5           6           7           8           9          10
 IAtWgt=          12          12          12          12          12          12          12          12          12          12
 AtmWgt=  12.0000000  12.0000000  12.0000000  12.0000000  12.0000000  12.0000000  12.0000000  12.0000000  12.0000000  12.0000000
 NucSpn=           0           0           0           0           0           0           0           0           0           0
 AtZEff=   0.0000000   0.0000000   0.0000000   0.0000000   0.0000000   0.0000000   0.0000000   0.0000000   0.0000000   0.0000000
 NQMom=    0.0000000   0.0000000   0.0000000   0.0000000   0.0000000   0.0000000   0.0000000   0.0000000   0.0000000   0.0000000
 NMagM=    0.0000000   0.0000000   0.0000000   0.0000000   0.0000000   0.0000000   0.0000000   0.0000000   0.0000000   0.0000000
 AtZNuc=   6.0000000   6.0000000   6.0000000   6.0000000   6.0000000   6.0000000   6.0000000   6.0000000   6.0000000   6.0000000

  Atom        11          12          13          14          15          16          17          18          19          20
 IAtWgt=          12          12          12          12           1           1           1           1           1           1
 AtmWgt=  12.0000000  12.0000000  12.0000000  12.0000000   1.0078250   1.0078250   1.0078250   1.0078250   1.0078250   1.0078250
 NucSpn=           0           0           0           0           1           1           1           1           1           1
 AtZEff=   0.0000000   0.0000000   0.0000000   0.0000000   0.0000000   0.0000000   0.0000000   0.0000000   0.0000000   0.0000000
 NQMom=    0.0000000   0.0000000   0.0000000   0.0000000   0.0000000   0.0000000   0.0000000   0.0000000   0.0000000   0.0000000
 NMagM=    0.0000000   0.0000000   0.0000000   0.0000000   2.7928460   2.7928460   2.7928460   2.7928460   2.7928460   2.7928460
 AtZNuc=   6.0000000   6.0000000   6.0000000   6.0000000   1.0000000   1.0000000   1.0000000   1.0000000   1.0000000   1.0000000

  Atom        21          22          23          24          25          26          27          28
 IAtWgt=           1           1           1           1           1           1           1           1
 AtmWgt=   1.0078250   1.0078250   1.0078250   1.0078250   1.0078250   1.0078250   1.0078250   1.0078250
 NucSpn=           1           1           1           1           1           1           1           1
 AtZEff=   0.0000000   0.0000000   0.0000000   0.0000000   0.0000000   0.0000000   0.0000000   0.0000000
 NQMom=    0.0000000   0.0000000   0.0000000   0.0000000   0.0000000   0.0000000   0.0000000   0.0000000
 NMagM=    2.7928460   2.7928460   2.7928460   2.7928460   2.7928460   2.7928460   2.7928460   2.7928460
 AtZNuc=   1.0000000   1.0000000   1.0000000   1.0000000   1.0000000   1.0000000   1.0000000   1.0000000
 Leave Link  101 at Thu Sep 28 12:11:14 2023, MaxMem=  6291456000 cpu:         4.4
 (Enter /home/minenky/programs//g09/l103.exe)

 GradGradGradGradGradGradGradGradGradGradGradGradGradGradGradGradGradGrad
 Berny optimization.
 Initialization pass.
                           ----------------------------
                           !    Initial Parameters    !
                           ! (Angstroms and Degrees)  !
 --------------------------                            --------------------------
 ! Name  Definition              Value          Derivative Info.                !
 --------------------------------------------------------------------------------
 ! R1    R(1,2)                  1.5349         estimate D2E/DX2                !
 ! R2    R(1,3)                  1.4991         estimate D2E/DX2                !
 ! R3    R(1,15)                 1.0939         estimate D2E/DX2                !
 ! R4    R(1,16)                 1.0939         estimate D2E/DX2                !
 ! R5    R(2,4)                  1.4991         estimate D2E/DX2                !
 ! R6    R(2,17)                 1.0939         estimate D2E/DX2                !
 ! R7    R(2,18)                 1.0939         estimate D2E/DX2                !
 ! R8    R(3,5)                  1.3918         estimate D2E/DX2                !
 ! R9    R(3,6)                  1.3918         estimate D2E/DX2                !
 ! R10   R(4,10)                 1.3918         estimate D2E/DX2                !
 ! R11   R(4,11)                 1.3918         estimate D2E/DX2                !
 ! R12   R(5,7)                  1.3864         estimate D2E/DX2                !
 ! R13   R(5,19)                 1.0856         estimate D2E/DX2                !
 ! R14   R(6,8)                  1.3864         estimate D2E/DX2                !
 ! R15   R(6,20)                 1.0856         estimate D2E/DX2                !
 ! R16   R(7,9)                  1.387          estimate D2E/DX2                !
 ! R17   R(7,23)                 1.0841         estimate D2E/DX2                !
 ! R18   R(8,9)                  1.3871         estimate D2E/DX2                !
 ! R19   R(8,24)                 1.0841         estimate D2E/DX2                !
 ! R20   R(9,27)                 1.0837         estimate D2E/DX2                !
 ! R21   R(10,12)                1.3864         estimate D2E/DX2                !
 ! R22   R(10,21)                1.0856         estimate D2E/DX2                !
 ! R23   R(11,13)                1.3864         estimate D2E/DX2                !
 ! R24   R(11,22)                1.0856         estimate D2E/DX2                !
 ! R25   R(12,14)                1.3871         estimate D2E/DX2                !
 ! R26   R(12,25)                1.0841         estimate D2E/DX2                !
 ! R27   R(13,14)                1.387          estimate D2E/DX2                !
 ! R28   R(13,26)                1.0841         estimate D2E/DX2                !
 ! R29   R(14,28)                1.0837         estimate D2E/DX2                !
 ! A1    A(2,1,3)              112.1417         estimate D2E/DX2                !
 ! A2    A(2,1,15)             108.8293         estimate D2E/DX2                !
 ! A3    A(2,1,16)             108.8251         estimate D2E/DX2                !
 ! A4    A(3,1,15)             110.1005         estimate D2E/DX2                !
 ! A5    A(3,1,16)             110.098          estimate D2E/DX2                !
 ! A6    A(15,1,16)            106.6818         estimate D2E/DX2                !
 ! A7    A(1,2,4)              112.1417         estimate D2E/DX2                !
 ! A8    A(1,2,17)             108.825          estimate D2E/DX2                !
 ! A9    A(1,2,18)             108.8295         estimate D2E/DX2                !
 ! A10   A(4,2,17)             110.0965         estimate D2E/DX2                !
 ! A11   A(4,2,18)             110.1017         estimate D2E/DX2                !
 ! A12   A(17,2,18)            106.6818         estimate D2E/DX2                !
 ! A13   A(1,3,5)              120.8111         estimate D2E/DX2                !
 ! A14   A(1,3,6)              120.8133         estimate D2E/DX2                !
 ! A15   A(5,3,6)              118.3373         estimate D2E/DX2                !
 ! A16   A(2,4,10)             120.8087         estimate D2E/DX2                !
 ! A17   A(2,4,11)             120.8158         estimate D2E/DX2                !
 ! A18   A(10,4,11)            118.3371         estimate D2E/DX2                !
 ! A19   A(3,5,7)              120.966          estimate D2E/DX2                !
 ! A20   A(3,5,19)             119.276          estimate D2E/DX2                !
 ! A21   A(7,5,19)             119.7571         estimate D2E/DX2                !
 ! A22   A(3,6,8)              120.9652         estimate D2E/DX2                !
 ! A23   A(3,6,20)             119.28           estimate D2E/DX2                !
 ! A24   A(8,6,20)             119.7539         estimate D2E/DX2                !
 ! A25   A(5,7,9)              120.1018         estimate D2E/DX2                !
 ! A26   A(5,7,23)             119.8393         estimate D2E/DX2                !
 ! A27   A(9,7,23)             120.0584         estimate D2E/DX2                !
 ! A28   A(6,8,9)              120.1022         estimate D2E/DX2                !
 ! A29   A(6,8,24)             119.84           estimate D2E/DX2                !
 ! A30   A(9,8,24)             120.0572         estimate D2E/DX2                !
 ! A31   A(7,9,8)              119.5273         estimate D2E/DX2                !
 ! A32   A(7,9,27)             120.2364         estimate D2E/DX2                !
 ! A33   A(8,9,27)             120.2356         estimate D2E/DX2                !
 ! A34   A(4,10,12)            120.9655         estimate D2E/DX2                !
 ! A35   A(4,10,21)            119.2805         estimate D2E/DX2                !
 ! A36   A(12,10,21)           119.7532         estimate D2E/DX2                !
 ! A37   A(4,11,13)            120.966          estimate D2E/DX2                !
 ! A38   A(4,11,22)            119.2756         estimate D2E/DX2                !
 ! A39   A(13,11,22)           119.7576         estimate D2E/DX2                !
 ! A40   A(10,12,14)           120.1021         estimate D2E/DX2                !
 ! A41   A(10,12,25)           119.8405         estimate D2E/DX2                !
 ! A42   A(14,12,25)           120.0568         estimate D2E/DX2                !
 ! A43   A(11,13,14)           120.1019         estimate D2E/DX2                !
 ! A44   A(11,13,26)           119.8388         estimate D2E/DX2                !
 ! A45   A(14,13,26)           120.0587         estimate D2E/DX2                !
 ! A46   A(12,14,13)           119.5272         estimate D2E/DX2                !
 ! A47   A(12,14,28)           120.2352         estimate D2E/DX2                !
 ! A48   A(13,14,28)           120.2368         estimate D2E/DX2                !
 ! D1    D(3,1,2,4)           -179.9889         estimate D2E/DX2                !
 ! D2    D(3,1,2,17)            57.962          estimate D2E/DX2                !
 ! D3    D(3,1,2,18)           -57.9302         estimate D2E/DX2                !
 ! D4    D(15,1,2,4)            57.9541         estimate D2E/DX2                !
 ! D5    D(15,1,2,17)          -64.095          estimate D2E/DX2                !
 ! D6    D(15,1,2,18)         -179.9872         estimate D2E/DX2                !
 ! D7    D(16,1,2,4)           -57.9381         estimate D2E/DX2                !
 ! D8    D(16,1,2,17)         -179.9871         estimate D2E/DX2                !
 ! D9    D(16,1,2,18)           64.1206         estimate D2E/DX2                !
 ! D10   D(2,1,3,5)             88.8713         estimate D2E/DX2                !
 ! D11   D(2,1,3,6)            -88.8402         estimate D2E/DX2                !
 ! D12   D(15,1,3,5)          -149.7993         estimate D2E/DX2                !
 ! D13   D(15,1,3,6)            32.4892         estimate D2E/DX2                !
 ! D14   D(16,1,3,5)           -32.4508         estimate D2E/DX2                !
 ! D15   D(16,1,3,6)           149.8377         estimate D2E/DX2                !
 ! D16   D(1,2,4,10)            88.6612         estimate D2E/DX2                !
 ! D17   D(1,2,4,11)           -89.0495         estimate D2E/DX2                !
 ! D18   D(17,2,4,10)         -150.0177         estimate D2E/DX2                !
 ! D19   D(17,2,4,11)           32.2716         estimate D2E/DX2                !
 ! D20   D(18,2,4,10)          -32.6693         estimate D2E/DX2                !
 ! D21   D(18,2,4,11)          149.62           estimate D2E/DX2                !
 ! D22   D(1,3,5,7)           -177.7083         estimate D2E/DX2                !
 ! D23   D(1,3,5,19)             2.6258         estimate D2E/DX2                !
 ! D24   D(6,3,5,7)              0.0587         estimate D2E/DX2                !
 ! D25   D(6,3,5,19)          -179.6072         estimate D2E/DX2                !
 ! D26   D(1,3,6,8)            177.7049         estimate D2E/DX2                !
 ! D27   D(1,3,6,20)            -2.6306         estimate D2E/DX2                !
 ! D28   D(5,3,6,8)             -0.062          estimate D2E/DX2                !
 ! D29   D(5,3,6,20)           179.6025         estimate D2E/DX2                !
 ! D30   D(2,4,10,12)         -177.7042         estimate D2E/DX2                !
 ! D31   D(2,4,10,21)            2.6322         estimate D2E/DX2                !
 ! D32   D(11,4,10,12)           0.062          estimate D2E/DX2                !
 ! D33   D(11,4,10,21)        -179.6015         estimate D2E/DX2                !
 ! D34   D(2,4,11,13)          177.7073         estimate D2E/DX2                !
 ! D35   D(2,4,11,22)           -2.6254         estimate D2E/DX2                !
 ! D36   D(10,4,11,13)          -0.0588         estimate D2E/DX2                !
 ! D37   D(10,4,11,22)         179.6085         estimate D2E/DX2                !
 ! D38   D(3,5,7,9)              0.0298         estimate D2E/DX2                !
 ! D39   D(3,5,7,23)          -179.7047         estimate D2E/DX2                !
 ! D40   D(19,5,7,9)           179.6942         estimate D2E/DX2                !
 ! D41   D(19,5,7,23)           -0.0403         estimate D2E/DX2                !
 ! D42   D(3,6,8,9)             -0.0231         estimate D2E/DX2                !
 ! D43   D(3,6,8,24)           179.7116         estimate D2E/DX2                !
 ! D44   D(20,6,8,9)          -179.6861         estimate D2E/DX2                !
 ! D45   D(20,6,8,24)            0.0486         estimate D2E/DX2                !
 ! D46   D(5,7,9,8)             -0.1157         estimate D2E/DX2                !
 ! D47   D(5,7,9,27)          -179.8107         estimate D2E/DX2                !
 ! D48   D(23,7,9,8)           179.6182         estimate D2E/DX2                !
 ! D49   D(23,7,9,27)           -0.0768         estimate D2E/DX2                !
 ! D50   D(6,8,9,7)              0.1123         estimate D2E/DX2                !
 ! D51   D(6,8,9,27)           179.8074         estimate D2E/DX2                !
 ! D52   D(24,8,9,7)          -179.6218         estimate D2E/DX2                !
 ! D53   D(24,8,9,27)            0.0733         estimate D2E/DX2                !
 ! D54   D(4,10,12,14)           0.0233         estimate D2E/DX2                !
 ! D55   D(4,10,12,25)        -179.7111         estimate D2E/DX2                !
 ! D56   D(21,10,12,14)        179.6853         estimate D2E/DX2                !
 ! D57   D(21,10,12,25)         -0.0491         estimate D2E/DX2                !
 ! D58   D(4,11,13,14)          -0.0297         estimate D2E/DX2                !
 ! D59   D(4,11,13,26)         179.7054         estimate D2E/DX2                !
 ! D60   D(22,11,13,14)       -179.6955         estimate D2E/DX2                !
 ! D61   D(22,11,13,26)          0.0396         estimate D2E/DX2                !
 ! D62   D(10,12,14,13)         -0.1126         estimate D2E/DX2                !
 ! D63   D(10,12,14,28)       -179.8075         estimate D2E/DX2                !
 ! D64   D(25,12,14,13)        179.6212         estimate D2E/DX2                !
 ! D65   D(25,12,14,28)         -0.0737         estimate D2E/DX2                !
 ! D66   D(11,13,14,12)          0.1158         estimate D2E/DX2                !
 ! D67   D(11,13,14,28)        179.8107         estimate D2E/DX2                !
 ! D68   D(26,13,14,12)       -179.6188         estimate D2E/DX2                !
 ! D69   D(26,13,14,28)          0.0761         estimate D2E/DX2                !
 --------------------------------------------------------------------------------
 Trust Radius=3.00D-01 FncErr=1.00D-07 GrdErr=1.00D-06
 Number of steps in this run=    156 maximum allowed number of steps=    168.
 GradGradGradGradGradGradGradGradGradGradGradGradGradGradGradGradGradGrad

 Leave Link  103 at Thu Sep 28 12:11:14 2023, MaxMem=  6291456000 cpu:         0.1
 (Enter /home/minenky/programs//g09/l202.exe)
                          Input orientation:                          
 ---------------------------------------------------------------------
 Center     Atomic      Atomic             Coordinates (Angstroms)
 Number     Number       Type             X           Y           Z
 ---------------------------------------------------------------------
      1          6           0        0.412943    0.630737   -0.143704
      2          6           0       -0.412883   -0.630640    0.144255
      3          6           0        1.872788    0.327175   -0.298442
      4          6           0       -1.872764   -0.327116    0.298730
      5          6           0        2.404202   -0.004083   -1.541396
      6          6           0        2.721057    0.323411    0.804963
      7          6           0        3.744318   -0.331285   -1.680016
      8          6           0        4.062016   -0.002967    0.672734
      9          6           0        4.578259   -0.332918   -0.571674
     10          6           0       -2.720084   -0.319893   -0.805411
     11          6           0       -2.405161    0.000663    1.542164
     12          6           0       -4.061048    0.006474   -0.673403
     13          6           0       -3.745322    0.327847    1.680570
     14          6           0       -4.578288    0.332950    0.571526
     15          1           0        0.261801    1.345222    0.670695
     16          1           0        0.029118    1.104181   -1.052063
     17          1           0       -0.029208   -1.103954    1.052736
     18          1           0       -0.261563   -1.345224   -0.670035
     19          1           0        1.757620    0.000261   -2.413448
     20          1           0        2.324092    0.585731    1.780754
     21          1           0       -2.322354   -0.579494   -1.781622
     22          1           0       -1.759332   -0.006389    2.414752
     23          1           0        4.140083   -0.581772   -2.657714
     24          1           0        4.707427    0.004464    1.543741
     25          1           0       -4.705709    0.001760   -1.544985
     26          1           0       -4.141859    0.575605    2.658651
     27          1           0        5.626782   -0.585354   -0.678028
     28          1           0       -5.626833    0.585374    0.677696
 ---------------------------------------------------------------------
                    Distance matrix (angstroms):
                    1          2          3          4          5
     1  C    0.000000
     2  C    1.534920   0.000000
     3  C    1.499080   2.517475   0.000000
     4  C    2.517476   1.499080   3.848879   0.000000
     5  C    2.514290   3.342149   1.391786   4.667210   0.000000
     6  C    2.514321   3.341905   1.391789   4.667189   2.390199
     7  C    3.792598   4.549714   2.417631   5.955423   1.386430
     8  C    3.792609   4.549504   2.417622   5.955381   2.765994
     9  C    4.296702   5.051009   2.798205   6.509480   2.403127
    10  C    3.340271   2.514280   4.665853   1.391808   5.186494
    11  C    3.343778   2.514332   4.668542   1.391766   5.712997
    12  C    4.548283   3.792570   5.954314   2.417625   6.523265
    13  C    4.550921   3.792639   5.956480   2.417629   6.950388
    14  C    5.051002   4.296704   6.509475   2.798207   7.302958
    15  H    1.093882   2.153223   2.137972   2.737050   3.362120
    16  H    1.093886   2.153171   2.137943   2.736861   2.666218
    17  H    2.153165   1.093879   2.737042   2.137920   3.722999
    18  H    2.153231   1.093890   2.736869   2.137994   3.108735
    19  H    2.712452   3.413351   2.143219   4.543432   1.085616
    20  H    2.712573   3.413022   2.143264   4.543488   3.375052
    21  H    3.410174   2.712508   4.541045   2.143290   4.767509
    22  H    3.416197   2.712521   4.545875   2.143194   5.743355
    23  H    4.656393   5.346299   3.396024   6.705202   2.143169
    24  H    4.656424   5.345979   3.396021   6.705141   3.850063
    25  H    5.344137   4.656374   6.703461   3.396030   7.109914
    26  H    5.348126   4.656445   6.706869   3.396016   7.799189
    27  H    5.380381   6.095552   3.881915   7.567294   3.386488
    28  H    6.095543   5.380383   7.567287   3.881918   8.352805
                    6          7          8          9         10
     6  C    0.000000
     7  C    2.766010   0.000000
     8  C    1.386426   2.396697   0.000000
     9  C    2.403143   1.387041   1.387057   0.000000
    10  C    5.710793   6.523309   6.948542   7.302096   0.000000
    11  C    5.189002   6.950448   6.525358   7.303954   2.390197
    12  C    6.948594   7.877251   8.233853   8.646569   1.386408
    13  C    6.525394   8.235454   7.879067   8.648191   2.766005
    14  C    7.303083   8.647336   8.647424   9.251629   2.403140
    15  H    2.666471   4.523764   4.032276   4.794939   3.720636
    16  H    3.362244   4.032071   4.523822   4.794863   3.105952
    17  H    3.108492   4.722759   4.253785   4.945903   3.362778
    18  H    3.722363   4.253847   4.722078   4.945535   2.667200
    19  H    3.375027   2.143552   3.851593   3.385136   4.768450
    20  H    1.085616   3.851609   2.143514   3.385130   5.740393
    21  H    5.739482   6.072598   6.864141   7.010224   1.085620
    22  H    4.772219   6.867521   6.076408   7.013588   3.375023
    23  H    3.850081   1.084097   3.381271   2.146040   7.110661
    24  H    2.143172   3.381259   1.084096   2.146041   7.796900
    25  H    7.796318   8.457666   9.043854   9.340846   2.143161
    26  H    7.113324   9.046451   8.460625   9.343494   3.850076
    27  H    3.386496   2.147604   2.147609   1.083714   8.352058
    28  H    8.352969   9.706572   9.706697  10.322213   3.386489
                   11         12         13         14         15
    11  C    0.000000
    12  C    2.765996   0.000000
    13  C    1.386448   2.396696   0.000000
    14  C    2.403130   1.387073   1.387025   0.000000
    15  H    3.111267   4.720791   4.255812   4.945805   0.000000
    16  H    3.724712   4.251800   4.724021   4.945607   1.755032
    17  H    2.665496   4.524195   4.031592   4.794829   2.495817
    18  H    3.361584   4.032764   4.523393   4.794982   3.051224
    19  H    5.742440   6.073277   6.866634   7.011739   3.682164
    20  H    4.771275   6.865016   6.075716   7.012060   2.462134
    21  H    3.375054   2.143494   3.851607   3.385129   4.049228
    22  H    1.085613   3.851592   2.143570   3.385136   2.992251
    23  H    7.798617   8.458255   9.045868   9.342093   5.461930
    24  H    7.112589   9.044439   8.460039   9.342249   4.724768
    25  H    3.850066   1.084096   3.381254   2.146053   5.602703
    26  H    2.143180   3.381276   1.084098   2.146029   4.892494
    27  H    8.353728   9.705892   9.707381  10.322215   5.859112
    28  H    3.386497   2.147621   2.147594   1.083714   5.937460
                   16         17         18         19         20
    16  H    0.000000
    17  H    3.051138   0.000000
    18  H    2.496002   1.755033   0.000000
    19  H    2.461651   4.052959   2.987795   0.000000
    20  H    3.682465   2.987150   4.052230   4.272587   0.000000
    21  H    2.982690   3.683363   2.463499   4.169114   5.969735
    22  H    4.055949   2.460298   3.681264   5.973317   4.174555
    23  H    4.724467   5.605631   4.889603   2.464662   4.935675
    24  H    5.462065   4.889314   5.604759   4.935658   2.464616
    25  H    4.886399   5.462639   4.725499   6.521415   7.798696
    26  H    5.607659   4.723746   5.461358   7.801350   6.525284
    27  H    5.859033   5.937568   5.937177   4.280776   4.280749
    28  H    5.937256   5.859001   5.859156   8.026685   8.027076
                   21         22         23         24         25
    21  H    0.000000
    22  H    4.272587   0.000000
    23  H    6.521552   7.801543   0.000000
    24  H    7.798517   6.525163   4.279927   0.000000
    25  H    2.464596   4.935658   8.934580   9.906935   0.000000
    26  H    4.935674   2.464678   9.909280   8.937510   4.279928
    27  H    8.025380   8.028398   2.475771   2.475754  10.385407
    28  H    4.280741   4.280784  10.386522  10.386743   2.475760
                   26         27         28
    26  H    0.000000
    27  H   10.387858   0.000000
    28  H    2.475768  11.395282   0.000000
 Stoichiometry    C14H14
 Framework group  C1[X(C14H14)]
 Deg. of freedom    78
 Full point group                 C1      NOp   1
 Largest Abelian subgroup         C1      NOp   1
 Largest concise Abelian subgroup C1      NOp   1
                         Standard orientation:                         
 ---------------------------------------------------------------------
 Center     Atomic      Atomic             Coordinates (Angstroms)
 Number     Number       Type             X           Y           Z
 ---------------------------------------------------------------------
      1          6           0       -0.413806    0.001087   -0.646335
      2          6           0        0.413807   -0.001511    0.646348
      3          6           0       -1.887846    0.000566   -0.373489
      4          6           0        1.887848   -0.000722    0.373503
      5          6           0       -2.584518    1.195388   -0.218196
      6          6           0       -2.584488   -1.194807   -0.222326
      7          6           0       -3.938316    1.198112    0.080821
      8          6           0       -3.938268   -1.198581    0.076747
      9          6           0       -4.620063   -0.000497    0.230615
     10          6           0        2.583532    1.194780    0.218809
     11          6           0        2.585479   -1.195414    0.221726
     12          6           0        3.937287    1.198774   -0.080284
     13          6           0        3.939293   -1.197920   -0.077302
     14          6           0        4.620060    0.000780   -0.230634
     15          1           0       -0.141384   -0.875203   -1.241718
     16          1           0       -0.141380    0.879825   -1.238104
     17          1           0        0.141549   -0.880366    1.238005
     18          1           0        0.141221    0.874662    1.241842
     19          1           0       -2.057530    2.136781   -0.339129
     20          1           0       -2.057556   -2.135799   -0.346574
     21          1           0        2.055848    2.135715    0.340302
     22          1           0        2.059245   -2.136867    0.345418
     23          1           0       -4.464040    2.139535    0.193091
     24          1           0       -4.463966   -2.140386    0.185878
     25          1           0        4.462228    2.140676   -0.192189
     26          1           0        4.465770   -2.139247   -0.186813
     27          1           0       -5.678936   -0.000915    0.461321
     28          1           0        5.678930    0.001383   -0.461353
 ---------------------------------------------------------------------
 Rotational constants (GHZ):      2.5023941      0.2725821      0.2518103
 Leave Link  202 at Thu Sep 28 12:11:14 2023, MaxMem=  6291456000 cpu:         0.0
 (Enter /home/minenky/programs//g09/l301.exe)
 Standard basis: def2TZVP (5D, 7F)
 ======================================================================================================
                                       Pseudopotential Parameters
 ======================================================================================================
  Center     Atomic      Valence      Angular      Power
  Number     Number     Electrons     Momentum     of R      Exponent        Coefficient   SO-Coeffient
 ======================================================================================================
    1          6
                                   No pseudopotential on this center.
    2          6
                                   No pseudopotential on this center.
    3          6
                                   No pseudopotential on this center.
    4          6
                                   No pseudopotential on this center.
    5          6
                                   No pseudopotential on this center.
    6          6
                                   No pseudopotential on this center.
    7          6
                                   No pseudopotential on this center.
    8          6
                                   No pseudopotential on this center.
    9          6
                                   No pseudopotential on this center.
   10          6
                                   No pseudopotential on this center.
   11          6
                                   No pseudopotential on this center.
   12          6
                                   No pseudopotential on this center.
   13          6
                                   No pseudopotential on this center.
   14          6
                                   No pseudopotential on this center.
   15          1
                                   No pseudopotential on this center.
   16          1
                                   No pseudopotential on this center.
   17          1
                                   No pseudopotential on this center.
   18          1
                                   No pseudopotential on this center.
   19          1
                                   No pseudopotential on this center.
   20          1
                                   No pseudopotential on this center.
   21          1
                                   No pseudopotential on this center.
   22          1
                                   No pseudopotential on this center.
   23          1
                                   No pseudopotential on this center.
   24          1
                                   No pseudopotential on this center.
   25          1
                                   No pseudopotential on this center.
   26          1
                                   No pseudopotential on this center.
   27          1
                                   No pseudopotential on this center.
   28          1
                                   No pseudopotential on this center.
 ======================================================================================================
 Ernie: Thresh=  0.10000D-02 Tol=  0.10000D-05 Strict=F.
 AO basis set (Overlap normalization):
 Atom C1       Shell     1 S   6     bf    1 -     1         -0.781979890655          0.002053762923         -1.221397045100
      0.1357534968D+05  0.6064550360D-03
      0.2035233368D+04  0.4697908888D-02
      0.4632256236D+03  0.2433247765D-01
      0.1312001960D+03  0.9739996831D-01
      0.4285301589D+02  0.3019558425D+00
      0.1558418577D+02  0.6623360914D+00
 Atom C1       Shell     2 S   2     bf    2 -     2         -0.781979890655          0.002053762923         -1.221397045100
      0.6206713851D+01  0.6559530854D+00
      0.2576489653D+01  0.3758563329D+00
 Atom C1       Shell     3 S   1     bf    3 -     3         -0.781979890655          0.002053762923         -1.221397045100
      0.5769633942D+00  0.1000000000D+01
 Atom C1       Shell     4 S   1     bf    4 -     4         -0.781979890655          0.002053762923         -1.221397045100
      0.2297283136D+00  0.1000000000D+01
 Atom C1       Shell     5 S   1     bf    5 -     5         -0.781979890655          0.002053762923         -1.221397045100
      0.9516444003D-01  0.1000000000D+01
 Atom C1       Shell     6 P   4     bf    6 -     8         -0.781979890655          0.002053762923         -1.221397045100
      0.3469723224D+02  0.1132722000D-01
      0.7958262283D+01  0.7616965920D-01
      0.2378082688D+01  0.3019225220D+00
      0.8143320818D+00  0.7278502735D+00
 Atom C1       Shell     7 P   1     bf    9 -    11         -0.781979890655          0.002053762923         -1.221397045100
      0.2888754725D+00  0.1000000000D+01
 Atom C1       Shell     8 P   1     bf   12 -    14         -0.781979890655          0.002053762923         -1.221397045100
      0.1005682367D+00  0.1000000000D+01
 Atom C1       Shell     9 D   1     bf   15 -    19         -0.781979890655          0.002053762923         -1.221397045100
      0.1097000000D+01  0.1000000000D+01
 Atom C1       Shell    10 D   1     bf   20 -    24         -0.781979890655          0.002053762923         -1.221397045100
      0.3180000000D+00  0.1000000000D+01
 Atom C1       Shell    11 F   1     bf   25 -    31         -0.781979890655          0.002053762923         -1.221397045100
      0.7610000000D+00  0.1000000000D+01
 Atom C2       Shell    12 S   6     bf   32 -    32          0.781982790255         -0.002855012945          1.221420436359
      0.1357534968D+05  0.6064550360D-03
      0.2035233368D+04  0.4697908888D-02
      0.4632256236D+03  0.2433247765D-01
      0.1312001960D+03  0.9739996831D-01
      0.4285301589D+02  0.3019558425D+00
      0.1558418577D+02  0.6623360914D+00
 Atom C2       Shell    13 S   2     bf   33 -    33          0.781982790255         -0.002855012945          1.221420436359
      0.6206713851D+01  0.6559530854D+00
      0.2576489653D+01  0.3758563329D+00
 Atom C2       Shell    14 S   1     bf   34 -    34          0.781982790255         -0.002855012945          1.221420436359
      0.5769633942D+00  0.1000000000D+01
 Atom C2       Shell    15 S   1     bf   35 -    35          0.781982790255         -0.002855012945          1.221420436359
      0.2297283136D+00  0.1000000000D+01
 Atom C2       Shell    16 S   1     bf   36 -    36          0.781982790255         -0.002855012945          1.221420436359
      0.9516444003D-01  0.1000000000D+01
 Atom C2       Shell    17 P   4     bf   37 -    39          0.781982790255         -0.002855012945          1.221420436359
      0.3469723224D+02  0.1132722000D-01
      0.7958262283D+01  0.7616965920D-01
      0.2378082688D+01  0.3019225220D+00
      0.8143320818D+00  0.7278502735D+00
 Atom C2       Shell    18 P   1     bf   40 -    42          0.781982790255         -0.002855012945          1.221420436359
      0.2888754725D+00  0.1000000000D+01
 Atom C2       Shell    19 P   1     bf   43 -    45          0.781982790255         -0.002855012945          1.221420436359
      0.1005682367D+00  0.1000000000D+01
 Atom C2       Shell    20 D   1     bf   46 -    50          0.781982790255         -0.002855012945          1.221420436359
      0.1097000000D+01  0.1000000000D+01
 Atom C2       Shell    21 D   1     bf   51 -    55          0.781982790255         -0.002855012945          1.221420436359
      0.3180000000D+00  0.1000000000D+01
 Atom C2       Shell    22 F   1     bf   56 -    62          0.781982790255         -0.002855012945          1.221420436359
      0.7610000000D+00  0.1000000000D+01
 Atom C3       Shell    23 S   6     bf   63 -    63         -3.567512864380          0.001069819829         -0.705791557972
      0.1357534968D+05  0.6064550360D-03
      0.2035233368D+04  0.4697908888D-02
      0.4632256236D+03  0.2433247765D-01
      0.1312001960D+03  0.9739996831D-01
      0.4285301589D+02  0.3019558425D+00
      0.1558418577D+02  0.6623360914D+00
 Atom C3       Shell    24 S   2     bf   64 -    64         -3.567512864380          0.001069819829         -0.705791557972
      0.6206713851D+01  0.6559530854D+00
      0.2576489653D+01  0.3758563329D+00
 Atom C3       Shell    25 S   1     bf   65 -    65         -3.567512864380          0.001069819829         -0.705791557972
      0.5769633942D+00  0.1000000000D+01
 Atom C3       Shell    26 S   1     bf   66 -    66         -3.567512864380          0.001069819829         -0.705791557972
      0.2297283136D+00  0.1000000000D+01
 Atom C3       Shell    27 S   1     bf   67 -    67         -3.567512864380          0.001069819829         -0.705791557972
      0.9516444003D-01  0.1000000000D+01
 Atom C3       Shell    28 P   4     bf   68 -    70         -3.567512864380          0.001069819829         -0.705791557972
      0.3469723224D+02  0.1132722000D-01
      0.7958262283D+01  0.7616965920D-01
      0.2378082688D+01  0.3019225220D+00
      0.8143320818D+00  0.7278502735D+00
 Atom C3       Shell    29 P   1     bf   71 -    73         -3.567512864380          0.001069819829         -0.705791557972
      0.2888754725D+00  0.1000000000D+01
 Atom C3       Shell    30 P   1     bf   74 -    76         -3.567512864380          0.001069819829         -0.705791557972
      0.1005682367D+00  0.1000000000D+01
 Atom C3       Shell    31 D   1     bf   77 -    81         -3.567512864380          0.001069819829         -0.705791557972
      0.1097000000D+01  0.1000000000D+01
 Atom C3       Shell    32 D   1     bf   82 -    86         -3.567512864380          0.001069819829         -0.705791557972
      0.3180000000D+00  0.1000000000D+01
 Atom C3       Shell    33 F   1     bf   87 -    93         -3.567512864380          0.001069819829         -0.705791557972
      0.7610000000D+00  0.1000000000D+01
 Atom C4       Shell    34 S   6     bf   94 -    94          3.567516609274         -0.001364335088          0.705818246026
      0.1357534968D+05  0.6064550360D-03
      0.2035233368D+04  0.4697908888D-02
      0.4632256236D+03  0.2433247765D-01
      0.1312001960D+03  0.9739996831D-01
      0.4285301589D+02  0.3019558425D+00
      0.1558418577D+02  0.6623360914D+00
 Atom C4       Shell    35 S   2     bf   95 -    95          3.567516609274         -0.001364335088          0.705818246026
      0.6206713851D+01  0.6559530854D+00
      0.2576489653D+01  0.3758563329D+00
 Atom C4       Shell    36 S   1     bf   96 -    96          3.567516609274         -0.001364335088          0.705818246026
      0.5769633942D+00  0.1000000000D+01
 Atom C4       Shell    37 S   1     bf   97 -    97          3.567516609274         -0.001364335088          0.705818246026
      0.2297283136D+00  0.1000000000D+01
 Atom C4       Shell    38 S   1     bf   98 -    98          3.567516609274         -0.001364335088          0.705818246026
      0.9516444003D-01  0.1000000000D+01
 Atom C4       Shell    39 P   4     bf   99 -   101          3.567516609274         -0.001364335088          0.705818246026
      0.3469723224D+02  0.1132722000D-01
      0.7958262283D+01  0.7616965920D-01
      0.2378082688D+01  0.3019225220D+00
      0.8143320818D+00  0.7278502735D+00
 Atom C4       Shell    40 P   1     bf  102 -   104          3.567516609274         -0.001364335088          0.705818246026
      0.2888754725D+00  0.1000000000D+01
 Atom C4       Shell    41 P   1     bf  105 -   107          3.567516609274         -0.001364335088          0.705818246026
      0.1005682367D+00  0.1000000000D+01
 Atom C4       Shell    42 D   1     bf  108 -   112          3.567516609274         -0.001364335088          0.705818246026
      0.1097000000D+01  0.1000000000D+01
 Atom C4       Shell    43 D   1     bf  113 -   117          3.567516609274         -0.001364335088          0.705818246026
      0.3180000000D+00  0.1000000000D+01
 Atom C4       Shell    44 F   1     bf  118 -   124          3.567516609274         -0.001364335088          0.705818246026
      0.7610000000D+00  0.1000000000D+01
 Atom C5       Shell    45 S   6     bf  125 -   125         -4.884031891860          2.258956299119         -0.412330436389
      0.1357534968D+05  0.6064550360D-03
      0.2035233368D+04  0.4697908888D-02
      0.4632256236D+03  0.2433247765D-01
      0.1312001960D+03  0.9739996831D-01
      0.4285301589D+02  0.3019558425D+00
      0.1558418577D+02  0.6623360914D+00
 Atom C5       Shell    46 S   2     bf  126 -   126         -4.884031891860          2.258956299119         -0.412330436389
      0.6206713851D+01  0.6559530854D+00
      0.2576489653D+01  0.3758563329D+00
 Atom C5       Shell    47 S   1     bf  127 -   127         -4.884031891860          2.258956299119         -0.412330436389
      0.5769633942D+00  0.1000000000D+01
 Atom C5       Shell    48 S   1     bf  128 -   128         -4.884031891860          2.258956299119         -0.412330436389
      0.2297283136D+00  0.1000000000D+01
 Atom C5       Shell    49 S   1     bf  129 -   129         -4.884031891860          2.258956299119         -0.412330436389
      0.9516444003D-01  0.1000000000D+01
 Atom C5       Shell    50 P   4     bf  130 -   132         -4.884031891860          2.258956299119         -0.412330436389
      0.3469723224D+02  0.1132722000D-01
      0.7958262283D+01  0.7616965920D-01
      0.2378082688D+01  0.3019225220D+00
      0.8143320818D+00  0.7278502735D+00
 Atom C5       Shell    51 P   1     bf  133 -   135         -4.884031891860          2.258956299119         -0.412330436389
      0.2888754725D+00  0.1000000000D+01
 Atom C5       Shell    52 P   1     bf  136 -   138         -4.884031891860          2.258956299119         -0.412330436389
      0.1005682367D+00  0.1000000000D+01
 Atom C5       Shell    53 D   1     bf  139 -   143         -4.884031891860          2.258956299119         -0.412330436389
      0.1097000000D+01  0.1000000000D+01
 Atom C5       Shell    54 D   1     bf  144 -   148         -4.884031891860          2.258956299119         -0.412330436389
      0.3180000000D+00  0.1000000000D+01
 Atom C5       Shell    55 F   1     bf  149 -   155         -4.884031891860          2.258956299119         -0.412330436389
      0.7610000000D+00  0.1000000000D+01
 Atom C6       Shell    56 S   6     bf  156 -   156         -4.883975357651         -2.257857960090         -0.420135126328
      0.1357534968D+05  0.6064550360D-03
      0.2035233368D+04  0.4697908888D-02
      0.4632256236D+03  0.2433247765D-01
      0.1312001960D+03  0.9739996831D-01
      0.4285301589D+02  0.3019558425D+00
      0.1558418577D+02  0.6623360914D+00
 Atom C6       Shell    57 S   2     bf  157 -   157         -4.883975357651         -2.257857960090         -0.420135126328
      0.6206713851D+01  0.6559530854D+00
      0.2576489653D+01  0.3758563329D+00
 Atom C6       Shell    58 S   1     bf  158 -   158         -4.883975357651         -2.257857960090         -0.420135126328
      0.5769633942D+00  0.1000000000D+01
 Atom C6       Shell    59 S   1     bf  159 -   159         -4.883975357651         -2.257857960090         -0.420135126328
      0.2297283136D+00  0.1000000000D+01
 Atom C6       Shell    60 S   1     bf  160 -   160         -4.883975357651         -2.257857960090         -0.420135126328
      0.9516444003D-01  0.1000000000D+01
 Atom C6       Shell    61 P   4     bf  161 -   163         -4.883975357651         -2.257857960090         -0.420135126328
      0.3469723224D+02  0.1132722000D-01
      0.7958262283D+01  0.7616965920D-01
      0.2378082688D+01  0.3019225220D+00
      0.8143320818D+00  0.7278502735D+00
 Atom C6       Shell    62 P   1     bf  164 -   166         -4.883975357651         -2.257857960090         -0.420135126328
      0.2888754725D+00  0.1000000000D+01
 Atom C6       Shell    63 P   1     bf  167 -   169         -4.883975357651         -2.257857960090         -0.420135126328
      0.1005682367D+00  0.1000000000D+01
 Atom C6       Shell    64 D   1     bf  170 -   174         -4.883975357651         -2.257857960090         -0.420135126328
      0.1097000000D+01  0.1000000000D+01
 Atom C6       Shell    65 D   1     bf  175 -   179         -4.883975357651         -2.257857960090         -0.420135126328
      0.3180000000D+00  0.1000000000D+01
 Atom C6       Shell    66 F   1     bf  180 -   186         -4.883975357651         -2.257857960090         -0.420135126328
      0.7610000000D+00  0.1000000000D+01
 Atom C7       Shell    67 S   6     bf  187 -   187         -7.442339390189          2.264104047504          0.152729420367
      0.1357534968D+05  0.6064550360D-03
      0.2035233368D+04  0.4697908888D-02
      0.4632256236D+03  0.2433247765D-01
      0.1312001960D+03  0.9739996831D-01
      0.4285301589D+02  0.3019558425D+00
      0.1558418577D+02  0.6623360914D+00
 Atom C7       Shell    68 S   2     bf  188 -   188         -7.442339390189          2.264104047504          0.152729420367
      0.6206713851D+01  0.6559530854D+00
      0.2576489653D+01  0.3758563329D+00
 Atom C7       Shell    69 S   1     bf  189 -   189         -7.442339390189          2.264104047504          0.152729420367
      0.5769633942D+00  0.1000000000D+01
 Atom C7       Shell    70 S   1     bf  190 -   190         -7.442339390189          2.264104047504          0.152729420367
      0.2297283136D+00  0.1000000000D+01
 Atom C7       Shell    71 S   1     bf  191 -   191         -7.442339390189          2.264104047504          0.152729420367
      0.9516444003D-01  0.1000000000D+01
 Atom C7       Shell    72 P   4     bf  192 -   194         -7.442339390189          2.264104047504          0.152729420367
      0.3469723224D+02  0.1132722000D-01
      0.7958262283D+01  0.7616965920D-01
      0.2378082688D+01  0.3019225220D+00
      0.8143320818D+00  0.7278502735D+00
 Atom C7       Shell    73 P   1     bf  195 -   197         -7.442339390189          2.264104047504          0.152729420367
      0.2888754725D+00  0.1000000000D+01
 Atom C7       Shell    74 P   1     bf  198 -   200         -7.442339390189          2.264104047504          0.152729420367
      0.1005682367D+00  0.1000000000D+01
 Atom C7       Shell    75 D   1     bf  201 -   205         -7.442339390189          2.264104047504          0.152729420367
      0.1097000000D+01  0.1000000000D+01
 Atom C7       Shell    76 D   1     bf  206 -   210         -7.442339390189          2.264104047504          0.152729420367
      0.3180000000D+00  0.1000000000D+01
 Atom C7       Shell    77 F   1     bf  211 -   217         -7.442339390189          2.264104047504          0.152729420367
      0.7610000000D+00  0.1000000000D+01
 Atom C8       Shell    78 S   6     bf  218 -   218         -7.442248061450         -2.264990670187          0.145030979971
      0.1357534968D+05  0.6064550360D-03
      0.2035233368D+04  0.4697908888D-02
      0.4632256236D+03  0.2433247765D-01
      0.1312001960D+03  0.9739996831D-01
      0.4285301589D+02  0.3019558425D+00
      0.1558418577D+02  0.6623360914D+00
 Atom C8       Shell    79 S   2     bf  219 -   219         -7.442248061450         -2.264990670187          0.145030979971
      0.6206713851D+01  0.6559530854D+00
      0.2576489653D+01  0.3758563329D+00
 Atom C8       Shell    80 S   1     bf  220 -   220         -7.442248061450         -2.264990670187          0.145030979971
      0.5769633942D+00  0.1000000000D+01
 Atom C8       Shell    81 S   1     bf  221 -   221         -7.442248061450         -2.264990670187          0.145030979971
      0.2297283136D+00  0.1000000000D+01
 Atom C8       Shell    82 S   1     bf  222 -   222         -7.442248061450         -2.264990670187          0.145030979971
      0.9516444003D-01  0.1000000000D+01
 Atom C8       Shell    83 P   4     bf  223 -   225         -7.442248061450         -2.264990670187          0.145030979971
      0.3469723224D+02  0.1132722000D-01
      0.7958262283D+01  0.7616965920D-01
      0.2378082688D+01  0.3019225220D+00
      0.8143320818D+00  0.7278502735D+00
 Atom C8       Shell    84 P   1     bf  226 -   228         -7.442248061450         -2.264990670187          0.145030979971
      0.2888754725D+00  0.1000000000D+01
 Atom C8       Shell    85 P   1     bf  229 -   231         -7.442248061450         -2.264990670187          0.145030979971
      0.1005682367D+00  0.1000000000D+01
 Atom C8       Shell    86 D   1     bf  232 -   236         -7.442248061450         -2.264990670187          0.145030979971
      0.1097000000D+01  0.1000000000D+01
 Atom C8       Shell    87 D   1     bf  237 -   241         -7.442248061450         -2.264990670187          0.145030979971
      0.3180000000D+00  0.1000000000D+01
 Atom C8       Shell    88 F   1     bf  242 -   248         -7.442248061450         -2.264990670187          0.145030979971
      0.7610000000D+00  0.1000000000D+01
 Atom C9       Shell    89 S   6     bf  249 -   249         -8.730654607910         -0.000939830924          0.435799042423
      0.1357534968D+05  0.6064550360D-03
      0.2035233368D+04  0.4697908888D-02
      0.4632256236D+03  0.2433247765D-01
      0.1312001960D+03  0.9739996831D-01
      0.4285301589D+02  0.3019558425D+00
      0.1558418577D+02  0.6623360914D+00
 Atom C9       Shell    90 S   2     bf  250 -   250         -8.730654607910         -0.000939830924          0.435799042423
      0.6206713851D+01  0.6559530854D+00
      0.2576489653D+01  0.3758563329D+00
 Atom C9       Shell    91 S   1     bf  251 -   251         -8.730654607910         -0.000939830924          0.435799042423
      0.5769633942D+00  0.1000000000D+01
 Atom C9       Shell    92 S   1     bf  252 -   252         -8.730654607910         -0.000939830924          0.435799042423
      0.2297283136D+00  0.1000000000D+01
 Atom C9       Shell    93 S   1     bf  253 -   253         -8.730654607910         -0.000939830924          0.435799042423
      0.9516444003D-01  0.1000000000D+01
 Atom C9       Shell    94 P   4     bf  254 -   256         -8.730654607910         -0.000939830924          0.435799042423
      0.3469723224D+02  0.1132722000D-01
      0.7958262283D+01  0.7616965920D-01
      0.2378082688D+01  0.3019225220D+00
      0.8143320818D+00  0.7278502735D+00
 Atom C9       Shell    95 P   1     bf  257 -   259         -8.730654607910         -0.000939830924          0.435799042423
      0.2888754725D+00  0.1000000000D+01
 Atom C9       Shell    96 P   1     bf  260 -   262         -8.730654607910         -0.000939830924          0.435799042423
      0.1005682367D+00  0.1000000000D+01
 Atom C9       Shell    97 D   1     bf  263 -   267         -8.730654607910         -0.000939830924          0.435799042423
      0.1097000000D+01  0.1000000000D+01
 Atom C9       Shell    98 D   1     bf  268 -   272         -8.730654607910         -0.000939830924          0.435799042423
      0.3180000000D+00  0.1000000000D+01
 Atom C9       Shell    99 F   1     bf  273 -   279         -8.730654607910         -0.000939830924          0.435799042423
      0.7610000000D+00  0.1000000000D+01
 Atom C10      Shell   100 S   6     bf  280 -   280          4.882167772506          2.257806938541          0.413488210987
      0.1357534968D+05  0.6064550360D-03
      0.2035233368D+04  0.4697908888D-02
      0.4632256236D+03  0.2433247765D-01
      0.1312001960D+03  0.9739996831D-01
      0.4285301589D+02  0.3019558425D+00
      0.1558418577D+02  0.6623360914D+00
 Atom C10      Shell   101 S   2     bf  281 -   281          4.882167772506          2.257806938541          0.413488210987
      0.6206713851D+01  0.6559530854D+00
      0.2576489653D+01  0.3758563329D+00
 Atom C10      Shell   102 S   1     bf  282 -   282          4.882167772506          2.257806938541          0.413488210987
      0.5769633942D+00  0.1000000000D+01
 Atom C10      Shell   103 S   1     bf  283 -   283          4.882167772506          2.257806938541          0.413488210987
      0.2297283136D+00  0.1000000000D+01
 Atom C10      Shell   104 S   1     bf  284 -   284          4.882167772506          2.257806938541          0.413488210987
      0.9516444003D-01  0.1000000000D+01
 Atom C10      Shell   105 P   4     bf  285 -   287          4.882167772506          2.257806938541          0.413488210987
      0.3469723224D+02  0.1132722000D-01
      0.7958262283D+01  0.7616965920D-01
      0.2378082688D+01  0.3019225220D+00
      0.8143320818D+00  0.7278502735D+00
 Atom C10      Shell   106 P   1     bf  288 -   290          4.882167772506          2.257806938541          0.413488210987
      0.2888754725D+00  0.1000000000D+01
 Atom C10      Shell   107 P   1     bf  291 -   293          4.882167772506          2.257806938541          0.413488210987
      0.1005682367D+00  0.1000000000D+01
 Atom C10      Shell   108 D   1     bf  294 -   298          4.882167772506          2.257806938541          0.413488210987
      0.1097000000D+01  0.1000000000D+01
 Atom C10      Shell   109 D   1     bf  299 -   303          4.882167772506          2.257806938541          0.413488210987
      0.3180000000D+00  0.1000000000D+01
 Atom C10      Shell   110 F   1     bf  304 -   310          4.882167772506          2.257806938541          0.413488210987
      0.7610000000D+00  0.1000000000D+01
 Atom C11      Shell   111 S   6     bf  311 -   311          4.885846564902         -2.259005665323          0.419002127681
      0.1357534968D+05  0.6064550360D-03
      0.2035233368D+04  0.4697908888D-02
      0.4632256236D+03  0.2433247765D-01
      0.1312001960D+03  0.9739996831D-01
      0.4285301589D+02  0.3019558425D+00
      0.1558418577D+02  0.6623360914D+00
 Atom C11      Shell   112 S   2     bf  312 -   312          4.885846564902         -2.259005665323          0.419002127681
      0.6206713851D+01  0.6559530854D+00
      0.2576489653D+01  0.3758563329D+00
 Atom C11      Shell   113 S   1     bf  313 -   313          4.885846564902         -2.259005665323          0.419002127681
      0.5769633942D+00  0.1000000000D+01
 Atom C11      Shell   114 S   1     bf  314 -   314          4.885846564902         -2.259005665323          0.419002127681
      0.2297283136D+00  0.1000000000D+01
 Atom C11      Shell   115 S   1     bf  315 -   315          4.885846564902         -2.259005665323          0.419002127681
      0.9516444003D-01  0.1000000000D+01
 Atom C11      Shell   116 P   4     bf  316 -   318          4.885846564902         -2.259005665323          0.419002127681
      0.3469723224D+02  0.1132722000D-01
      0.7958262283D+01  0.7616965920D-01
      0.2378082688D+01  0.3019225220D+00
      0.8143320818D+00  0.7278502735D+00
 Atom C11      Shell   117 P   1     bf  319 -   321          4.885846564902         -2.259005665323          0.419002127681
      0.2888754725D+00  0.1000000000D+01
 Atom C11      Shell   118 P   1     bf  322 -   324          4.885846564902         -2.259005665323          0.419002127681
      0.1005682367D+00  0.1000000000D+01
 Atom C11      Shell   119 D   1     bf  325 -   329          4.885846564902         -2.259005665323          0.419002127681
      0.1097000000D+01  0.1000000000D+01
 Atom C11      Shell   120 D   1     bf  330 -   334          4.885846564902         -2.259005665323          0.419002127681
      0.3180000000D+00  0.1000000000D+01
 Atom C11      Shell   121 F   1     bf  335 -   341          4.885846564902         -2.259005665323          0.419002127681
      0.7610000000D+00  0.1000000000D+01
 Atom C12      Shell   122 S   6     bf  342 -   342          7.440394786227          2.265353782204         -0.151714522637
      0.1357534968D+05  0.6064550360D-03
      0.2035233368D+04  0.4697908888D-02
      0.4632256236D+03  0.2433247765D-01
      0.1312001960D+03  0.9739996831D-01
      0.4285301589D+02  0.3019558425D+00
      0.1558418577D+02  0.6623360914D+00
 Atom C12      Shell   123 S   2     bf  343 -   343          7.440394786227          2.265353782204         -0.151714522637
      0.6206713851D+01  0.6559530854D+00
      0.2576489653D+01  0.3758563329D+00
 Atom C12      Shell   124 S   1     bf  344 -   344          7.440394786227          2.265353782204         -0.151714522637
      0.5769633942D+00  0.1000000000D+01
 Atom C12      Shell   125 S   1     bf  345 -   345          7.440394786227          2.265353782204         -0.151714522637
      0.2297283136D+00  0.1000000000D+01
 Atom C12      Shell   126 S   1     bf  346 -   346          7.440394786227          2.265353782204         -0.151714522637
      0.9516444003D-01  0.1000000000D+01
 Atom C12      Shell   127 P   4     bf  347 -   349          7.440394786227          2.265353782204         -0.151714522637
      0.3469723224D+02  0.1132722000D-01
      0.7958262283D+01  0.7616965920D-01
      0.2378082688D+01  0.3019225220D+00
      0.8143320818D+00  0.7278502735D+00
 Atom C12      Shell   128 P   1     bf  350 -   352          7.440394786227          2.265353782204         -0.151714522637
      0.2888754725D+00  0.1000000000D+01
 Atom C12      Shell   129 P   1     bf  353 -   355          7.440394786227          2.265353782204         -0.151714522637
      0.1005682367D+00  0.1000000000D+01
 Atom C12      Shell   130 D   1     bf  356 -   360          7.440394786227          2.265353782204         -0.151714522637
      0.1097000000D+01  0.1000000000D+01
 Atom C12      Shell   131 D   1     bf  361 -   365          7.440394786227          2.265353782204         -0.151714522637
      0.3180000000D+00  0.1000000000D+01
 Atom C12      Shell   132 F   1     bf  366 -   372          7.440394786227          2.265353782204         -0.151714522637
      0.7610000000D+00  0.1000000000D+01
 Atom C13      Shell   133 S   6     bf  373 -   373          7.444184723751         -2.263740458158         -0.146079096433
      0.1357534968D+05  0.6064550360D-03
      0.2035233368D+04  0.4697908888D-02
      0.4632256236D+03  0.2433247765D-01
      0.1312001960D+03  0.9739996831D-01
      0.4285301589D+02  0.3019558425D+00
      0.1558418577D+02  0.6623360914D+00
 Atom C13      Shell   134 S   2     bf  374 -   374          7.444184723751         -2.263740458158         -0.146079096433
      0.6206713851D+01  0.6559530854D+00
      0.2576489653D+01  0.3758563329D+00
 Atom C13      Shell   135 S   1     bf  375 -   375          7.444184723751         -2.263740458158         -0.146079096433
      0.5769633942D+00  0.1000000000D+01
 Atom C13      Shell   136 S   1     bf  376 -   376          7.444184723751         -2.263740458158         -0.146079096433
      0.2297283136D+00  0.1000000000D+01
 Atom C13      Shell   137 S   1     bf  377 -   377          7.444184723751         -2.263740458158         -0.146079096433
      0.9516444003D-01  0.1000000000D+01
 Atom C13      Shell   138 P   4     bf  378 -   380          7.444184723751         -2.263740458158         -0.146079096433
      0.3469723224D+02  0.1132722000D-01
      0.7958262283D+01  0.7616965920D-01
      0.2378082688D+01  0.3019225220D+00
      0.8143320818D+00  0.7278502735D+00
 Atom C13      Shell   139 P   1     bf  381 -   383          7.444184723751         -2.263740458158         -0.146079096433
      0.2888754725D+00  0.1000000000D+01
 Atom C13      Shell   140 P   1     bf  384 -   386          7.444184723751         -2.263740458158         -0.146079096433
      0.1005682367D+00  0.1000000000D+01
 Atom C13      Shell   141 D   1     bf  387 -   391          7.444184723751         -2.263740458158         -0.146079096433
      0.1097000000D+01  0.1000000000D+01
 Atom C13      Shell   142 D   1     bf  392 -   396          7.444184723751         -2.263740458158         -0.146079096433
      0.3180000000D+00  0.1000000000D+01
 Atom C13      Shell   143 F   1     bf  397 -   403          7.444184723751         -2.263740458158         -0.146079096433
      0.7610000000D+00  0.1000000000D+01
 Atom C14      Shell   144 S   6     bf  404 -   404          8.730648780888          0.001474500476         -0.435834326126
      0.1357534968D+05  0.6064550360D-03
      0.2035233368D+04  0.4697908888D-02
      0.4632256236D+03  0.2433247765D-01
      0.1312001960D+03  0.9739996831D-01
      0.4285301589D+02  0.3019558425D+00
      0.1558418577D+02  0.6623360914D+00
 Atom C14      Shell   145 S   2     bf  405 -   405          8.730648780888          0.001474500476         -0.435834326126
      0.6206713851D+01  0.6559530854D+00
      0.2576489653D+01  0.3758563329D+00
 Atom C14      Shell   146 S   1     bf  406 -   406          8.730648780888          0.001474500476         -0.435834326126
      0.5769633942D+00  0.1000000000D+01
 Atom C14      Shell   147 S   1     bf  407 -   407          8.730648780888          0.001474500476         -0.435834326126
      0.2297283136D+00  0.1000000000D+01
 Atom C14      Shell   148 S   1     bf  408 -   408          8.730648780888          0.001474500476         -0.435834326126
      0.9516444003D-01  0.1000000000D+01
 Atom C14      Shell   149 P   4     bf  409 -   411          8.730648780888          0.001474500476         -0.435834326126
      0.3469723224D+02  0.1132722000D-01
      0.7958262283D+01  0.7616965920D-01
      0.2378082688D+01  0.3019225220D+00
      0.8143320818D+00  0.7278502735D+00
 Atom C14      Shell   150 P   1     bf  412 -   414          8.730648780888          0.001474500476         -0.435834326126
      0.2888754725D+00  0.1000000000D+01
 Atom C14      Shell   151 P   1     bf  415 -   417          8.730648780888          0.001474500476         -0.435834326126
      0.1005682367D+00  0.1000000000D+01
 Atom C14      Shell   152 D   1     bf  418 -   422          8.730648780888          0.001474500476         -0.435834326126
      0.1097000000D+01  0.1000000000D+01
 Atom C14      Shell   153 D   1     bf  423 -   427          8.730648780888          0.001474500476         -0.435834326126
      0.3180000000D+00  0.1000000000D+01
 Atom C14      Shell   154 F   1     bf  428 -   434          8.730648780888          0.001474500476         -0.435834326126
      0.7610000000D+00  0.1000000000D+01
 Atom H15      Shell   155 S   3     bf  435 -   435         -0.267176955690         -1.653894856427         -2.346506534057
      0.3406134100D+02  0.2543930721D-01
      0.5123574600D+01  0.1900859489D+00
      0.1164662600D+01  0.8524411301D+00
 Atom H15      Shell   156 S   1     bf  436 -   436         -0.267176955690         -1.653894856427         -2.346506534057
      0.3272304100D+00  0.1000000000D+01
 Atom H15      Shell   157 S   1     bf  437 -   437         -0.267176955690         -1.653894856427         -2.346506534057
      0.1030724100D+00  0.1000000000D+01
 Atom H15      Shell   158 P   1     bf  438 -   440         -0.267176955690         -1.653894856427         -2.346506534057
      0.8000000000D+00  0.1000000000D+01
 Atom H16      Shell   159 S   3     bf  441 -   441         -0.267169015340          1.662627920501         -2.339678201674
      0.3406134100D+02  0.2543930721D-01
      0.5123574600D+01  0.1900859489D+00
      0.1164662600D+01  0.8524411301D+00
 Atom H16      Shell   160 S   1     bf  442 -   442         -0.267169015340          1.662627920501         -2.339678201674
      0.3272304100D+00  0.1000000000D+01
 Atom H16      Shell   161 S   1     bf  443 -   443         -0.267169015340          1.662627920501         -2.339678201674
      0.1030724100D+00  0.1000000000D+01
 Atom H16      Shell   162 P   1     bf  444 -   446         -0.267169015340          1.662627920501         -2.339678201674
      0.8000000000D+00  0.1000000000D+01
 Atom H17      Shell   163 S   3     bf  447 -   447          0.267488562459         -1.663651204559          2.339491148355
      0.3406134100D+02  0.2543930721D-01
      0.5123574600D+01  0.1900859489D+00
      0.1164662600D+01  0.8524411301D+00
 Atom H17      Shell   164 S   1     bf  448 -   448          0.267488562459         -1.663651204559          2.339491148355
      0.3272304100D+00  0.1000000000D+01
 Atom H17      Shell   165 S   1     bf  449 -   449          0.267488562459         -1.663651204559          2.339491148355
      0.1030724100D+00  0.1000000000D+01
 Atom H17      Shell   166 P   1     bf  450 -   452          0.267488562459         -1.663651204559          2.339491148355
      0.8000000000D+00  0.1000000000D+01
 Atom H18      Shell   167 S   3     bf  453 -   453          0.266869143608          1.652872076064          2.346741953629
      0.3406134100D+02  0.2543930721D-01
      0.5123574600D+01  0.1900859489D+00
      0.1164662600D+01  0.8524411301D+00
 Atom H18      Shell   168 S   1     bf  454 -   454          0.266869143608          1.652872076064          2.346741953629
      0.3272304100D+00  0.1000000000D+01
 Atom H18      Shell   169 S   1     bf  455 -   455          0.266869143608          1.652872076064          2.346741953629
      0.1030724100D+00  0.1000000000D+01
 Atom H18      Shell   170 P   1     bf  456 -   458          0.266869143608          1.652872076064          2.346741953629
      0.8000000000D+00  0.1000000000D+01
 Atom H19      Shell   171 S   3     bf  459 -   459         -3.888168073448          4.037930775341         -0.640860194980
      0.3406134100D+02  0.2543930721D-01
      0.5123574600D+01  0.1900859489D+00
      0.1164662600D+01  0.8524411301D+00
 Atom H19      Shell   172 S   1     bf  460 -   460         -3.888168073448          4.037930775341         -0.640860194980
      0.3272304100D+00  0.1000000000D+01
 Atom H19      Shell   173 S   1     bf  461 -   461         -3.888168073448          4.037930775341         -0.640860194980
      0.1030724100D+00  0.1000000000D+01
 Atom H19      Shell   174 P   1     bf  462 -   464         -3.888168073448          4.037930775341         -0.640860194980
      0.8000000000D+00  0.1000000000D+01
 Atom H20      Shell   175 S   3     bf  465 -   465         -3.888218247039         -4.036075477881         -0.654929191159
      0.3406134100D+02  0.2543930721D-01
      0.5123574600D+01  0.1900859489D+00
      0.1164662600D+01  0.8524411301D+00
 Atom H20      Shell   176 S   1     bf  466 -   466         -3.888218247039         -4.036075477881         -0.654929191159
      0.3272304100D+00  0.1000000000D+01
 Atom H20      Shell   177 S   1     bf  467 -   467         -3.888218247039         -4.036075477881         -0.654929191159
      0.1030724100D+00  0.1000000000D+01
 Atom H20      Shell   178 P   1     bf  468 -   470         -3.888218247039         -4.036075477881         -0.654929191159
      0.8000000000D+00  0.1000000000D+01
 Atom H21      Shell   179 S   3     bf  471 -   471          3.884990364408          4.035916911777          0.643077302743
      0.3406134100D+02  0.2543930721D-01
      0.5123574600D+01  0.1900859489D+00
      0.1164662600D+01  0.8524411301D+00
 Atom H21      Shell   180 S   1     bf  472 -   472          3.884990364408          4.035916911777          0.643077302743
      0.3272304100D+00  0.1000000000D+01
 Atom H21      Shell   181 S   1     bf  473 -   473          3.884990364408          4.035916911777          0.643077302743
      0.1030724100D+00  0.1000000000D+01
 Atom H21      Shell   182 P   1     bf  474 -   476          3.884990364408          4.035916911777          0.643077302743
      0.8000000000D+00  0.1000000000D+01
 Atom H22      Shell   183 S   3     bf  477 -   477          3.891409688956         -4.038093655306          0.652746221296
      0.3406134100D+02  0.2543930721D-01
      0.5123574600D+01  0.1900859489D+00
      0.1164662600D+01  0.8524411301D+00
 Atom H22      Shell   184 S   1     bf  478 -   478          3.891409688956         -4.038093655306          0.652746221296
      0.3272304100D+00  0.1000000000D+01
 Atom H22      Shell   185 S   1     bf  479 -   479          3.891409688956         -4.038093655306          0.652746221296
      0.1030724100D+00  0.1000000000D+01
 Atom H22      Shell   186 P   1     bf  480 -   482          3.891409688956         -4.038093655306          0.652746221296
      0.8000000000D+00  0.1000000000D+01
 Atom H23      Shell   187 S   3     bf  483 -   483         -8.435813725727          4.043135107892          0.364889965052
      0.3406134100D+02  0.2543930721D-01
      0.5123574600D+01  0.1900859489D+00
      0.1164662600D+01  0.8524411301D+00
 Atom H23      Shell   188 S   1     bf  484 -   484         -8.435813725727          4.043135107892          0.364889965052
      0.3272304100D+00  0.1000000000D+01
 Atom H23      Shell   189 S   1     bf  485 -   485         -8.435813725727          4.043135107892          0.364889965052
      0.1030724100D+00  0.1000000000D+01
 Atom H23      Shell   190 P   1     bf  486 -   488         -8.435813725727          4.043135107892          0.364889965052
      0.8000000000D+00  0.1000000000D+01
 Atom H24      Shell   191 S   3     bf  489 -   489         -8.435672998497         -4.044743491384          0.351258880033
      0.3406134100D+02  0.2543930721D-01
      0.5123574600D+01  0.1900859489D+00
      0.1164662600D+01  0.8524411301D+00
 Atom H24      Shell   192 S   1     bf  490 -   490         -8.435672998497         -4.044743491384          0.351258880033
      0.3272304100D+00  0.1000000000D+01
 Atom H24      Shell   193 S   1     bf  491 -   491         -8.435672998497         -4.044743491384          0.351258880033
      0.1030724100D+00  0.1000000000D+01
 Atom H24      Shell   194 P   1     bf  492 -   494         -8.435672998497         -4.044743491384          0.351258880033
      0.8000000000D+00  0.1000000000D+01
 Atom H25      Shell   195 S   3     bf  495 -   495          8.432389152267          4.045290932550         -0.363183683547
      0.3406134100D+02  0.2543930721D-01
      0.5123574600D+01  0.1900859489D+00
      0.1164662600D+01  0.8524411301D+00
 Atom H25      Shell   196 S   1     bf  496 -   496          8.432389152267          4.045290932550         -0.363183683547
      0.3272304100D+00  0.1000000000D+01
 Atom H25      Shell   197 S   1     bf  497 -   497          8.432389152267          4.045290932550         -0.363183683547
      0.1030724100D+00  0.1000000000D+01
 Atom H25      Shell   198 P   1     bf  498 -   500          8.432389152267          4.045290932550         -0.363183683547
      0.8000000000D+00  0.1000000000D+01
 Atom H26      Shell   199 S   3     bf  501 -   501          8.439082901605         -4.042591009499         -0.353025476006
      0.3406134100D+02  0.2543930721D-01
      0.5123574600D+01  0.1900859489D+00
      0.1164662600D+01  0.8524411301D+00
 Atom H26      Shell   200 S   1     bf  502 -   502          8.439082901605         -4.042591009499         -0.353025476006
      0.3272304100D+00  0.1000000000D+01
 Atom H26      Shell   201 S   1     bf  503 -   503          8.439082901605         -4.042591009499         -0.353025476006
      0.1030724100D+00  0.1000000000D+01
 Atom H26      Shell   202 P   1     bf  504 -   506          8.439082901605         -4.042591009499         -0.353025476006
      0.8000000000D+00  0.1000000000D+01
 Atom H27      Shell   203 S   3     bf  507 -   507        -10.731633002136         -0.001729120296          0.871769800279
      0.3406134100D+02  0.2543930721D-01
      0.5123574600D+01  0.1900859489D+00
      0.1164662600D+01  0.8524411301D+00
 Atom H27      Shell   204 S   1     bf  508 -   508        -10.731633002136         -0.001729120296          0.871769800279
      0.3272304100D+00  0.1000000000D+01
 Atom H27      Shell   205 S   1     bf  509 -   509        -10.731633002136         -0.001729120296          0.871769800279
      0.1030724100D+00  0.1000000000D+01
 Atom H27      Shell   206 P   1     bf  510 -   512        -10.731633002136         -0.001729120296          0.871769800279
      0.8000000000D+00  0.1000000000D+01
 Atom H28      Shell   207 S   3     bf  513 -   513         10.731622422339          0.002613783939         -0.871830106931
      0.3406134100D+02  0.2543930721D-01
      0.5123574600D+01  0.1900859489D+00
      0.1164662600D+01  0.8524411301D+00
 Atom H28      Shell   208 S   1     bf  514 -   514         10.731622422339          0.002613783939         -0.871830106931
      0.3272304100D+00  0.1000000000D+01
 Atom H28      Shell   209 S   1     bf  515 -   515         10.731622422339          0.002613783939         -0.871830106931
      0.1030724100D+00  0.1000000000D+01
 Atom H28      Shell   210 P   1     bf  516 -   518         10.731622422339          0.002613783939         -0.871830106931
      0.8000000000D+00  0.1000000000D+01
 There are   588 symmetry adapted cartesian basis functions of A   symmetry.
 There are   518 symmetry adapted basis functions of A   symmetry.
   518 basis functions,   826 primitive gaussians,   588 cartesian basis functions
    49 alpha electrons       49 beta electrons
       nuclear repulsion energy       768.7156050420 Hartrees.
 IExCor= 4639 DFT=T Ex+Corr=wB97XD ExCW=0 ScaHFX=  1.000000
 ScaDFX=  1.000000  1.000000  1.000000  1.000000 ScalE2=  1.000000  1.000000
 IRadAn=      5 IRanWt=     -1 IRanGd=            0 ICorTp=0 IEmpDi=121
  HFx wShort=  0.000000 wLong=  0.200000 cFull=  0.222036 cShort=  0.000000 cLong=  0.777964
  DFx wShort=  0.000000 wLong=  0.200000 cFull=  0.000000 cShort=  0.000000 cLong=  1.000000
 NAtoms=   28 NActive=   28 NUniq=   28 SFac= 1.00D+00 NAtFMM=   60 NAOKFM=F Big=F
 Integral buffers will be    131072 words long.
 Raffenetti 2 integral format.
 Two-electron integral symmetry is turned on.
 R6Disp:  Grimme-D2 Dispersion energy=       -0.0171937638 Hartrees.
 Nuclear repulsion after empirical dispersion term =      768.6984112783 Hartrees.
 Leave Link  301 at Thu Sep 28 12:11:14 2023, MaxMem=  6291456000 cpu:         0.4
 (Enter /home/minenky/programs//g09/l302.exe)
 NPDir=0 NMtPBC=     1 NCelOv=     1 NCel=       1 NClECP=     1 NCelD=      1
         NCelK=      1 NCelE2=     1 NClLst=     1 CellRange=     0.0.
 One-electron integrals computed using PRISM.
   1 Symmetry operations used in ECPInt.
 ECPInt:  NShTT=   22155 NPrTT=   66780 LenC2=   19758 LenP2D=   44252.
 LDataN:  DoStor=T MaxTD1= 6 Len=  172
 NBasis=   518 RedAO= T EigKep=  7.80D-06  NBF=   518
 NBsUse=   518 1.00D-06 EigRej= -1.00D+00 NBFU=   518
 Precomputing XC quadrature grid using
[...]
 00063280,-0.00238681,-0.00124302,0.00000853,0.00066847,-0.00087781,0.0
 0037967,0.00028715,0.00014395,-0.00104158,0.00221263,0.00012476,0.0000
 8718,0.00006819,-0.00012767,-0.00019281,-0.00000170,0.00002512,0.00022
 234,0.00035812,-0.00104356,0.00058909,0.00035882,-0.00003087,-0.000022
 92,0.00004396,-0.00000138,-0.00000211,0.00000673,-0.09644505,0.0694541
 8,0.30011917,0.00003502,0.00009531,0.00013220,0.00060000,-0.00118577,0
 .00116479,-0.00007759,0.00001621,-0.00005053,0.00924928,0.00042499,0.0
 0941016,0.00003166,0.00000133,0.00000493,0.00003617,0.00001785,0.00004
 570,0.00000279,-0.00000333,-0.00000389,-0.00001162,-0.00000028,-0.0000
 1979,0.00001627,-0.00000821,-0.00000515,0.00037538,0.00191665,0.002626
 18,-0.15584385,0.00533877,-0.13216538,-0.00054147,0.00008314,0.0009055
 6,-0.01302548,-0.00096130,-0.02675383,-0.00473445,0.00310813,0.0017208
 9,0.00002755,-0.00007423,-0.00005064,0.00002644,0.00000363,-0.00004563
 ,0.00019390,0.00023645,-0.00007844,0.00007441,-0.00003456,-0.00014244,
 -0.00000292,-0.00000030,0.00000414,-0.00000971,-0.00001413,-0.00003086
 ,0.00047114,-0.00000988,0.00055582,0.16329749,-0.00029558,0.00030910,0
 .00037651,-0.00184929,-0.00303539,-0.00019028,-0.00008234,-0.00022428,
 -0.00015376,-0.00370795,0.00365633,-0.00614585,0.00004140,-0.00001533,
 0.00000241,-0.00002819,-0.00000265,0.00007731,0.00000967,0.00001110,-0
 .00002184,0.00000169,-0.00000125,-0.00001863,-0.00000309,-0.00000624,0
 .00000192,0.00185279,0.00586819,-0.00249299,0.00521303,-0.03900395,-0.
 00232283,0.00018476,-0.00084827,-0.00010782,0.00412630,0.00289857,0.00
 653282,0.00295639,0.00685466,-0.00132588,-0.00016594,-0.00017021,-0.00
 001128,-0.00001752,-0.00003913,-0.00001683,0.00051649,-0.00018430,0.00
 052092,0.00032868,-0.00003791,0.00000247,-0.00000030,-0.00000041,0.000
 00428,-0.00001057,0.00002187,-0.00002293,-0.00025703,0.00021775,-0.000
 31185,-0.00773642,0.02835448,0.00038518,-0.00023480,-0.00018142,-0.001
 40038,0.00134943,0.00069072,0.00014647,0.00016799,0.00007686,-0.019483
 56,0.00085032,-0.01847545,-0.00005886,0.00000780,-0.00003011,-0.000009
 85,-0.00003802,-0.00008468,-0.00001602,-0.00000872,0.00002169,0.000021
 76,-0.00001341,0.00004055,-0.00001427,0.00000614,0.00001254,0.00310338
 ,-0.00241884,-0.00378343,-0.13220922,-0.00298955,-0.23793243,0.0011065
 7,-0.00012496,-0.00007254,0.00394454,-0.00042870,0.00594276,0.00090710
 ,-0.00111897,0.00185240,0.00016473,0.00026433,-0.00007549,-0.00010960,
 -0.00005582,0.00014585,0.00100575,-0.00056194,0.00010797,-0.00003245,-
 0.00010621,0.00046829,0.00000414,0.00000428,0.00000334,0.00004928,0.00
 003291,0.00004395,-0.00095249,-0.00002675,-0.00108577,0.14354469,0.004
 47048,0.25153993,0.00006629,0.00034047,0.00130910,-0.00006550,0.000150
 84,0.00001774,-0.00504384,0.00263290,-0.00057786,0.00003854,-0.0000890
 2,-0.00001442,-0.00568777,0.00675684,0.02931950,-0.00117733,-0.0000374
 1,-0.00078504,-0.09688277,0.02859282,0.09145377,-0.00133724,0.00136158
 ,-0.00377325,0.01126162,-0.00486660,-0.01815551,-0.00002412,0.00000389
 ,0.00003649,-0.00003108,-0.00000385,-0.00000286,-0.00000207,0.00000594
 ,-0.00000186,0.00001518,-0.00000281,-0.00000565,-0.00001838,0.00000323
 ,-0.00000708,-0.00042123,0.00006331,0.00009510,0.00002909,-0.00000129,
 -0.00005170,0.00000468,-0.00000338,0.00000557,-0.00000761,-0.00003700,
 -0.00001598,0.00060032,-0.00107012,-0.00024067,0.00001596,-0.00024936,
 0.00012715,0.00000467,-0.00000022,-0.00000138,0.00000561,0.00000398,-0
 .00001036,0.09775192,-0.00020797,0.00003305,-0.00037400,0.00001265,-0.
 00002739,0.00002889,0.00308653,0.00701314,-0.00103047,-0.00001745,0.00
 001391,0.00003237,0.00176422,0.00139819,-0.00682250,0.00000133,-0.0008
 2615,0.00041129,0.02857256,-0.05405087,-0.06179489,0.00124264,0.007223
 11,-0.00078811,0.00015336,0.00300229,0.00062555,0.00001936,-0.00000747
 ,-0.00000368,0.00000970,-0.00000083,0.00000085,-0.00000301,-0.00000466
 ,0.00000088,-0.00000244,0.00000150,0.00000211,0.00000786,-0.00000323,-
 0.00000076,0.00002554,-0.00007146,-0.00002099,0.00002112,-0.00002717,0
 .00004295,-0.00000076,-0.00000748,0.00001001,-0.00002267,0.00001337,0.
 00000057,-0.00098144,-0.00369474,0.00082255,-0.00024570,-0.00109033,0.
 00016965,-0.00000233,0.00000604,-0.00000331,-0.00000218,0.00000061,0.0
 0000308,-0.03243419,0.04462785,-0.00016062,-0.00000368,-0.00009995,0.0
 0004787,-0.00006442,-0.00002600,-0.00006164,-0.00091756,0.00217068,-0.
 00003757,0.00004532,-0.00000689,-0.00132505,-0.00006131,0.00077911,-0.
 00075869,0.00041099,0.00041875,0.09146683,-0.06190521,-0.28809071,-0.0
 0436657,-0.00068941,-0.00234346,0.01243775,-0.00613801,-0.01739572,0.0
 0001843,-0.00000108,-0.00001048,0.00002053,-0.00000024,-0.00000143,-0.
 00000111,-0.00000009,-0.00000144,-0.00000374,-0.00000041,0.00000359,0.
 00001167,-0.00000189,0.00000041,0.00008019,0.00000951,-0.00002258,0.00
 001676,0.00000797,0.00000049,-0.00000437,0.00000024,-0.00000725,-0.000
 00113,-0.00001013,0.00001270,0.00055178,0.00066064,0.00067202,0.000113
 54,0.00015298,-0.00007058,-0.00000699,-0.00000366,-0.00000210,-0.00000
 460,-0.00000185,0.00000708,-0.09845225,0.06802823,0.30428379,-0.000241
 42,-0.00003565,-0.00132582,-0.00008528,0.00015392,-0.00004497,-0.00459
 652,0.00290156,0.00162323,0.00005290,-0.00009274,0.00002616,-0.0006724
 2,0.00015997,0.00109215,-0.01262827,-0.00113033,-0.02666847,0.00054454
 ,0.00199616,0.00250911,-0.15882509,0.00405848,-0.13489973,0.01085902,0
 .00011110,0.01095024,-0.00003367,-0.00000155,0.00001249,-0.00003781,-0
 .00000497,-0.00002900,0.00001693,-0.00000141,0.00000262,-0.00000139,0.
 00000615,0.00000018,-0.00001866,0.00000619,0.00001090,0.00003564,0.000
 01068,0.00004251,-0.00044098,0.00004809,0.00000375,0.00000007,-0.00002
 708,0.00002796,0.00000380,-0.00000499,-0.00000706,-0.00003151,-0.00026
 805,-0.00005947,0.00060671,-0.00093213,0.00056865,0.00000941,0.0000070
 9,0.00000821,0.00000634,0.00000045,-0.00000118,0.00035841,0.00003879,0
 .00058242,0.16461131,-0.00005593,0.00012715,0.00038931,-0.00000663,-0.
 00002323,-0.00002824,0.00321409,0.00694859,-0.00122849,-0.00001676,-0.
 00000431,-0.00003019,0.00018881,-0.00096289,-0.00011280,0.00417601,0.0
 0308817,0.00638368,0.00206984,0.00674157,-0.00252229,0.00400746,-0.039
 20759,-0.00503833,-0.00515676,0.00308515,-0.00580009,0.00000449,-0.000
 00111,-0.00000235,0.00001488,-0.00000676,-0.00000001,-0.00000222,0.000
 00133,-0.00000114,-0.00000261,-0.00000476,0.00000070,0.00000519,-0.000
 00265,-0.00000006,0.00000410,-0.00003924,-0.00003630,0.00002495,-0.000
 06686,0.00003123,-0.00002053,0.00001765,0.00000312,-0.00000245,-0.0000
 0994,-0.00000871,-0.00026535,-0.00107969,0.00019355,-0.00110350,-0.003
 68510,0.00069978,-0.00000145,0.00000056,-0.00000132,-0.00000010,0.0000
 0726,0.00000072,-0.00021827,0.00009548,-0.00031918,-0.00594875,0.02857
 947,0.00022262,-0.00005775,0.00011365,-0.00003375,0.00002478,-0.000010
 38,0.00100094,-0.00123803,0.00178781,0.00002888,-0.00002324,-0.0000030
 3,0.00105644,-0.00010338,0.00005058,0.00393267,-0.00033519,0.00602965,
 0.00310869,-0.00262710,-0.00374367,-0.13490291,-0.00493759,-0.24099130
 ,-0.01960871,0.00093001,-0.01707596,-0.00001361,0.00000139,0.00000142,
 -0.00001582,0.00000216,0.00000250,0.00000077,0.00000133,0.00000201,0.0
 0000189,-0.00000072,-0.00000203,-0.00000836,0.00000156,0.00000010,-0.0
 0002815,0.00000082,0.00000601,0.00002710,-0.00000750,-0.00000741,0.000
 01023,0.00001663,0.00000073,0.00000216,0.00000175,-0.00000392,-0.00004
 674,0.00021108,-0.00003375,-0.00021235,0.00085053,0.00065603,0.0000044
 7,0.00000163,0.00000335,0.00000479,0.00000071,-0.00000499,-0.00093465,
 0.00002926,-0.00099511,0.14588008,0.00655748,0.25347243,-0.00008526,0.
 00015390,-0.00004497,-0.00024139,-0.00003553,-0.00132585,0.00005291,-0
 .00009273,0.00002615,-0.00459653,0.00290156,0.00162332,-0.00003781,-0.
 00000498,-0.00002899,-0.00003367,-0.00000155,0.00001249,-0.00000138,0.
 00000615,0.00000018,0.00001693,-0.00000141,0.00000262,-0.00001865,0.00
 000619,0.00001090,-0.01262761,-0.00112770,-0.02666902,-0.00067248,0.00
 015988,0.00109214,-0.15881762,0.00407206,-0.13489736,0.00054441,0.0019
 9605,0.00250939,0.01085922,0.00010998,0.01095098,0.00000380,-0.0000049
 9,-0.00000706,0.00000007,-0.00002708,0.00002797,-0.00044100,0.00004809
 ,0.00000375,0.00003564,0.00001068,0.00004251,0.00000634,0.00000045,-0.
 00000118,0.00000941,0.00000709,0.00000820,0.00060668,-0.00093225,0.000
 56856,-0.00003151,-0.00026806,-0.00005949,-0.00000903,0.00000380,0.000
 00510,-0.00000505,0.00000170,-0.00000291,0.16460319,-0.00000664,-0.000
 02325,-0.00002822,-0.00005594,0.00012713,0.00038931,-0.00001677,-0.000
 00432,-0.00003019,0.00321413,0.00694887,-0.00122795,0.00001488,-0.0000
 0676,0.,0.00000449,-0.00000111,-0.00000235,-0.00000261,-0.00000476,0.0
 0000070,-0.00000222,0.00000133,-0.00000114,0.00000519,-0.00000265,-0.0
 0000006,0.00417559,0.00308755,0.00638375,0.00018872,-0.00096287,-0.000
 11289,0.00402108,-0.03920667,-0.00501835,0.00206968,0.00674199,-0.0025
 2129,-0.00515486,0.00308559,-0.00579845,-0.00000245,-0.00000993,-0.000
 00872,-0.00002053,0.00001765,0.00000311,0.00002495,-0.00006688,0.00003
 121,0.00000411,-0.00003924,-0.00003631,-0.00000010,0.00000726,0.000000
 72,-0.00000145,0.00000056,-0.00000132,-0.00110355,-0.00368527,0.000699
 35,-0.00026537,-0.00107972,0.00019344,0.00000226,0.00000140,-0.0000018
 6,0.00000170,0.00000069,0.00000079,-0.00596353,0.02857834,-0.00003375,
 0.00002478,-0.00001039,0.00022260,-0.00005775,0.00011365,0.00002888,-0
 .00002324,-0.00000304,0.00100105,-0.00123749,0.00178765,-0.00001582,0.
 00000216,0.00000250,-0.00001362,0.00000139,0.00000143,0.00000189,-0.00
 000072,-0.00000203,0.00000077,0.00000133,0.00000201,-0.00000836,0.0000
 0156,0.00000010,0.00393253,-0.00033552,0.00602959,0.00105644,-0.000103
 48,0.00005061,-0.13490057,-0.00491765,-0.24100005,0.00310898,-0.002626
 10,-0.00374399,-0.01960837,0.00093207,-0.01707663,0.00000216,0.0000017
 5,-0.00000392,0.00001023,0.00001663,0.00000073,0.00002710,-0.00000750,
 -0.00000740,-0.00002815,0.00000081,0.00000601,0.00000479,0.00000071,-0
 .00000499,0.00000447,0.00000163,0.00000334,-0.00021245,0.00085011,0.00
 065619,-0.00004676,0.00021097,-0.00003372,-0.00000264,0.00000155,0.000
 00306,-0.00000291,0.00000079,-0.00000223,0.14587737,0.00653522,0.25348
 203,-0.00006553,0.00015085,0.00001774,0.00006625,0.00034034,0.00130911
 ,0.00003854,-0.00008903,-0.00001442,-0.00504378,0.00263307,-0.00057781
 ,-0.00003108,-0.00000385,-0.00000286,-0.00002412,0.00000390,0.00003649
 ,0.00001518,-0.00000282,-0.00000565,-0.00000208,0.00000595,-0.00000186
 ,-0.00001839,0.00000323,-0.00000709,-0.00117728,-0.00003735,-0.0007850
 9,-0.00568847,0.00675418,0.02931990,-0.00133699,0.00136203,-0.00377310
 ,-0.09688738,0.02858647,0.09146102,0.01126175,-0.00486480,-0.01815517,
 -0.00000761,-0.00003700,-0.00001598,0.00000468,-0.00000338,0.00000557,
 0.00002909,-0.00000130,-0.00005170,-0.00042122,0.00006331,0.00009509,0
 .00000561,0.00000398,-0.00001036,0.00000467,-0.00000023,-0.00000138,0.
 00001595,-0.00024939,0.00012713,0.00060029,-0.00107014,-0.00024077,-0.
 00000350,0.00000211,0.00000280,-0.00000903,0.00000226,-0.00000264,0.00
 035841,-0.00021818,-0.00093463,0.09775685,0.00001267,-0.00002737,0.000
 02889,-0.00020796,0.00003307,-0.00037400,-0.00001745,0.00001391,0.0000
 3237,0.00308668,0.00701316,-0.00102991,0.00000970,-0.00000083,0.000000
 85,0.00001936,-0.00000747,-0.00000368,-0.00000244,0.00000150,0.0000021
 1,-0.00000301,-0.00000466,0.00000088,0.00000786,-0.00000323,-0.0000007
 6,0.00000139,-0.00082623,0.00041119,0.00176461,0.00139879,-0.00682267,
 0.00124314,0.00722324,-0.00078717,0.02856617,-0.05403996,-0.06177307,0
 .00015213,0.00300290,0.00062758,-0.00002267,0.00001337,0.00000057,-0.0
 0000076,-0.00000749,0.00001001,0.00002111,-0.00002718,0.00004295,0.000
 02553,-0.00007144,-0.00002100,-0.00000218,0.00000061,0.00000308,-0.000
 00233,0.00000604,-0.00000331,-0.00024572,-0.00109036,0.00016955,-0.000
 98155,-0.00369481,0.00082211,0.00000211,-0.00000010,-0.00000214,0.0000
 0380,0.00000140,0.00000155,0.00003874,0.00009551,0.00002936,-0.0324274
 6,0.04461582,0.00004786,-0.00006442,-0.00002600,-0.00016063,-0.0000036
 6,-0.00009995,-0.00003757,0.00004532,-0.00000688,-0.00006155,-0.000917
 02,0.00217048,0.00002053,-0.00000024,-0.00000144,0.00001843,-0.0000010
 8,-0.00001048,-0.00000374,-0.00000041,0.00000359,-0.00000111,-0.000000
 10,-0.00000144,0.00001167,-0.00000189,0.00000041,-0.00075873,0.0004108
 9,0.00041878,-0.00132508,-0.00006105,0.00077924,-0.00436643,-0.0006884
 5,-0.00234382,0.09147408,-0.06188344,-0.28809665,0.01243852,-0.0061363
 7,-0.01739642,-0.00000114,-0.00001012,0.00001270,-0.00000437,0.0000002
 4,-0.00000725,0.00001676,0.00000797,0.00000050,0.00008018,0.00000951,-
 0.00002258,-0.00000460,-0.00000185,0.00000709,-0.00000699,-0.00000366,
 -0.00000210,0.00011352,0.00015288,-0.00007054,0.00055169,0.00066019,0.
 00067217,0.00000280,-0.00000214,-0.00000299,0.00000510,-0.00000186,0.0
 0000306,0.00058246,-0.00031910,-0.00099515,-0.09846022,0.06800404,0.30
 429053,-0.00005852,-0.00014425,0.00004497,-0.00001058,-0.00000224,0.00
 000160,0.00058558,-0.00044126,-0.00022899,0.00004143,-0.00002739,0.000
 00125,0.00009542,0.00105394,-0.00386485,0.00153067,0.00172605,0.002056
 31,-0.01359384,0.00442245,0.00514059,-0.00710687,0.00180169,-0.0018270
 7,-0.32293442,0.06844392,0.02592114,-0.00001925,-0.00000083,0.00000037
 ,-0.00002059,0.00000085,0.00000204,0.00000370,-0.00000184,0.00000485,0
 .00000199,-0.00000290,-0.00000339,-0.00001255,0.00000323,0.00000135,0.
 00000686,-0.00001461,0.00001146,0.00002663,-0.00002531,0.00000143,0.00
 000024,0.00001058,0.00000751,0.00000416,0.00001670,-0.00000965,-0.0007
 7791,0.00025342,0.00022229,-0.00046018,0.00012508,-0.00010414,0.000009
 27,0.00000594,0.00000513,0.00000674,0.00000341,-0.00000737,0.00056261,
 -0.00104418,-0.00017528,0.00052617,-0.00091421,0.00053240,-0.00000416,
 0.00000174,-0.00000353,-0.00000341,0.00000274,0.00000393,0.34160561,-0
 .00038508,-0.00084590,0.00018663,-0.00010979,0.00001759,0.00001223,-0.
 00027196,-0.00102306,-0.00003826,-0.00002510,-0.00004356,0.00001254,0.
 00111809,0.00728717,-0.00097595,0.00155377,0.00691262,-0.00258641,-0.0
 0062435,0.00249955,-0.00021471,0.00706628,0.00087108,0.00029721,0.0683
 6398,-0.05327614,-0.01023650,0.00000495,0.00000073,0.00000458,0.000001
 56,0.00000038,-0.00000865,0.00000080,0.00000073,-0.00000091,0.00000059
 ,0.00000123,0.00000207,0.00000035,-0.00000081,0.00000017,0.00002004,-0
 .00000619,-0.00013430,0.00007756,0.00002102,0.00013130,-0.00001223,-0.
 00001115,0.00000788,-0.00000702,-0.00000366,-0.00000096,0.00003577,0.0
 0014280,-0.00005235,0.00040972,0.00006027,-0.00003228,-0.00000134,0.00
 000048,-0.00000473,-0.00000075,0.00000114,0.00000603,-0.00090729,-0.00
 361873,0.00080757,-0.00105769,-0.00360135,0.00069621,0.00000120,0.0000
 0100,0.00000084,0.00000065,0.00000067,-0.00000131,-0.07525480,0.044611
 88,0.00007831,0.00015413,0.00009479,0.00001650,-0.00000227,-0.00000290
 ,-0.00025242,-0.00001541,-0.00152818,0.00000093,0.00001286,0.00002068,
 -0.00318321,-0.00116755,-0.00356351,0.00138962,-0.00240939,-0.00462414
 ,-0.02555309,0.00652903,0.00732203,0.02883647,-0.00641715,0.00246356,0
 .02593221,-0.01024728,-0.06266746,0.00000645,-0.00000709,-0.00001169,-
 0.00000493,0.00000390,-0.00001000,0.00000245,0.00000058,0.00000504,-0.
 00000184,0.00000140,0.00000625,0.00000175,-0.00000021,0.00000059,-0.00
 007819,0.00004552,0.00006689,0.00007203,-0.00002999,0.00001989,-0.0000
 2019,-0.00003038,0.00001360,0.00002448,0.00003103,0.00000219,-0.001270
 30,0.00028657,0.00012846,0.00137917,-0.00036217,-0.00010672,0.00000265
 ,0.00000271,0.00000362,-0.00000331,-0.00000295,0.00000547,0.00066657,0
 .00063159,0.00072520,-0.00030854,0.00087130,0.00074422,0.00000137,-0.0
 0000029,0.00000025,-0.00000060,-0.00000054,-0.00000018,-0.02773484,0.0
 1212223,0.06089110,-0.00001058,-0.00000223,0.00000161,-0.00005853,-0.0
 0014427,0.00004494,0.00004143,-0.00002739,0.00000125,0.00058559,-0.000
 44125,-0.00022897,-0.00002059,0.00000085,0.00000204,-0.00001925,-0.000
 00083,0.00000037,0.00000199,-0.00000290,-0.00000339,0.00000370,-0.0000
 0184,0.00000485,-0.00001255,0.00000323,0.00000135,0.00153059,0.0017259
 6,0.00205662,0.00009565,0.00105440,-0.00386466,-0.00710755,0.00180209,
 -0.00182717,-0.01359325,0.00442194,0.00514040,-0.32293471,0.06844411,0
 .02592005,0.00000416,0.00001670,-0.00000965,0.00000024,0.00001058,0.00
 000750,0.00002663,-0.00002531,0.00000143,0.00000686,-0.00001461,0.0000
 1146,0.00000674,0.00000341,-0.00000738,0.00000927,0.00000594,0.0000051
 3,-0.00046022,0.00012510,-0.00010414,-0.00077787,0.00025340,0.00022229
 ,-0.00000341,0.00000275,0.00000393,-0.00000416,0.00000174,-0.00000353,
 0.00052615,-0.00091431,0.00053231,0.00056257,-0.00104422,-0.00017538,-
 0.00000479,0.00000209,0.00000049,0.34160589,-0.00010979,0.00001759,0.0
 0001225,-0.00038510,-0.00084593,0.00018652,-0.00002510,-0.00004356,0.0
 0001255,-0.00027196,-0.00102304,-0.00003821,0.00000156,0.00000038,-0.0
 0000865,0.00000495,0.00000073,0.00000458,0.00000059,0.00000123,0.00000
 207,0.00000080,0.00000073,-0.00000091,0.00000035,-0.00000081,0.0000001
 7,0.00155376,0.00691301,-0.00258531,0.00111848,0.00728740,-0.00097489,
 0.00706367,0.00087154,0.00029730,-0.00062184,0.00249898,-0.00021521,0.
 06836417,-0.05327542,-0.01023394,-0.00000702,-0.00000365,-0.00000096,-
 0.00001223,-0.00001115,0.00000789,0.00007754,0.00002101,0.00013128,0.0
 0002006,-0.00000619,-0.00013433,-0.00000075,0.00000115,0.00000602,-0.0
 0000134,0.00000048,-0.00000473,0.00040960,0.00006029,-0.00003225,0.000
 03590,0.00014278,-0.00005235,0.00000065,0.00000067,-0.00000131,0.00000
 120,0.00000100,0.00000084,-0.00105771,-0.00360145,0.00069577,-0.000907
 41,-0.00361887,0.00080715,0.00000209,0.00000020,-0.00000017,-0.0752551
 1,0.04461093,0.00001648,-0.00000227,-0.00000290,0.00007827,0.00015404,
 0.00009483,0.00000093,0.00001285,0.00002068,-0.00025241,-0.00001538,-0
 .00152820,-0.00000493,0.00000390,-0.00001000,0.00000645,-0.00000709,-0
 .00001168,-0.00000184,0.00000140,0.00000625,0.00000245,0.00000058,0.00
 000504,0.00000175,-0.00000021,0.00000059,0.00138994,-0.00240829,-0.004
 62452,-0.00318300,-0.00116650,-0.00356389,0.02883678,-0.00641747,0.002
 46375,-0.02555370,0.00652893,0.00732205,0.02593111,-0.01024473,-0.0626
 6788,0.00002448,0.00003102,0.00000219,-0.00002019,-0.00003038,0.000013
 60,0.00007205,-0.00002999,0.00001991,-0.00007818,0.00004551,0.00006688
 ,-0.00000331,-0.00000295,0.00000547,0.00000265,0.00000271,0.00000362,0
 .00137920,-0.00036216,-0.00010673,-0.00127032,0.00028659,0.00012845,-0
 .00000060,-0.00000054,-0.00000018,0.00000137,-0.00000029,0.00000025,-0
 .00030864,0.00087087,0.00074437,0.00066648,0.00063116,0.00072534,0.000
 00049,-0.00000017,0.00000095,-0.02773377,0.01211885,0.06089177\\-0.000
 00005,-0.00000059,0.00000006,0.00000003,0.00000058,-0.00000017,0.00000
 011,-0.00000019,0.00000021,-0.00000005,0.00000026,0.00000028,0.0000000
 5,-0.00000035,-0.00000006,-0.00000010,-0.00000019,0.00000006,0.0000000
 8,-0.00000044,0.00000005,0.,-0.00000059,-0.00000004,0.00000010,-0.0000
 0056,0.,-0.00000018,0.00000035,-0.00000021,0.00000019,0.00000015,-0.00
 000011,0.00000005,0.00000038,-0.00000013,-0.00000017,0.00000061,-0.000
 00025,-0.00000010,0.00000056,0.00000003,0.00000009,0.00000010,-0.00000
 001,0.00000016,0.00000009,-0.00000001,-0.00000008,-0.00000010,0.000000
 04,-0.00000016,-0.00000008,0.00000005,0.00000001,-0.00000029,0.0000000
 5,0.,-0.00000026,0.00000002,0.,0.00000029,0.,0.,0.00000027,-0.00000002
 ,-0.00000006,-0.00000054,0.00000014,-0.00000002,-0.00000050,0.00000012
 ,0.00000007,0.00000055,-0.00000003,0.00000004,0.00000052,-0.00000002,-
 0.00000012,-0.00000065,0.00000009,0.00000012,0.00000065,-0.00000012\\\
 @


  DISAPPOINTMENT IS THE NURSE OF WISDOM.               
                              SIR BOYLE ROCHE                 
 Job cpu time:       0 days 11 hours 39 minutes 51.1 seconds.
 File lengths (MBytes):  RWF=    644 Int=      0 D2E=      0 Chk=     20 Scr=      1
 Normal termination of Gaussian 09 at Thu Sep 28 13:20:58 2023.
