 Entering Gaussian System, Link 0=g09
 Initial command:
 /home/minenky/programs//g09/l1.exe "/local/scratch/minenky/m1_00_120836-05-7-C32H16_wB97XD/Gau-344581.inp" -scrdir="/local/scratch/minenky/m1_00_120836-05-7-C32H16_wB97XD/"
 Entering Link 1 = /home/minenky/programs//g09/l1.exe PID=    344582.
  
 Copyright (c) 1988,1990,1992,1993,1995,1998,2003,2009,2013,
            Gaussian, Inc.  All Rights Reserved.
  
 This is part of the Gaussian(R) 09 program.  It is based on
 the Gaussian(R) 03 system (copyright 2003, Gaussian, Inc.),
 the Gaussian(R) 98 system (copyright 1998, Gaussian, Inc.),
 the Gaussian(R) 94 system (copyright 1995, Gaussian, Inc.),
 the Gaussian 92(TM) system (copyright 1992, Gaussian, Inc.),
 the Gaussian 90(TM) system (copyright 1990, Gaussian, Inc.),
 the Gaussian 88(TM) system (copyright 1988, Gaussian, Inc.),
 the Gaussian 86(TM) system (copyright 1986, Carnegie Mellon
 University), and the Gaussian 82(TM) system (copyright 1983,
 Carnegie Mellon University). Gaussian is a federally registered
 trademark of Gaussian, Inc.
  
 This software contains proprietary and confidential information,
 including trade secrets, belonging to Gaussian, Inc.
  
 This software is provided under written license and may be
 used, copied, transmitted, or stored only in accord with that
 written license.
  
 The following legend is applicable only to US Government
 contracts under FAR:
  
                    RESTRICTED RIGHTS LEGEND
  
 Use, reproduction and disclosure by the US Government is
 subject to restrictions as set forth in subparagraphs (a)
 and (c) of the Commercial Computer Software - Restricted
 Rights clause in FAR 52.227-19.
  
 Gaussian, Inc.
 340 Quinnipiac St., Bldg. 40, Wallingford CT 06492
  
  
 ---------------------------------------------------------------
 Warning -- This program may not be used in any manner that
 competes with the business of Gaussian, Inc. or will provide
 assistance to any competitor of Gaussian, Inc.  The licensee
 of this program is prohibited from giving any competitor of
 Gaussian, Inc. access to this program.  By using this program,
 the user acknowledges that Gaussian, Inc. is engaged in the
 business of creating and licensing software in the field of
 computational chemistry and represents and warrants to the
 licensee that it is not a competitor of Gaussian, Inc. and that
 it will not use this program in any manner prohibited above.
 ---------------------------------------------------------------
  

 Cite this work as:
 Gaussian 09, Revision D.01,
 M. J. Frisch, G. W. Trucks, H. B. Schlegel, G. E. Scuseria, 
 M. A. Robb, J. R. Cheeseman, G. Scalmani, V. Barone, B. Mennucci, 
 G. A. Petersson, H. Nakatsuji, M. Caricato, X. Li, H. P. Hratchian, 
 A. F. Izmaylov, J. Bloino, G. Zheng, J. L. Sonnenberg, M. Hada, 
 M. Ehara, K. Toyota, R. Fukuda, J. Hasegawa, M. Ishida, T. Nakajima, 
 Y. Honda, O. Kitao, H. Nakai, T. Vreven, J. A. Montgomery, Jr., 
 J. E. Peralta, F. Ogliaro, M. Bearpark, J. J. Heyd, E. Brothers, 
 K. N. Kudin, V. N. Staroverov, T. Keith, R. Kobayashi, J. Normand, 
 K. Raghavachari, A. Rendell, J. C. Burant, S. S. Iyengar, J. Tomasi, 
 M. Cossi, N. Rega, J. M. Millam, M. Klene, J. E. Knox, J. B. Cross, 
 V. Bakken, C. Adamo, J. Jaramillo, R. Gomperts, R. E. Stratmann, 
 O. Yazyev, A. J. Austin, R. Cammi, C. Pomelli, J. W. Ochterski, 
 R. L. Martin, K. Morokuma, V. G. Zakrzewski, G. A. Voth, 
 P. Salvador, J. J. Dannenberg, S. Dapprich, A. D. Daniels, 
 O. Farkas, J. B. Foresman, J. V. Ortiz, J. Cioslowski, 
 and D. J. Fox, Gaussian, Inc., Wallingford CT, 2013.
 
 ******************************************
 Gaussian 09:  AM64L-G09RevD.01 24-Apr-2013
                27-Jul-2019 
 ******************************************
 %Mem=32000MB
 %NProcShared=16
 Will use up to   16 processors via shared memory.
 %Chk=m1_00_120836-05-7-C32H16_wB97XD
 ----------------------------------------------------------------------
 #P wB97XD/def2tzvp opt=(tight) freq integral(Grid=ultrafine) # SCF(Max
 Cycle=380) 5d 7f GFPrint
 ----------------------------------------------------------------------
 1/7=10,14=-1,18=20,19=15,26=4,38=1/1,3;
 2/9=110,12=2,17=6,18=5,40=1/2;
 3/5=44,7=101,8=11,11=2,16=1,24=100,25=1,30=1,71=1,74=-58,75=-5/1,2,3;
 4//1;
 5/5=2,7=380,38=5/2;
 6/7=2,8=2,9=2,10=2,28=1/1;
 7//1,2,3,16;
 1/7=10,14=-1,18=20,19=15,26=4/3(2);
 2/9=110/2;
 99//99;
 2/9=110/2;
 3/5=44,7=101,8=11,11=2,16=1,25=1,30=1,71=1,74=-58,75=-5/1,2,3;
 4/5=5,16=3,69=1/1;
 5/5=2,7=380,38=5/2;
 7//1,2,3,16;
 1/7=10,14=-1,18=20,19=15,26=4/3(-5);
 2/9=110/2;
 6/7=2,8=2,9=2,10=2,19=2,28=1/1;
 99/9=1/99;
 Leave Link    1 at Sat Jul 27 13:19:25 2019, MaxMem=  4194304000 cpu:         0.8
 (Enter /home/minenky/programs//g09/l101.exe)
 ---------------------------------------
 The PBEPBE optimization and frequencies
 ---------------------------------------
 Symbolic Z-matrix:
 Charge =  0 Multiplicity = 1
 C                     1.89248  -1.89371   0. 
 C                     3.13036   0.63903   0. 
 C                     3.72797   1.93063   0. 
 C                     2.96468   3.06187   0. 
 C                     1.54633   2.97158   0. 
 C                     0.73709   4.15124   0. 
 C                    -0.61887   4.06445   0. 
 C                    -1.27221   2.79013   0. 
 C                    -2.681     2.70194   0. 
 C                    -0.98189  -2.0782    0. 
 C                     1.73395   0.52801   0. 
 C                     0.93644   1.71171   0. 
 C                    -0.49453   1.61739   0. 
 C                    -1.12603   0.34803   0. 
 C                    -0.34875  -0.86482   0. 
 C                     1.11153  -0.76888   0. 
 C                    -2.40848  -2.17757   0. 
 C                    -5.21126  -2.32116   0. 
 C                    -4.44167  -3.4866    0. 
 C                    -3.05992  -3.42335   0. 
 C                    -3.17981  -0.99594   0. 
 C                    -2.52739   0.27642   0. 
 C                    -3.30767   1.46992   0. 
 C                    -4.74924   1.35619   0. 
 C                    -5.35912   0.15226   0. 
 C                    -4.59451  -1.07374   0. 
 C                     3.943    -0.55018   0. 
 C                     3.31627  -1.80969   0. 
 C                     4.10722  -2.98406   0. 
 C                     5.47763  -2.89693   0. 
 C                     6.10756  -1.63748   0. 
 C                     5.35647  -0.48792   0. 
 H                     1.41729  -2.88836   0. 
 H                     4.82751   1.98883   0. 
 H                     3.4324    4.05302   0. 
 H                     1.23804   5.12617   0. 
 H                    -1.23979   4.96773   0. 
 H                    -3.27555   3.6239    0. 
 H                    -0.38621  -3.00556   0. 
 H                    -6.30498  -2.38954   0. 
 H                    -4.94217  -4.46077   0. 
 H                    -2.46392  -4.34289   0. 
 H                    -5.33292   2.28411   0. 
 H                    -6.45229   0.07205   0. 
 H                     3.61008  -3.96072   0. 
 H                     6.0911   -3.80381   0. 
 H                     7.20113  -1.58391   0. 
 H                     5.8353    0.50322   0. 
 
 NAtoms=     48 NQM=       48 NQMF=       0 NMMI=      0 NMMIF=      0
                NMic=       0 NMicF=      0.
                    Isotopes and Nuclear Properties:
 (Nuclear quadrupole moments (NQMom) in fm**2, nuclear magnetic moments (NMagM)
  in nuclear magnetons)

  Atom         1           2           3           4           5           6           7           8           9          10
 IAtWgt=          12          12          12          12          12          12          12          12          12          12
 AtmWgt=  12.0000000  12.0000000  12.0000000  12.0000000  12.0000000  12.0000000  12.0000000  12.0000000  12.0000000  12.0000000
 NucSpn=           0           0           0           0           0           0           0           0           0           0
 AtZEff=   0.0000000   0.0000000   0.0000000   0.0000000   0.0000000   0.0000000   0.0000000   0.0000000   0.0000000   0.0000000
 NQMom=    0.0000000   0.0000000   0.0000000   0.0000000   0.0000000   0.0000000   0.0000000   0.0000000   0.0000000   0.0000000
 NMagM=    0.0000000   0.0000000   0.0000000   0.0000000   0.0000000   0.0000000   0.0000000   0.0000000   0.0000000   0.0000000
 AtZNuc=   6.0000000   6.0000000   6.0000000   6.0000000   6.0000000   6.0000000   6.0000000   6.0000000   6.0000000   6.0000000

  Atom        11          12          13          14          15          16          17          18          19          20
 IAtWgt=          12          12          12          12          12          12          12          12          12          12
 AtmWgt=  12.0000000  12.0000000  12.0000000  12.0000000  12.0000000  12.0000000  12.0000000  12.0000000  12.0000000  12.0000000
 NucSpn=           0           0           0           0           0           0           0           0           0           0
 AtZEff=   0.0000000   0.0000000   0.0000000   0.0000000   0.0000000   0.0000000   0.0000000   0.0000000   0.0000000   0.0000000
 NQMom=    0.0000000   0.0000000   0.0000000   0.0000000   0.0000000   0.0000000   0.0000000   0.0000000   0.0000000   0.0000000
 NMagM=    0.0000000   0.0000000   0.0000000   0.0000000   0.0000000   0.0000000   0.0000000   0.0000000   0.0000000   0.0000000
 AtZNuc=   6.0000000   6.0000000   6.0000000   6.0000000   6.0000000   6.0000000   6.0000000   6.0000000   6.0000000   6.0000000

  Atom        21          22          23          24          25          26          27          28          29          30
 IAtWgt=          12          12          12          12          12          12          12          12          12          12
 AtmWgt=  12.0000000  12.0000000  12.0000000  12.0000000  12.0000000  12.0000000  12.0000000  12.0000000  12.0000000  12.0000000
 NucSpn=           0           0           0           0           0           0           0           0           0           0
 AtZEff=   0.0000000   0.0000000   0.0000000   0.0000000   0.0000000   0.0000000   0.0000000   0.0000000   0.0000000   0.0000000
 NQMom=    0.0000000   0.0000000   0.0000000   0.0000000   0.0000000   0.0000000   0.0000000   0.0000000   0.0000000   0.0000000
 NMagM=    0.0000000   0.0000000   0.0000000   0.0000000   0.0000000   0.0000000   0.0000000   0.0000000   0.0000000   0.0000000
 AtZNuc=   6.0000000   6.0000000   6.0000000   6.0000000   6.0000000   6.0000000   6.0000000   6.0000000   6.0000000   6.0000000

  Atom        31          32          33          34          35          36          37          38          39          40
 IAtWgt=          12          12           1           1           1           1           1           1           1           1
 AtmWgt=  12.0000000  12.0000000   1.0078250   1.0078250   1.0078250   1.0078250   1.0078250   1.0078250   1.0078250   1.0078250
 NucSpn=           0           0           1           1           1           1           1           1           1           1
 AtZEff=   0.0000000   0.0000000   0.0000000   0.0000000   0.0000000   0.0000000   0.0000000   0.0000000   0.0000000   0.0000000
 NQMom=    0.0000000   0.0000000   0.0000000   0.0000000   0.0000000   0.0000000   0.0000000   0.0000000   0.0000000   0.0000000
 NMagM=    0.0000000   0.0000000   2.7928460   2.7928460   2.7928460   2.7928460   2.7928460   2.7928460   2.7928460   2.7928460
 AtZNuc=   6.0000000   6.0000000   1.0000000   1.0000000   1.0000000   1.0000000   1.0000000   1.0000000   1.0000000   1.0000000

  Atom        41          42          43          44          45          46          47          48
 IAtWgt=           1           1           1           1           1           1           1           1
 AtmWgt=   1.0078250   1.0078250   1.0078250   1.0078250   1.0078250   1.0078250   1.0078250   1.0078250
 NucSpn=           1           1           1           1           1           1           1           1
 AtZEff=   0.0000000   0.0000000   0.0000000   0.0000000   0.0000000   0.0000000   0.0000000   0.0000000
 NQMom=    0.0000000   0.0000000   0.0000000   0.0000000   0.0000000   0.0000000   0.0000000   0.0000000
 NMagM=    2.7928460   2.7928460   2.7928460   2.7928460   2.7928460   2.7928460   2.7928460   2.7928460
 AtZNuc=   1.0000000   1.0000000   1.0000000   1.0000000   1.0000000   1.0000000   1.0000000   1.0000000
 Leave Link  101 at Sat Jul 27 13:19:25 2019, MaxMem=  4194304000 cpu:         5.4
 (Enter /home/minenky/programs//g09/l103.exe)

 GradGradGradGradGradGradGradGradGradGradGradGradGradGradGradGradGradGrad
 Berny optimization.
 Initialization pass.
                           ----------------------------
                           !    Initial Parameters    !
                           ! (Angstroms and Degrees)  !
 --------------------------                            --------------------------
 ! Name  Definition              Value          Derivative Info.                !
 --------------------------------------------------------------------------------
 ! R1    R(1,16)                 1.3693         estimate D2E/DX2                !
 ! R2    R(1,28)                 1.4263         estimate D2E/DX2                !
 ! R3    R(1,33)                 1.1023         estimate D2E/DX2                !
 ! R4    R(2,3)                  1.4232         estimate D2E/DX2                !
 ! R5    R(2,11)                 1.4008         estimate D2E/DX2                !
 ! R6    R(2,27)                 1.4404         estimate D2E/DX2                !
 ! R7    R(3,4)                  1.3647         estimate D2E/DX2                !
 ! R8    R(3,34)                 1.1011         estimate D2E/DX2                !
 ! R9    R(4,5)                  1.4212         estimate D2E/DX2                !
 ! R10   R(4,35)                 1.096          estimate D2E/DX2                !
 ! R11   R(5,6)                  1.4306         estimate D2E/DX2                !
 ! R12   R(5,12)                 1.3997         estimate D2E/DX2                !
 ! R13   R(6,7)                  1.3587         estimate D2E/DX2                !
 ! R14   R(6,36)                 1.0961         estimate D2E/DX2                !
 ! R15   R(7,8)                  1.432          estimate D2E/DX2                !
 ! R16   R(7,37)                 1.0961         estimate D2E/DX2                !
 ! R17   R(8,9)                  1.4116         estimate D2E/DX2                !
 ! R18   R(8,13)                 1.4072         estimate D2E/DX2                !
 ! R19   R(9,23)                 1.3822         estimate D2E/DX2                !
 ! R20   R(9,38)                 1.097          estimate D2E/DX2                !
 ! R21   R(10,15)                1.3686         estimate D2E/DX2                !
 ! R22   R(10,17)                1.43           estimate D2E/DX2                !
 ! R23   R(10,39)                1.1022         estimate D2E/DX2                !
 ! R24   R(11,12)                1.4273         estimate D2E/DX2                !
 ! R25   R(11,16)                1.4385         estimate D2E/DX2                !
 ! R26   R(12,13)                1.4341         estimate D2E/DX2                !
 ! R27   R(13,14)                1.4178         estimate D2E/DX2                !
 ! R28   R(14,15)                1.4405         estimate D2E/DX2                !
 ! R29   R(14,22)                1.4032         estimate D2E/DX2                !
 ! R30   R(15,16)                1.4634         estimate D2E/DX2                !
 ! R31   R(17,20)                1.4058         estimate D2E/DX2                !
 ! R32   R(17,21)                1.4111         estimate D2E/DX2                !
 ! R33   R(18,19)                1.3966         estimate D2E/DX2                !
 ! R34   R(18,26)                1.3916         estimate D2E/DX2                !
 ! R35   R(18,40)                1.0959         estimate D2E/DX2                !
 ! R36   R(19,20)                1.3832         estimate D2E/DX2                !
 ! R37   R(19,41)                1.0952         estimate D2E/DX2                !
 ! R38   R(20,42)                1.0958         estimate D2E/DX2                !
 ! R39   R(21,22)                1.4299         estimate D2E/DX2                !
 ! R40   R(21,26)                1.4168         estimate D2E/DX2                !
 ! R41   R(22,23)                1.4259         estimate D2E/DX2                !
 ! R42   R(23,24)                1.4461         estimate D2E/DX2                !
 ! R43   R(24,25)                1.3496         estimate D2E/DX2                !
 ! R44   R(24,43)                1.0962         estimate D2E/DX2                !
 ! R45   R(25,26)                1.4449         estimate D2E/DX2                !
 ! R46   R(25,44)                1.0961         estimate D2E/DX2                !
 ! R47   R(27,28)                1.4068         estimate D2E/DX2                !
 ! R48   R(27,32)                1.4148         estimate D2E/DX2                !
 ! R49   R(28,29)                1.4159         estimate D2E/DX2                !
 ! R50   R(29,30)                1.3732         estimate D2E/DX2                !
 ! R51   R(29,45)                1.0959         estimate D2E/DX2                !
 ! R52   R(30,31)                1.4082         estimate D2E/DX2                !
 ! R53   R(30,46)                1.0949         estimate D2E/DX2                !
 ! R54   R(31,32)                1.3732         estimate D2E/DX2                !
 ! R55   R(31,47)                1.0949         estimate D2E/DX2                !
 ! R56   R(32,48)                1.1007         estimate D2E/DX2                !
 ! A1    A(16,1,28)            121.394          estimate D2E/DX2                !
 ! A2    A(16,1,33)            119.6928         estimate D2E/DX2                !
 ! A3    A(28,1,33)            118.9132         estimate D2E/DX2                !
 ! A4    A(3,2,11)             119.3755         estimate D2E/DX2                !
 ! A5    A(3,2,27)             120.8234         estimate D2E/DX2                !
 ! A6    A(11,2,27)            119.8011         estimate D2E/DX2                !
 ! A7    A(2,3,4)              121.1611         estimate D2E/DX2                !
 ! A8    A(2,3,34)             117.8596         estimate D2E/DX2                !
 ! A9    A(4,3,34)             120.9793         estimate D2E/DX2                !
 ! A10   A(3,4,5)              120.3666         estimate D2E/DX2                !
 ! A11   A(3,4,35)             120.7283         estimate D2E/DX2                !
 ! A12   A(5,4,35)             118.9051         estimate D2E/DX2                !
 ! A13   A(4,5,6)              120.8072         estimate D2E/DX2                !
 ! A14   A(4,5,12)             119.4739         estimate D2E/DX2                !
 ! A15   A(6,5,12)             119.7189         estimate D2E/DX2                !
 ! A16   A(5,6,7)              120.7874         estimate D2E/DX2                !
 ! A17   A(5,6,36)             118.3545         estimate D2E/DX2                !
 ! A18   A(7,6,36)             120.858          estimate D2E/DX2                !
 ! A19   A(6,7,8)              120.8061         estimate D2E/DX2                !
 ! A20   A(6,7,37)             120.8425         estimate D2E/DX2                !
 ! A21   A(8,7,37)             118.3515         estimate D2E/DX2                !
 ! A22   A(7,8,9)              120.7256         estimate D2E/DX2                !
 ! A23   A(7,8,13)             119.3067         estimate D2E/DX2                !
 ! A24   A(9,8,13)             119.9677         estimate D2E/DX2                !
 ! A25   A(8,9,23)             120.5419         estimate D2E/DX2                !
 ! A26   A(8,9,38)             119.2348         estimate D2E/DX2                !
 ! A27   A(23,9,38)            120.2233         estimate D2E/DX2                !
 ! A28   A(15,10,17)           121.5402         estimate D2E/DX2                !
 ! A29   A(15,10,39)           119.7303         estimate D2E/DX2                !
 ! A30   A(17,10,39)           118.7294         estimate D2E/DX2                !
 ! A31   A(2,11,12)            119.4243         estimate D2E/DX2                !
 ! A32   A(2,11,16)            120.1835         estimate D2E/DX2                !
 ! A33   A(12,11,16)           120.3922         estimate D2E/DX2                !
 ! A34   A(5,12,11)            120.1987         estimate D2E/DX2                !
 ! A35   A(5,12,13)            119.6024         estimate D2E/DX2                !
 ! A36   A(11,12,13)           120.1989         estimate D2E/DX2                !
 ! A37   A(8,13,12)            119.7784         estimate D2E/DX2                !
 ! A38   A(8,13,14)            120.0002         estimate D2E/DX2                !
 ! A39   A(12,13,14)           120.2214         estimate D2E/DX2                !
 ! A40   A(13,14,15)           120.8953         estimate D2E/DX2                !
 ! A41   A(13,14,22)           119.3756         estimate D2E/DX2                !
 ! A42   A(15,14,22)           119.7291         estimate D2E/DX2                !
 ! A43   A(10,15,14)           119.7899         estimate D2E/DX2                !
 ! A44   A(10,15,16)           121.3146         estimate D2E/DX2                !
 ! A45   A(14,15,16)           118.8954         estimate D2E/DX2                !
 ! A46   A(1,16,11)            119.5909         estimate D2E/DX2                !
 ! A47   A(1,16,15)            121.0123         estimate D2E/DX2                !
 ! A48   A(11,16,15)           119.3968         estimate D2E/DX2                !
 ! A49   A(10,17,20)           121.5907         estimate D2E/DX2                !
 ! A50   A(10,17,21)           119.1506         estimate D2E/DX2                !
 ! A51   A(20,17,21)           119.2587         estimate D2E/DX2                !
 ! A52   A(19,18,26)           120.2524         estimate D2E/DX2                !
 ! A53   A(19,18,40)           119.8618         estimate D2E/DX2                !
 ! A54   A(26,18,40)           119.8859         estimate D2E/DX2                !
 ! A55   A(18,19,20)           120.8183         estimate D2E/DX2                !
 ! A56   A(18,19,41)           119.368          estimate D2E/DX2                !
 ! A57   A(20,19,41)           119.8137         estimate D2E/DX2                !
 ! A58   A(17,20,19)           120.2267         estimate D2E/DX2                !
 ! A59   A(17,20,42)           119.4444         estimate D2E/DX2                !
 ! A60   A(19,20,42)           120.3289         estimate D2E/DX2                !
 ! A61   A(17,21,22)           119.7176         estimate D2E/DX2                !
 ! A62   A(17,21,26)           119.9875         estimate D2E/DX2                !
 ! A63   A(22,21,26)           120.2949         estimate D2E/DX2                !
 ! A64   A(14,22,21)           120.0725         estimate D2E/DX2                !
 ! A65   A(14,22,23)           120.2503         estimate D2E/DX2                !
 ! A66   A(21,22,23)           119.6771         estimate D2E/DX2                !
 ! A67   A(9,23,22)            119.8643         estimate D2E/DX2                !
 ! A68   A(9,23,24)            121.4706         estimate D2E/DX2                !
 ! A69   A(22,23,24)           118.665          estimate D2E/DX2                !
 ! A70   A(23,24,25)           121.3761         estimate D2E/DX2                !
 ! A71   A(23,24,43)           117.6601         estimate D2E/DX2                !
 ! A72   A(25,24,43)           120.9637         estimate D2E/DX2                !
 ! A73   A(24,25,26)           121.1846         estimate D2E/DX2                !
 ! A74   A(24,25,44)           121.0618         estimate D2E/DX2                !
 ! A75   A(26,25,44)           117.7536         estimate D2E/DX2                !
 ! A76   A(18,26,21)           119.4565         estimate D2E/DX2                !
 ! A77   A(18,26,25)           121.7414         estimate D2E/DX2                !
 ! A78   A(21,26,25)           118.8022         estimate D2E/DX2                !
 ! A79   A(2,27,28)            119.1982         estimate D2E/DX2                !
 ! A80   A(2,27,32)            121.8248         estimate D2E/DX2                !
 ! A81   A(28,27,32)           118.977          estimate D2E/DX2                !
 ! A82   A(1,28,27)            119.8324         estimate D2E/DX2                !
 ! A83   A(1,28,29)            120.5831         estimate D2E/DX2                !
 ! A84   A(27,28,29)           119.5846         estimate D2E/DX2                !
 ! A85   A(28,29,30)           120.3224         estimate D2E/DX2                !
 ! A86   A(28,29,45)           119.0626         estimate D2E/DX2                !
 ! A87   A(30,29,45)           120.615          estimate D2E/DX2                !
 ! A88   A(29,30,31)           120.2105         estimate D2E/DX2                !
 ! A89   A(29,30,46)           120.4387         estimate D2E/DX2                !
 ! A90   A(31,30,46)           119.3507         estimate D2E/DX2                !
 ! A91   A(30,31,32)           120.2681         estimate D2E/DX2                !
 ! A92   A(30,31,47)           119.3774         estimate D2E/DX2                !
 ! A93   A(32,31,47)           120.3545         estimate D2E/DX2                !
 ! A94   A(27,32,31)           120.6374         estimate D2E/DX2                !
 ! A95   A(27,32,48)           118.3077         estimate D2E/DX2                !
 ! A96   A(31,32,48)           121.0549         estimate D2E/DX2                !
 ! D1    D(28,1,16,11)           0.0            estimate D2E/DX2                !
 ! D2    D(28,1,16,15)         180.0            estimate D2E/DX2                !
 ! D3    D(33,1,16,11)         180.0            estimate D2E/DX2                !
 ! D4    D(33,1,16,15)           0.0            estimate D2E/DX2                !
 ! D5    D(16,1,28,27)           0.0            estimate D2E/DX2                !
 ! D6    D(16,1,28,29)         180.0            estimate D2E/DX2                !
 ! D7    D(33,1,28,27)         180.0            estimate D2E/DX2                !
 ! D8    D(33,1,28,29)           0.0            estimate D2E/DX2                !
 ! D9    D(11,2,3,4)             0.0            estimate D2E/DX2                !
 ! D10   D(11,2,3,34)          180.0            estimate D2E/DX2                !
 ! D11   D(27,2,3,4)           180.0            estimate D2E/DX2                !
 ! D12   D(27,2,3,34)            0.0            estimate D2E/DX2                !
 ! D13   D(3,2,11,12)            0.0            estimate D2E/DX2                !
 ! D14   D(3,2,11,16)          180.0            estimate D2E/DX2                !
 ! D15   D(27,2,11,12)         180.0            estimate D2E/DX2                !
 ! D16   D(27,2,11,16)           0.0            estimate D2E/DX2                !
 ! D17   D(3,2,27,28)          180.0            estimate D2E/DX2                !
 ! D18   D(3,2,27,32)            0.0            estimate D2E/DX2                !
 ! D19   D(11,2,27,28)           0.0            estimate D2E/DX2                !
 ! D20   D(11,2,27,32)         180.0            estimate D2E/DX2                !
 ! D21   D(2,3,4,5)              0.0            estimate D2E/DX2                !
 ! D22   D(2,3,4,35)           180.0            estimate D2E/DX2                !
 ! D23   D(34,3,4,5)           180.0            estimate D2E/DX2                !
 ! D24   D(34,3,4,35)            0.0            estimate D2E/DX2                !
 ! D25   D(3,4,5,6)            180.0            estimate D2E/DX2                !
 ! D26   D(3,4,5,12)             0.0            estimate D2E/DX2                !
 ! D27   D(35,4,5,6)             0.0            estimate D2E/DX2                !
 ! D28   D(35,4,5,12)          180.0            estimate D2E/DX2                !
 ! D29   D(4,5,6,7)            180.0            estimate D2E/DX2                !
 ! D30   D(4,5,6,36)             0.0            estimate D2E/DX2                !
 ! D31   D(12,5,6,7)             0.0            estimate D2E/DX2                !
 ! D32   D(12,5,6,36)          180.0            estimate D2E/DX2                !
 ! D33   D(4,5,12,11)            0.0            estimate D2E/DX2                !
 ! D34   D(4,5,12,13)          180.0            estimate D2E/DX2                !
 ! D35   D(6,5,12,11)          180.0            estimate D2E/DX2                !
 ! D36   D(6,5,12,13)            0.0            estimate D2E/DX2                !
 ! D37   D(5,6,7,8)              0.0            estimate D2E/DX2                !
 ! D38   D(5,6,7,37)           180.0            estimate D2E/DX2                !
 ! D39   D(36,6,7,8)           180.0            estimate D2E/DX2                !
 ! D40   D(36,6,7,37)            0.0            estimate D2E/DX2                !
 ! D41   D(6,7,8,9)            180.0            estimate D2E/DX2                !
 ! D42   D(6,7,8,13)             0.0            estimate D2E/DX2                !
 ! D43   D(37,7,8,9)             0.0            estimate D2E/DX2                !
 ! D44   D(37,7,8,13)          180.0            estimate D2E/DX2                !
 ! D45   D(7,8,9,23)           180.0            estimate D2E/DX2                !
 ! D46   D(7,8,9,38)             0.0            estimate D2E/DX2                !
 ! D47   D(13,8,9,23)            0.0            estimate D2E/DX2                !
 ! D48   D(13,8,9,38)          180.0            estimate D2E/DX2                !
 ! D49   D(7,8,13,12)            0.0            estimate D2E/DX2                !
 ! D50   D(7,8,13,14)          180.0            estimate D2E/DX2                !
 ! D51   D(9,8,13,12)          180.0            estimate D2E/DX2                !
 ! D52   D(9,8,13,14)            0.0            estimate D2E/DX2                !
 ! D53   D(8,9,23,22)            0.0            estimate D2E/DX2                !
 ! D54   D(8,9,23,24)          180.0            estimate D2E/DX2                !
 ! D55   D(38,9,23,22)         180.0            estimate D2E/DX2                !
 ! D56   D(38,9,23,24)           0.0            estimate D2E/DX2                !
 ! D57   D(17,10,15,14)          0.0            estimate D2E/DX2                !
 ! D58   D(17,10,15,16)        180.0            estimate D2E/DX2                !
 ! D59   D(39,10,15,14)        180.0            estimate D2E/DX2                !
 ! D60   D(39,10,15,16)          0.0            estimate D2E/DX2                !
 ! D61   D(15,10,17,20)        180.0            estimate D2E/DX2                !
 ! D62   D(15,10,17,21)          0.0            estimate D2E/DX2                !
 ! D63   D(39,10,17,20)          0.0            estimate D2E/DX2                !
 ! D64   D(39,10,17,21)        180.0            estimate D2E/DX2                !
 ! D65   D(2,11,12,5)            0.0            estimate D2E/DX2                !
 ! D66   D(2,11,12,13)         180.0            estimate D2E/DX2                !
 ! D67   D(16,11,12,5)         180.0            estimate D2E/DX2                !
 ! D68   D(16,11,12,13)          0.0            estimate D2E/DX2                !
 ! D69   D(2,11,16,1)            0.0            estimate D2E/DX2                !
 ! D70   D(2,11,16,15)         180.0            estimate D2E/DX2                !
 ! D71   D(12,11,16,1)         180.0            estimate D2E/DX2                !
 ! D72   D(12,11,16,15)          0.0            estimate D2E/DX2                !
 ! D73   D(5,12,13,8)            0.0            estimate D2E/DX2                !
 ! D74   D(5,12,13,14)         180.0            estimate D2E/DX2                !
 ! D75   D(11,12,13,8)         180.0            estimate D2E/DX2                !
 ! D76   D(11,12,13,14)          0.0            estimate D2E/DX2                !
 ! D77   D(8,13,14,15)         180.0            estimate D2E/DX2                !
 ! D78   D(8,13,14,22)           0.0            estimate D2E/DX2                !
 ! D79   D(12,13,14,15)          0.0            estimate D2E/DX2                !
 ! D80   D(12,13,14,22)        180.0            estimate D2E/DX2                !
 ! D81   D(13,14,15,10)        180.0            estimate D2E/DX2                !
 ! D82   D(13,14,15,16)          0.0            estimate D2E/DX2                !
 ! D83   D(22,14,15,10)          0.0            estimate D2E/DX2                !
 ! D84   D(22,14,15,16)        180.0            estimate D2E/DX2                !
 ! D85   D(13,14,22,21)        180.0            estimate D2E/DX2                !
 ! D86   D(13,14,22,23)          0.0            estimate D2E/DX2                !
 ! D87   D(15,14,22,21)          0.0            estimate D2E/DX2                !
 ! D88   D(15,14,22,23)        180.0            estimate D2E/DX2                !
 ! D89   D(10,15,16,1)           0.0            estimate D2E/DX2                !
 ! D90   D(10,15,16,11)        180.0            estimate D2E/DX2                !
 ! D91   D(14,15,16,1)         180.0            estimate D2E/DX2                !
 ! D92   D(14,15,16,11)          0.0            estimate D2E/DX2                !
 ! D93   D(10,17,20,19)        180.0            estimate D2E/DX2                !
 ! D94   D(10,17,20,42)          0.0            estimate D2E/DX2                !
 ! D95   D(21,17,20,19)          0.0            estimate D2E/DX2                !
 ! D96   D(21,17,20,42)        180.0            estimate D2E/DX2                !
 ! D97   D(10,17,21,22)          0.0            estimate D2E/DX2                !
 ! D98   D(10,17,21,26)        180.0            estimate D2E/DX2                !
 ! D99   D(20,17,21,22)        180.0            estimate D2E/DX2                !
 ! D100  D(20,17,21,26)          0.0            estimate D2E/DX2                !
 ! D101  D(26,18,19,20)          0.0            estimate D2E/DX2                !
 ! D102  D(26,18,19,41)        180.0            estimate D2E/DX2                !
 ! D103  D(40,18,19,20)        180.0            estimate D2E/DX2                !
 ! D104  D(40,18,19,41)          0.0            estimate D2E/DX2                !
 ! D105  D(19,18,26,21)          0.0            estimate D2E/DX2                !
 ! D106  D(19,18,26,25)        180.0            estimate D2E/DX2                !
 ! D107  D(40,18,26,21)        180.0            estimate D2E/DX2                !
 ! D108  D(40,18,26,25)          0.0            estimate D2E/DX2                !
 ! D109  D(18,19,20,17)          0.0            estimate D2E/DX2                !
 ! D110  D(18,19,20,42)        180.0            estimate D2E/DX2                !
 ! D111  D(41,19,20,17)        180.0            estimate D2E/DX2                !
 ! D112  D(41,19,20,42)          0.0            estimate D2E/DX2                !
 ! D113  D(17,21,22,14)          0.0            estimate D2E/DX2                !
 ! D114  D(17,21,22,23)        180.0            estimate D2E/DX2                !
 ! D115  D(26,21,22,14)        180.0            estimate D2E/DX2                !
 ! D116  D(26,21,22,23)          0.0            estimate D2E/DX2                !
 ! D117  D(17,21,26,18)          0.0            estimate D2E/DX2                !
 ! D118  D(17,21,26,25)        180.0            estimate D2E/DX2                !
 ! D119  D(22,21,26,18)        180.0            estimate D2E/DX2                !
 ! D120  D(22,21,26,25)          0.0            estimate D2E/DX2                !
 ! D121  D(14,22,23,9)           0.0            estimate D2E/DX2                !
 ! D122  D(14,22,23,24)        180.0            estimate D2E/DX2                !
 ! D123  D(21,22,23,9)         180.0            estimate D2E/DX2                !
 ! D124  D(21,22,23,24)          0.0            estimate D2E/DX2                !
 ! D125  D(9,23,24,25)         180.0            estimate D2E/DX2                !
 ! D126  D(9,23,24,43)           0.0            estimate D2E/DX2                !
 ! D127  D(22,23,24,25)          0.0            estimate D2E/DX2                !
 ! D128  D(22,23,24,43)        180.0            estimate D2E/DX2                !
 ! D129  D(23,24,25,26)          0.0            estimate D2E/DX2                !
 ! D130  D(23,24,25,44)        180.0            estimate D2E/DX2                !
 ! D131  D(43,24,25,26)        180.0            estimate D2E/DX2                !
 ! D132  D(43,24,25,44)          0.0            estimate D2E/DX2                !
 ! D133  D(24,25,26,18)        180.0            estimate D2E/DX2                !
 ! D134  D(24,25,26,21)          0.0            estimate D2E/DX2                !
 ! D135  D(44,25,26,18)          0.0            estimate D2E/DX2                !
 ! D136  D(44,25,26,21)        180.0            estimate D2E/DX2                !
 ! D137  D(2,27,28,1)            0.0            estimate D2E/DX2                !
 ! D138  D(2,27,28,29)         180.0            estimate D2E/DX2                !
 ! D139  D(32,27,28,1)         180.0            estimate D2E/DX2                !
 ! D140  D(32,27,28,29)          0.0            estimate D2E/DX2                !
 ! D141  D(2,27,32,31)         180.0            estimate D2E/DX2                !
 ! D142  D(2,27,32,48)           0.0            estimate D2E/DX2                !
 ! D143  D(28,27,32,31)          0.0            estimate D2E/DX2                !
 ! D144  D(28,27,32,48)        180.0            estimate D2E/DX2                !
 ! D145  D(1,28,29,30)         180.0            estimate D2E/DX2                !
 ! D146  D(1,28,29,45)           0.0            estimate D2E/DX2                !
 ! D147  D(27,28,29,30)          0.0            estimate D2E/DX2                !
 ! D148  D(27,28,29,45)        180.0            estimate D2E/DX2                !
 ! D149  D(28,29,30,31)          0.0            estimate D2E/DX2                !
 ! D150  D(28,29,30,46)        180.0            estimate D2E/DX2                !
 ! D151  D(45,29,30,31)        180.0            estimate D2E/DX2                !
 ! D152  D(45,29,30,46)          0.0            estimate D2E/DX2                !
 ! D153  D(29,30,31,32)          0.0            estimate D2E/DX2                !
 ! D154  D(29,30,31,47)        180.0            estimate D2E/DX2                !
 ! D155  D(46,30,31,32)        180.0            estimate D2E/DX2                !
 ! D156  D(46,30,31,47)          0.0            estimate D2E/DX2                !
 ! D157  D(30,31,32,27)          0.0            estimate D2E/DX2                !
 ! D158  D(30,31,32,48)        180.0            estimate D2E/DX2                !
 ! D159  D(47,31,32,27)        180.0            estimate D2E/DX2                !
 ! D160  D(47,31,32,48)          0.0            estimate D2E/DX2                !
 --------------------------------------------------------------------------------
 Trust Radius=3.00D-01 FncErr=1.00D-07 GrdErr=1.00D-06
 Number of steps in this run=    288 maximum allowed number of steps=    288.
 GradGradGradGradGradGradGradGradGradGradGradGradGradGradGradGradGradGrad

 Leave Link  103 at Sat Jul 27 13:19:25 2019, MaxMem=  4194304000 cpu:         0.3
 (Enter /home/minenky/programs//g09/l202.exe)
                          Input orientation:                          
 ---------------------------------------------------------------------
 Center     Atomic      Atomic             Coordinates (Angstroms)
 Number     Number       Type             X           Y           Z
 ---------------------------------------------------------------------
      1          6           0        1.892476   -1.893710    0.000000
      2          6           0        3.130355    0.639031    0.000000
      3          6           0        3.727972    1.930630    0.000000
      4          6           0        2.964677    3.061871    0.000000
      5          6           0        1.546332    2.971577    0.000000
      6          6           0        0.737091    4.151244    0.000000
      7          6           0       -0.618872    4.064453    0.000000
      8          6           0       -1.272206    2.790126    0.000000
      9          6           0       -2.681005    2.701939    0.000000
     10          6           0       -0.981890   -2.078200    0.000000
     11          6           0        1.733948    0.528010    0.000000
     12          6           0        0.936437    1.711705    0.000000
     13          6           0       -0.494525    1.617385    0.000000
     14          6           0       -1.126028    0.348027    0.000000
     15          6           0       -0.348750   -0.864825    0.000000
     16          6           0        1.111532   -0.768880    0.000000
     17          6           0       -2.408478   -2.177573    0.000000
     18          6           0       -5.211264   -2.321164    0.000000
     19          6           0       -4.441665   -3.486598    0.000000
     20          6           0       -3.059924   -3.423354    0.000000
     21          6           0       -3.179808   -0.995945    0.000000
     22          6           0       -2.527386    0.276416    0.000000
     23          6           0       -3.307668    1.469917    0.000000
     24          6           0       -4.749240    1.356193    0.000000
     25          6           0       -5.359118    0.152260    0.000000
     26          6           0       -4.594515   -1.073745    0.000000
     27          6           0        3.943003   -0.550176    0.000000
     28          6           0        3.316269   -1.809686    0.000000
     29          6           0        4.107216   -2.984062    0.000000
     30          6           0        5.477632   -2.896930    0.000000
     31          6           0        6.107560   -1.637485    0.000000
     32          6           0        5.356468   -0.487919    0.000000
     33          1           0        1.417288   -2.888363    0.000000
     34          1           0        4.827510    1.988829    0.000000
     35          1           0        3.432396    4.053015    0.000000
     36          1           0        1.238042    5.126167    0.000000
     37          1           0       -1.239787    4.967728    0.000000
     38          1           0       -3.275550    3.623902    0.000000
     39          1           0       -0.386211   -3.005563    0.000000
     40          1           0       -6.304981   -2.389537    0.000000
     41          1           0       -4.942175   -4.460774    0.000000
     42          1           0       -2.463923   -4.342888    0.000000
     43          1           0       -5.332918    2.284107    0.000000
     44          1           0       -6.452290    0.072053    0.000000
     45          1           0        3.610076   -3.960724    0.000000
     46          1           0        6.091101   -3.803814    0.000000
     47          1           0        7.201126   -1.583906    0.000000
     48          1           0        5.835298    0.503221    0.000000
 ---------------------------------------------------------------------
                    Distance matrix (angstroms):
                    1          2          3          4          5
     1  C    0.000000
     2  C    2.819064   0.000000
     3  C    4.242007   1.423156   0.000000
     4  C    5.070246   2.428498   1.364670   0.000000
     5  C    4.877585   2.819557   2.417255   1.421216   0.000000
     6  C    6.154380   4.250100   3.725116   2.479692   1.430554
     7  C    6.465801   5.078407   4.842339   3.721155   2.425384
     8  C    5.652746   4.899975   5.073511   4.245588   2.824373
     9  C    6.483573   6.166644   6.455223   5.657144   4.235928
    10  C    2.880281   4.928885   6.184943   6.480411   5.647314
    11  C    2.426904   1.400813   2.437924   2.816938   2.450759
    12  C    3.730017   2.442111   2.800106   2.436535   1.399732
    13  C    4.245653   3.754588   4.234100   3.748683   2.449273
    14  C    3.759888   4.266319   5.105482   4.909054   3.744933
    15  C    2.466111   3.790219   4.943100   5.137873   4.278939
    16  C    1.369349   2.461273   3.759404   4.255444   3.765644
    17  C    4.310311   6.213850   7.384670   7.504836   6.492632
    18  C    7.116589   8.851292   9.898873   9.788926   8.583602
    19  C    6.531358   8.623011   9.802517   9.886170   8.807051
    20  C    5.183250   7.404224   8.645270   8.851778   7.881164
    21  C    5.151122   6.518536   7.502151   7.363462   6.170708
    22  C    4.923883   5.669349   6.470388   6.158045   4.884575
    23  C    6.193181   6.491419   7.050708   6.471216   5.080975
    24  C    7.394205   7.912164   8.496652   7.900244   6.499515
    25  C    7.534694   8.503417   9.259471   8.817675   7.458806
    26  C    6.538608   7.912472   8.848167   8.616536   7.353545
    27  C    2.451478   1.440351   2.490108   3.742192   4.259903
    28  C    1.426270   2.455764   3.762906   4.884228   5.098348
    29  C    2.468591   3.752474   4.929303   6.152942   6.482883
    30  C    3.722874   4.244141   5.134847   6.467013   7.063604
    31  C    4.222864   3.747836   4.288809   5.653464   6.484462
    32  C    3.738380   2.495114   2.915712   4.280382   5.146382
    33  H    1.102333   3.921366   5.344339   6.148146   5.861361
    34  H    4.867087   2.168476   1.101077   2.149782   3.425189
    35  H    6.142874   3.427319   2.142868   1.095960   2.174108
    36  H    7.050316   4.869829   4.051075   2.691206   2.176534
    37  H    7.542573   6.151078   5.822594   4.616255   3.427401
    38  H    7.559930   7.067183   7.205310   6.265486   4.865807
    39  H    2.535475   5.064514   6.425925   6.931248   6.281793
    40  H    8.212439   9.909480  10.923552  10.753809   9.507085
    41  H    7.300841   9.548495  10.771328  10.913684   9.866133
    42  H    4.997668   7.491026   8.814567   9.181511   8.341676
    43  H    8.346285   8.621674   9.067782   8.333967   6.913516
    44  H    8.573176   9.599404  10.348528   9.880196   8.507949
    45  H    2.687507   4.624704   5.892534   7.052190   7.232969
    46  H    4.612694   5.338997   6.202276   7.544014   8.158483
    47  H    5.317682   4.638171   4.941130   6.287348   7.261482
    48  H    4.614231   2.708350   2.545255   3.845407   4.948536
                    6          7          8          9         10
     6  C    0.000000
     7  C    1.358738   0.000000
     8  C    2.426915   1.432045   0.000000
     9  C    3.712663   2.471606   1.411557   0.000000
    10  C    6.462265   6.153371   4.876975   5.073137   0.000000
    11  C    3.757865   4.247610   3.762197   4.921156   3.764055
    12  C    2.447670   2.820356   2.457864   3.750527   4.247748
    13  C    2.817325   2.450225   1.407163   2.440686   3.727583
    14  C    4.235053   3.750870   2.446470   2.821144   2.430505
    15  C    5.132251   4.936673   3.769806   4.261598   1.368629
    16  C    4.934352   5.133752   4.283542   5.141004   2.469156
    17  C    7.067428   6.493503   5.095994   4.887117   1.430044
    18  C    8.790620   7.865505   6.453020   5.624391   4.236347
    19  C    9.228009   8.463576   7.031553   6.434121   3.735456
    20  C    8.473009   7.875659   6.465546   6.137002   2.475412
    21  C    6.468049   5.671510   4.239491   3.731373   2.449923
    22  C    5.066666   4.241657   2.809665   2.430383   2.816518
    23  C    4.852793   3.736475   2.426120   1.382239   4.242449
    24  C    6.157284   4.939090   3.761108   2.467514   5.097840
    25  C    7.290792   6.146152   4.864277   3.697723   4.912746
    26  C    7.465021   6.496677   5.095806   4.232884   3.749665
    27  C    5.690450   6.488875   6.193224   7.379277   5.156494
    28  C    6.494986   7.070420   6.497105   7.504802   4.306539
    29  C    7.891156   8.486311   7.891732   8.854973   5.169100
    30  C    8.494085   9.253552   8.826263   9.894983   6.511201
    31  C    7.896285   8.817992   8.606084   9.801503   7.103135
    32  C    6.546791   7.511909   7.394923   8.647321   6.534813
    33  H    7.072393   7.244833   6.283201   6.931629   2.532275
    34  H    4.626831   5.828489   6.152122   7.542302   7.091534
    35  H    2.697094   4.051284   4.871157   6.260917   7.554980
    36  H    1.096096   2.139010   3.429056   4.608232   7.538634
    37  H    2.138854   1.096103   2.177843   2.685314   7.050646
    38  H    4.047145   2.692959   2.169924   1.097041   6.146124
    39  H    7.244425   7.073843   5.863020   6.151557   1.102196
    40  H    9.611067   8.601502   7.222032   6.249507   5.332188
    41  H   10.316052   9.558789   8.126760   7.511148   4.621744
    42  H    9.077267   8.607416   7.231880   7.048171   2.706517
    43  H    6.350686   5.039034   4.092119   2.684628   6.161263
    44  H    8.266015   7.068806   5.849888   4.597705   5.877828
    45  H    8.605700   9.071244   8.331306   9.163448   4.962867
    46  H    9.588971  10.340859   9.884247  10.921294   7.280450
    47  H    8.641510   9.646571   9.535697  10.771490   8.197932
    48  H    6.268954   7.371478   7.466361   8.795555   7.289568
                   11         12         13         14         15
    11  C    0.000000
    12  C    1.427290   0.000000
    13  C    2.480490   1.434068   0.000000
    14  C    2.865634   2.472525   1.417767   0.000000
    15  C    2.505519   2.879273   2.486486   1.440545   0.000000
    16  C    1.438516   2.486757   2.876401   2.500831   1.463430
    17  C    4.947714   5.129809   4.250285   2.832550   2.442496
    18  C    7.506915   7.352432   6.144900   4.879932   5.075920
    19  C    7.365819   7.479729   6.452175   5.069300   4.860622
    20  C    6.212447   6.506899   5.655999   4.238311   3.727806
    21  C    5.144652   4.926951   3.747030   2.454440   2.834093
    22  C    4.268755   3.749417   2.435307   1.403187   2.459448
    23  C    5.128848   4.250987   2.817005   2.453200   3.769113
    24  C    6.535871   5.696781   4.262724   3.760859   4.929221
    25  C    7.103012   6.485822   5.080438   4.237614   5.112557
    26  C    6.528021   6.192750   4.904293   3.748578   4.250901
    27  C    2.458131   3.762385   4.938621   5.147994   4.303272
    28  C    2.822864   4.250152   5.125131   4.938596   3.784856
    29  C    4.238756   5.666045   6.507637   6.204004   4.934248
    30  C    5.073991   6.470083   7.486368   7.357858   6.170590
    31  C    4.880353   6.160972   7.360822   7.501136   6.502380
    32  C    3.762281   4.937106   6.218233   6.536173   5.717655
    33  H    3.431018   4.625132   4.894568   4.116148   2.685814
    34  H    3.421128   3.900929   5.334982   6.175504   5.910754
    35  H    3.912849   3.422214   4.620931   5.874195   6.203404
    36  H    4.624821   3.427757   3.913226   5.330989   6.197571
    37  H    5.343613   3.916330   3.432232   4.621101   5.900222
    38  H    5.888940   4.625725   3.429316   3.918137   5.358621
    39  H    4.120827   4.899185   4.624217   3.434224   2.141066
    40  H    8.551986   8.322159   7.058103   5.857970   6.148287
    41  H    8.334182   8.523942   7.531640   6.139019   5.833558
    42  H    6.430224   6.944102   6.277211   4.877976   4.070735
    43  H    7.281791   6.295432   4.884113   4.631018   5.895566
    44  H    8.198926   7.568470   6.154917   5.333407   6.175025
    45  H    4.865038   6.270949   6.925536   6.402813   5.025624
    46  H    6.144061   7.549272   8.529940   8.326148   7.078796
    47  H    5.860907   7.078657   8.334946   8.548325   7.584044
    48  H    4.101425   5.045718   6.427132   6.963056   6.333562
                   16         17         18         19         20
    16  C    0.000000
    17  C    3.791422   0.000000
    18  C    6.510555   2.806462   0.000000
    19  C    6.182555   2.418139   1.396610   0.000000
    20  C    4.944419   1.405828   2.417248   1.383188   0.000000
    21  C    4.297343   1.411098   2.425493   2.792067   2.430368
    22  C    3.786075   2.456868   3.735053   4.221936   3.737900
    23  C    4.953942   3.756691   4.242166   5.084584   4.899539
    24  C    6.234146   4.238711   3.706268   4.852549   5.069305
    25  C    6.535886   3.759574   2.477839   3.752733   4.251036
    26  C    5.714184   2.448917   1.391558   2.417690   2.806356
    27  C    2.839905   6.556655   9.324001   8.883988   7.569422
    28  C    2.438062   5.736556   8.542858   7.937102   6.577216
    29  C    3.725742   6.565416   9.342029   8.563639   7.180591
    30  C    4.857101   7.918851  10.704392   9.936808   8.553770
    31  C    5.070973   8.533147  11.339453  10.710059   9.339812
    32  C    4.254224   7.946654  10.725565  10.246731   8.913610
    33  H    2.141423   3.891234   6.652775   5.889415   4.509062
    34  H    4.627468   8.349756  10.924881  10.765590   9.565739
    35  H    5.351363   8.540260  10.739787  10.901679   9.901835
    36  H    5.896405   8.163438   9.851715  10.316918   9.569056
    37  H    6.199788   7.240247   8.300637   9.040335   8.586219
    38  H    6.208303   5.865912   6.252263   7.205486   7.050554
    39  H    2.691836   2.185207   4.873349   4.083883   2.706158
    40  H    7.591521   3.902264   1.095852   2.162288   3.405756
    41  H    7.090659   3.410664   2.156465   1.095230   2.149211
    42  H    5.055433   2.166025   3.411049   2.155156   1.095792
    43  H    7.131035   5.334692   4.606878   5.839124   6.143421
    44  H    7.610425   4.627444   2.695855   4.087372   4.870936
    45  H    4.053467   6.277150   8.972413   8.065688   6.691612
    46  H    5.831547   8.653757  11.399198  10.537542   9.158931
    47  H    6.143894   9.627925  12.434266  11.797238  10.424621
    48  H    4.892056   8.668708  11.401916  11.024275   9.723322
                   21         22         23         24         25
    21  C    0.000000
    22  C    1.429880   0.000000
    23  C    2.469174   1.425933   0.000000
    24  C    2.827661   2.470335   1.446050   0.000000
    25  C    2.463283   2.834453   2.438168   1.349595   0.000000
    26  C    1.416844   2.468999   2.850647   2.434859   1.444890
    27  C    7.136747   6.522974   7.526819   8.898838   9.328605
    28  C    6.546846   6.204847   7.391369   8.664596   8.894469
    29  C    7.553366   7.392473   8.649765   9.862790   9.972362
    30  C    8.863691   8.611065   9.810752  11.076008  11.257562
    31  C    9.309500   8.844507   9.914760  11.261980  11.605511
    32  C    8.551380   7.920818   8.882588  10.272589  10.734692
    33  H    4.971372   5.057299   6.428049   7.486141   7.427318
    34  H    8.545527   7.551613   8.151711   9.597623  10.350863
    35  H    8.319450   7.055615   7.218093   8.614640   9.618036
    36  H    7.549679   6.139913   5.833665   7.075326   8.262098
    37  H    6.271290   4.864804   4.063350   5.035816   6.337004
    38  H    4.620838   3.430075   2.154224   2.704490   4.048895
    39  H    3.441330   3.918675   5.344607   6.169354   5.890810
    40  H    3.421813   4.623584   4.886642   4.055961   2.712082
    41  H    3.887284   5.317159   6.151805   5.820166   4.631838
    42  H    3.422649   4.619740   5.873722   6.140212   5.346823
    43  H    3.923598   3.449904   2.182783   1.096223   2.132008
    44  H    3.442347   3.930221   3.441318   2.132931   1.096110
    45  H    7.408944   7.458002   8.794717   9.906955   9.867273
    46  H    9.686790   9.535544  10.777249  12.005776  12.114373
    47  H   10.397572   9.904784  10.943518  12.306723  12.679669
    48  H    9.138908   8.365759   9.193929  10.618851  11.199916
                   26         27         28         29         30
    26  C    0.000000
    27  C    8.553557   0.000000
    28  C    7.944942   1.406826   0.000000
    29  C    8.908952   2.439420   1.415894   0.000000
    30  C   10.235826   2.803987   2.419419   1.373183   0.000000
    31  C   10.716912   2.422302   2.796597   2.411358   1.408195
    32  C    9.968212   1.414835   2.430942   2.791301   2.412057
    33  H    6.279698   3.441854   2.183959   2.691630   4.060353
    34  H    9.907265   2.688662   4.088101   5.024786   4.928824
    35  H    9.524440   4.631424   5.863851   7.069359   7.244635
    36  H    8.512204   6.287900   7.240517   8.602789   9.074371
    37  H    6.910397   7.570243   8.166455   9.582349  10.342948
    38  H    4.879298   8.338491   8.542597   9.908099  10.915102
    39  H    4.630522   4.977049   3.890820   4.493479   5.864849
    40  H    2.158009  10.411745   9.638708  10.429157  11.793533
    41  H    3.404825   9.707686   8.673533   9.169087  10.536507
    42  H    3.902143   7.445359   6.310922   6.710162   8.072118
    43  H    3.438082   9.699272   9.569095  10.810631  11.987958
    44  H    2.182701  10.413898   9.948150  10.992862  12.293815
    45  H    8.697698   3.426760   2.171011   1.095910   2.149285
    46  H   11.028856   3.898780   3.417051   2.146577   1.094889
    47  H   11.806668   3.418182   3.891412   3.395985   2.166671
    48  H   10.548356   2.165740   3.419802   3.891968   3.418912
                   31         32         33         34         35
    31  C    0.000000
    32  C    1.373186   0.000000
    33  H    4.854210   4.612947   0.000000
    34  H    3.845605   2.532603   5.951187   0.000000
    35  H    6.287948   4.931748   7.227959   2.491427   0.000000
    36  H    8.334218   6.962715   8.016534   4.767302   2.442713
    37  H    9.879896   8.560062   8.293263   6.759137   4.760882
    38  H   10.757553   9.561318   8.026974   8.266380   6.721658
    39  H    6.636317   6.270319   1.807303   7.219892   8.025291
    40  H   12.435303  11.815479   7.738363  11.962544  11.675744
    41  H   11.404718  11.038371   6.550972  11.706585  11.942280
    42  H    8.988299   8.718905   4.144808   9.656896  10.259521
    43  H   12.093941  11.042966   8.504100  10.164718   8.942023
    44  H   12.675659  11.822027   8.407991  11.441500  10.656222
    45  H    3.410993   3.887193   2.440958   6.072836   8.015709
    46  H    2.166392   3.396299   4.762624   5.928860   8.294485
    47  H    1.094878   2.145683   5.929114   4.289347   6.780724
    48  H    2.157950   1.100744   5.569710   1.795179   4.286604
                   36         37         38         39         40
    36  H    0.000000
    37  H    2.482889   0.000000
    38  H    4.757028   2.439303   0.000000
    39  H    8.292360   8.018850   7.231741   0.000000
    40  H   10.648145   8.932275   6.733416   5.950742   0.000000
    41  H   11.406337  10.129380   8.254673   4.782724   2.479368
    42  H   10.166983   9.390745   8.008026   2.470895   4.309212
    43  H    7.159247   4.894440   2.455160   7.242273   4.773663
    44  H    9.202460   7.151071   4.765218   6.802134   2.465994
    45  H    9.391387  10.160632  10.243944   4.108849  10.038774
    46  H   10.163501  11.431617  11.954293   6.526315  12.476500
    47  H    8.976829  10.685174  11.699659   7.719378  13.530114
    48  H    6.519693   8.365922   9.630483   7.142741  12.480162
                   41         42         43         44         45
    41  H    0.000000
    42  H    2.481054   0.000000
    43  H    6.756190   7.221371   0.000000
    44  H    4.777758   5.949687   2.479148   0.000000
    45  H    8.566857   6.086009  10.907569  10.840410   0.000000
    46  H   11.052818   8.571991  12.944922  13.128557   2.485983
    47  H   12.479428  10.051127  13.117309  13.753471   4.306380
    48  H   11.865715   9.610507  11.309315  12.295151   4.987828
                   46         47         48
    46  H    0.000000
    47  H    2.481964   0.000000
    48  H    4.314625   2.494311   0.000000
 Stoichiometry    C32H16
 Framework group  CS[SG(C32H16)]
 Deg. of freedom    93
 Full point group                 CS      NOp   2
 Largest Abelian subgroup         CS      NOp   2
 Largest concise Abelian subgroup C1      NOp   1
                         Standard orientation:                         
 ---------------------------------------------------------------------
 Center     Atomic      Atomic             Coordinates (Angstroms)
 Number     Number       Type             X           Y           Z
 ---------------------------------------------------------------------
      1          6           0        2.464547    1.014839    0.000000
      2          6           0        2.633177   -1.799177    0.000000
      3          6           0        2.688107   -3.221273    0.000000
      4          6           0        1.548462   -3.971962    0.000000
      5          6           0        0.273926   -3.343144    0.000000
      6          6           0       -0.926755   -4.120865    0.000000
      7          6           0       -2.145055   -3.519271    0.000000
      8          6           0       -2.258059   -2.091691    0.000000
      9          6           0       -3.524594   -1.468489    0.000000
     10          6           0       -0.117804    2.290568    0.000000
     11          6           0        1.386863   -1.159663    0.000000
     12          6           0        0.195460   -1.945613    0.000000
     13          6           0       -1.089175   -1.308225    0.000000
     14          6           0       -1.183938    0.106371    0.000000
     15          6           0        0.000000    0.927018    0.000000
     16          6           0        1.311075    0.276855    0.000000
     17          6           0       -1.396458    2.930937    0.000000
     18          6           0       -3.928462    4.141383    0.000000
     19          6           0       -2.769848    4.921212    0.000000
     20          6           0       -1.518698    4.331441    0.000000
     21          6           0       -2.562898    2.136825    0.000000
     22          6           0       -2.449979    0.711411    0.000000
     23          6           0       -3.629249   -0.090217    0.000000
     24          6           0       -4.916214    0.569162    0.000000
     25          6           0       -5.016177    1.915049    0.000000
     26          6           0       -3.838880    2.752712    0.000000
     27          6           0        3.840671   -1.013959    0.000000
     28          6           0        3.746523    0.389713    0.000000
     29          6           0        4.928282    1.169586    0.000000
     30          6           0        6.159792    0.562119    0.000000
     31          6           0        6.256913   -0.842722    0.000000
     32          6           0        5.121486   -1.615021    0.000000
     33          1           0        2.408429    2.115743    0.000000
     34          1           0        3.680698   -3.697858    0.000000
     35          1           0        1.599034   -5.066755    0.000000
     36          1           0       -0.839270   -5.213464    0.000000
     37          1           0       -3.065599   -4.114284    0.000000
     38          1           0       -4.427983   -2.090893    0.000000
     39          1           0        0.788708    2.917521    0.000000
     40          1           0       -4.911768    4.625121    0.000000
     41          1           0       -2.857215    6.012952    0.000000
     42          1           0       -0.614899    4.951043    0.000000
     43          1           0       -5.811861   -0.062916    0.000000
     44          1           0       -5.994429    2.409501    0.000000
     45          1           0        4.844982    2.262325    0.000000
     46          1           0        7.074850    1.163326    0.000000
     47          1           0        7.245770   -1.312745    0.000000
     48          1           0        5.182316   -2.714083    0.000000
 ---------------------------------------------------------------------
 Rotational constants (GHZ):      0.2538641      0.1094744      0.0764896
 Leave Link  202 at Sat Jul 27 13:19:25 2019, MaxMem=  4194304000 cpu:         0.2
 (Enter /home/minenky/programs//g09/l301.exe)
 Standard basis: def2TZVP (5D, 7F)
 ======================================================================================================
                                       Pseudopotential Parameters
 ======================================================================================================
  Center     Atomic      Valence      Angular      Power
  Number     Number     Electrons     Momentum     of R      Exponent        Coefficient   SO-Coeffient
 ======================================================================================================
    1          6
                                   No pseudopotential on this center.
    2          6
                                   No pseudopotential on this center.
    3          6
                                   No pseudopotential on this center.
    4          6
                                   No pseudopotential on this center.
    5          6
                                   No pseudopotential on this center.
    6          6
                                   No pseudopotential on this center.
    7          6
                                   No pseudopotential on this center.
    8          6
                                   No pseudopotential on this center.
    9          6
                                   No pseudopotential on this center.
   10          6
                                   No pseudopotential on this center.
   11          6
                                   No pseudopotential on this center.
   12          6
                                   No pseudopotential on this center.
   13          6
                                   No pseudopotential on this center.
   14          6
                                   No pseudopotential on this center.
   15          6
                                   No pseudopotential on this center.
   16          6
                                   No pseudopotential on this center.
   17          6
                                   No pseudopotential on this center.
   18          6
                                   No pseudopotential on this center.
   19          6
                                   No pseudopotential on this center.
   20          6
                                   No pseudopotential on this center.
   21          6
                                   No pseudopotential on this center.
   22          6
                                   No pseudopotential on this center.
   23          6
                                   No pseudopotential on this center.
   24          6
                                   No pseudopotential on this center.
   25          6
                                   No pseudopotential on this center.
   26          6
                                   No pseudopotential on this center.
   27          6
                                   No pseudopotential on this center.
   28          6
                                   No pseudopotential on this center.
   29          6
                                   No pseudopotential on this center.
   30          6
                                   No pseudopotential on this center.
   31          6
                                   No pseudopotential on this center.
   32          6
                                   No pseudopotential on this center.
   33          1
                                   No pseudopotential on this center.
   34          1
                                   No pseudopotential on this center.
   35          1
                                   No pseudopotential on this center.
   36          1
                                   No pseudopotential on this center.
   37          1
                                   No pseudopotential on this center.
   38          1
                                   No pseudopotential on this center.
   39          1
                                   No pseudopotential on this center.
   40          1
                                   No pseudopotential on this center.
   41          1
                                   No pseudopotential on this center.
   42          1
                                   No pseudopotential on this center.
   43          1
                                   No pseudopotential on this center.
   44          1
                                   No pseudopotential on this center.
   45          1
                                   No pseudopotential on this center.
   46          1
                                   No pseudopotential on this center.
   47          1
                                   No pseudopotential on this center.
   48          1
                                   No pseudopotential on this center.
 ======================================================================================================
 Ernie: Thresh=  0.10000D-02 Tol=  0.10000D-05 Strict=F.
 AO basis set (Overlap normalization):
 Atom C1       Shell     1 S   6     bf    1 -     1          4.657318162406          1.917768153420          0.000000000000
      0.1357534968D+05  0.6064550360D-03
      0.2035233368D+04  0.4697908888D-02
      0.4632256236D+03  0.2433247765D-01
      0.1312001960D+03  0.9739996831D-01
      0.4285301589D+02  0.3019558425D+00
      0.1558418577D+02  0.6623360914D+00
 Atom C1       Shell     2 S   2     bf    2 -     2          4.657318162406          1.917768153420          0.000000000000
      0.6206713851D+01  0.6559530854D+00
      0.2576489653D+01  0.3758563329D+00
 Atom C1       Shell     3 S   1     bf    3 -     3          4.657318162406          1.917768153420          0.000000000000
      0.5769633942D+00  0.1000000000D+01
 Atom C1       Shell     4 S   1     bf    4 -     4          4.657318162406          1.917768153420          0.000000000000
      0.2297283136D+00  0.1000000000D+01
 Atom C1       Shell     5 S   1     bf    5 -     5          4.657318162406          1.917768153420          0.000000000000
      0.9516444003D-01  0.1000000000D+01
 Atom C1       Shell     6 P   4     bf    6 -     8          4.657318162406          1.917768153420          0.000000000000
      0.3469723224D+02  0.1132722000D-01
      0.7958262283D+01  0.7616965920D-01
      0.2378082688D+01  0.3019225220D+00
      0.8143320818D+00  0.7278502735D+00
 Atom C1       Shell     7 P   1     bf    9 -    11          4.657318162406          1.917768153420          0.000000000000
      0.2888754725D+00  0.1000000000D+01
 Atom C1       Shell     8 P   1     bf   12 -    14          4.657318162406          1.917768153420          0.000000000000
      0.1005682367D+00  0.1000000000D+01
 Atom C1       Shell     9 D   1     bf   15 -    19          4.657318162406          1.917768153420          0.000000000000
      0.1097000000D+01  0.1000000000D+01
 Atom C1       Shell    10 D   1     bf   20 -    24          4.657318162406          1.917768153420          0.000000000000
      0.3180000000D+00  0.1000000000D+01
 Atom C1       Shell    11 F   1     bf   25 -    31          4.657318162406          1.917768153420          0.000000000000
      0.7610000000D+00  0.1000000000D+01
 Atom C2       Shell    12 S   6     bf   32 -    32          4.975982871848         -3.399951631062          0.000000000000
      0.1357534968D+05  0.6064550360D-03
      0.2035233368D+04  0.4697908888D-02
      0.4632256236D+03  0.2433247765D-01
      0.1312001960D+03  0.9739996831D-01
      0.4285301589D+02  0.3019558425D+00
      0.1558418577D+02  0.6623360914D+00
 Atom C2       Shell    13 S   2     bf   33 -    33          4.975982871848         -3.399951631062          0.000000000000
      0.6206713851D+01  0.6559530854D+00
      0.2576489653D+01  0.3758563329D+00
 Atom C2       Shell    14 S   1     bf   34 -    34          4.975982871848         -3.399951631062          0.000000000000
      0.5769633942D+00  0.1000000000D+01
 Atom C2       Shell    15 S   1     bf   35 -    35          4.975982871848         -3.399951631062          0.000000000000
      0.2297283136D+00  0.1000000000D+01
 Atom C2       Shell    16 S   1     bf   36 -    36          4.975982871848         -3.399951631062          0.000000000000
      0.9516444003D-01  0.1000000000D+01
 Atom C2       Shell    17 P   4     bf   37 -    39          4.975982871848         -3.399951631062          0.000000000000
      0.3469723224D+02  0.1132722000D-01
      0.7958262283D+01  0.7616965920D-01
      0.2378082688D+01  0.3019225220D+00
      0.8143320818D+00  0.7278502735D+00
 Atom C2       Shell    18 P   1     bf   40 -    42          4.975982871848         -3.399951631062          0.000000000000
      0.2888754725D+00  0.1000000000D+01
 Atom C2       Shell    19 P   1     bf   43 -    45          4.975982871848         -3.399951631062          0.000000000000
      0.1005682367D+00  0.1000000000D+01
 Atom C2       Shell    20 D   1     bf   46 -    50          4.975982871848         -3.399951631062          0.000000000000
      0.1097000000D+01  0.1000000000D+01
 Atom C2       Shell    21 D   1     bf   51 -    55          4.975982871848         -3.399951631062          0.000000000000
      0.3180000000D+00  0.1000000000D+01
 Atom C2       Shell    22 F   1     bf   56 -    62          4.975982871848         -3.399951631062          0.000000000000
      0.7610000000D+00  0.1000000000D+01
 Atom C3       Shell    23 S   6     bf   63 -    63          5.079785575454         -6.087323578346          0.000000000000
      0.1357534968D+05  0.6064550360D-03
      0.2035233368D+04  0.4697908888D-02
      0.4632256236D+03  0.2433247765D-01
      0.1312001960D+03  0.9739996831D-01
      0.4285301589D+02  0.3019558425D+00
      0.1558418577D+02  0.6623360914D+00
 Atom C3       Shell    24 S   2     bf   64 -    64          5.079785575454         -6.087323578346          0.000000000000
      0.6206713851D+01  0.6559530854D+00
      0.2576489653D+01  0.3758563329D+00
 Atom C3       Shell    25 S   1     bf   65 -    65          5.079785575454         -6.087323578346          0.000000000000
      0.5769633942D+00  0.1000000000D+01
 Atom C3       Shell    26 S   1     bf   66 -    66          5.079785575454         -6.087323578346          0.000000000000
      0.2297283136D+00  0.1000000000D+01
 Atom C3       Shell    27 S   1     bf   67 -    67          5.079785575454         -6.087323578346          0.000000000000
      0.9516444003D-01  0.1000000000D+01
 Atom C3       Shell    28 P   4     bf   68 -    70          5.079785575454         -6.087323578346          0.000000000000
      0.3469723224D+02  0.1132722000D-01
      0.7958262283D+01  0.7616965920D-01
      0.2378082688D+01  0.3019225220D+00
      0.8143320818D+00  0.7278502735D+00
 Atom C3       Shell    29 P   1     bf   71 -    73          5.079785575454         -6.087323578346          0.000000000000
      0.2888754725D+00  0.1000000000D+01
 Atom C3       Shell    30 P   1     bf   74 -    76          5.079785575454         -6.087323578346          0.000000000000
      0.1005682367D+00  0.1000000000D+01
 Atom C3       Shell    31 D   1     bf   77 -    81          5.079785575454         -6.087323578346          0.000000000000
      0.1097000000D+01  0.1000000000D+01
 Atom C3       Shell    32 D   1     bf   82 -    86          5.079785575454         -6.087323578346          0.000000000000
      0.3180000000D+00  0.1000000000D+01
 Atom C3       Shell    33 F   1     bf   87 -    93          5.079785575454         -6.087323578346          0.000000000000
      0.7610000000D+00  0.1000000000D+01
 Atom C4       Shell    34 S   6     bf   94 -    94          2.926169373050         -7.505920219619          0.000000000000
      0.1357534968D+05  0.6064550360D-03
      0.2035233368D+04  0.4697908888D-02
      0.4632256236D+03  0.2433247765D-01
      0.1312001960D+03  0.9739996831D-01
      0.4285301589D+02  0.3019558425D+00
      0.1558418577D+02  0.6623360914D+00
 Atom C4       Shell    35 S   2     bf   95 -    95          2.926169373050         -7.505920219619          0.000000000000
      0.6206713851D+01  0.6559530854D+00
      0.2576489653D+01  0.3758563329D+00
 Atom C4       Shell    36 S   1     bf   96 -    96          2.926169373050         -7.505920219619          0.000000000000
      0.5769633942D+00  0.1000000000D+01
 Atom C4       Shell    37 S   1     bf   97 -    97          2.926169373050         -7.505920219619          0.000000000000
      0.2297283136D+00  0.1000000000D+01
 Atom C4       Shell    38 S   1     bf   98 -    98          2.926169373050         -7.505920219619          0.000000000000
      0.9516444003D-01  0.1000000000D+01
 Atom C4       Shell    39 P   4     bf   99 -   101          2.926169373050         -7.505920219619          0.000000000000
      0.3469723224D+02  0.1132722000D-01
      0.7958262283D+01  0.7616965920D-01
      0.2378082688D+01  0.3019225220D+00
      0.8143320818D+00  0.7278502735D+00
 Atom C4       Shell    40 P   1     bf  102 -   104          2.926169373050         -7.505920219619          0.000000000000
      0.2888754725D+00  0.1000000000D+01
 Atom C4       Shell    41 P   1     bf  105 -   107          2.926169373050         -7.505920219619          0.000000000000
      0.1005682367D+00  0.1000000000D+01
 Atom C4       Shell    42 D   1     bf  108 -   112          2.926169373050         -7.505920219619          0.000000000000
      0.1097000000D+01  0.1000000000D+01
 Atom C4       Shell    43 D   1     bf  113 -   117          2.926169373050         -7.505920219619          0.000000000000
      0.3180000000D+00  0.1000000000D+01
 Atom C4       Shell    44 F   1     bf  118 -   124          2.926169373050         -7.505920219619          0.000000000000
      0.7610000000D+00  0.1000000000D+01
 Atom C5       Shell    45 S   6     bf  125 -   125          0.517644609735         -6.317626466558          0.000000000000
      0.1357534968D+05  0.6064550360D-03
      0.2035233368D+04  0.4697908888D-02
      0.4632256236D+03  0.2433247765D-01
      0.1312001960D+03  0.9739996831D-01
      0.4285301589D+02  0.3019558425D+00
      0.1558418577D+02  0.6623360914D+00
 Atom C5       Shell    46 S   2     bf  126 -   126          0.517644609735         -6.317626466558          0.000000000000
      0.6206713851D+01  0.6559530854D+00
      0.2576489653D+01  0.3758563329D+00
 Atom C5       Shell    47 S   1     bf  127 -   127          0.517644609735         -6.317626466558          0.000000000000
      0.5769633942D+00  0.1000000000D+01
 Atom C5       Shell    48 S   1     bf  128 -   128          0.517644609735         -6.317626466558          0.000000000000
      0.2297283136D+00  0.1000000000D+01
 Atom C5       Shell    49 S   1     bf  129 -   129          0.517644609735         -6.317626466558          0.000000000000
      0.9516444003D-01  0.1000000000D+01
 Atom C5       Shell    50 P   4     bf  130 -   132          0.517644609735         -6.317626466558          0.000000000000
      0.3469723224D+02  0.1132722000D-01
      0.7958262283D+01  0.7616965920D-01
      0.2378082688D+01  0.3019225220D+00
      0.8143320818D+00  0.7278502735D+00
 Atom C5       Shell    51 P   1     bf  133 -   135          0.517644609735         -6.317626466558          0.000000000000
      0.2888754725D+00  0.1000000000D+01
 Atom C5       Shell    52 P   1     bf  136 -   138          0.517644609735         -6.317626466558          0.000000000000
      0.1005682367D+00  0.1000000000D+01
 Atom C5       Shell    53 D   1     bf  139 -   143          0.517644609735         -6.317626466558          0.000000000000
      0.1097000000D+01  0.1000000000D+01
 Atom C5       Shell    54 D   1     bf  144 -   148          0.517644609735         -6.317626466558          0.000000000000
      0.3180000000D+00  0.1000000000D+01
 Atom C5       Shell    55 F   1     bf  149 -   155          0.517644609735         -6.317626466558          0.000000000000
      0.7610000000D+00  0.1000000000D+01
 Atom C6       Shell    56 S   6     bf  156 -   156         -1.751313198723         -7.787306836708          0.000000000000
      0.1357534968D+05  0.6064550360D-03
      0.2035233368D+04  0.4697908888D-02
      0.4632256236D+03  0.2433247765D-01
      0.1312001960D+03  0.9739996831D-01
      0.4285301589D+02  0.3019558425D+00
      0.1558418577D+02  0.6623360914D+00
[...]
 0.00001898,0.00001066,0.,0.00003977,-0.00006664,0.,0.00000947,0.000014
 15,0.,0.14556294,0.00001772,-0.00000491,0.,-0.00000073,-0.00001071,0.,
 0.00001552,0.00002486,0.,0.00001617,-0.00002518,0.,-0.00001952,0.00005
 491,0.,0.00007991,-0.00001417,0.,-0.00001911,-0.00009639,0.,0.00038173
 ,0.00008754,0.,-0.00133450,0.00120486,0.,-0.00001697,-0.00002273,0.,0.
 00002512,0.00000087,0.,-0.00004292,0.00001115,0.,-0.00003545,0.0002625
 5,0.,-0.00031625,-0.00002685,0.,-0.00002045,0.00003703,0.,-0.00003184,
 -0.00001942,0.,0.00007836,0.00010482,0.,0.00123573,-0.00055072,0.,-0.0
 0024801,-0.00042351,0.,-0.00010401,0.00001332,0.,-0.00036127,0.0001382
 9,0.,-0.00095393,0.00070346,0.,-0.00288239,0.00363298,0.,0.12680688,-0
 .25726431,0.,0.01792669,-0.01961865,0.,-0.00422165,-0.00252694,0.,-0.0
 0000066,0.00000768,0.,-0.00002142,0.00000172,0.,0.00001050,0.00000448,
 0.,0.00000066,0.00000053,0.,0.00001155,0.00000104,0.,0.00000012,-0.000
 00977,0.,-0.00000419,0.00000281,0.,0.00000357,-0.00000014,0.,0.0000034
 4,0.00000504,0.,0.00001141,0.00000550,0.,-0.00001209,0.00000593,0.,0.0
 0041559,0.00009608,0.,0.00001891,-0.00001071,0.,-0.00005897,-0.0000026
 1,0.,0.00007709,-0.00011813,0.,0.00001635,-0.00001701,0.,-0.13609961,0
 .27357115,0.,0.,-0.00000804,0.,0.,-0.00000016,0.,0.,-0.00000152,0.,0.,
 -0.00000407,0.,0.,0.00000547,0.,0.,-0.00000943,0.,0.,0.00006776,0.,0.,
 -0.00021742,0.,0.,-0.00174071,0.,0.,0.00004621,0.,0.,-0.00000713,0.,0.
 ,0.00003818,0.,0.,-0.00002640,0.,0.,0.00017043,0.,0.,0.00000993,0.,0.,
 -0.00000987,0.,0.,-0.00074400,0.,0.,0.00002819,0.,0.,-0.00085877,0.,0.
 ,0.00012408,0.,0.,-0.00075197,0.,0.,0.00341246,0.,0.,0.00270601,0.,0.,
 -0.03725288,0.,0.,0.00453916,0.,0.,0.01074603,0.,0.,-0.00000240,0.,0.,
 0.00000682,0.,0.,-0.00000249,0.,0.,-0.00000132,0.,0.,-0.00000086,0.,0.
 ,-0.00000113,0.,0.,0.00000188,0.,0.,0.00000164,0.,0.,0.00000241,0.,0.,
 -0.00000382,0.,0.,0.00000783,0.,0.,0.00025377,0.,0.,0.00000889,0.,0.,0
 .00027135,0.,0.,-0.00002661,0.,0.,0.00011238,0.,0.,0.02522337,-0.00003
 195,0.00000247,0.,-0.00000772,0.00001067,0.,0.00000015,-0.00000035,0.,
 -0.00000219,0.00000235,0.,0.00001351,-0.00001992,0.,-0.00002732,-0.000
 05194,0.,-0.00005774,0.00006150,0.,-0.00003486,-0.00027620,0.,-0.00060
 874,0.00029478,0.,0.00000415,0.00031575,0.,-0.00001717,0.00001232,0.,0
 .00001188,-0.00001838,0.,0.00002271,0.00002115,0.,-0.00005325,0.000040
 62,0.,0.00003355,-0.00008243,0.,0.00003151,0.00001216,0.,-0.00074936,-
 0.00075825,0.,0.00109095,-0.00152199,0.,-0.00005597,0.00035873,0.,0.00
 029114,0.00009777,0.,0.00029392,0.00300641,0.,0.00050708,0.00019421,0.
 ,0.00132333,-0.00230413,0.,-0.01039762,0.00181105,0.,-0.33849607,-0.01
 563049,0.,-0.01342698,-0.00370483,0.,-0.00000533,-0.00001043,0.,0.0000
 2008,-0.00000401,0.,-0.00001087,-0.00000454,0.,-0.00000132,0.00000016,
 0.,-0.00001076,-0.00000090,0.,0.00000043,0.00000910,0.,0.00000956,-0.0
 0000976,0.,-0.00000475,-0.00000031,0.,-0.00000163,-0.00000431,0.,-0.00
 001240,-0.00000305,0.,0.00000609,-0.00000793,0.,0.00001421,-0.00003844
 ,0.,-0.00008888,0.00001273,0.,0.00036917,0.00087533,0.,-0.00001825,0.0
 0004789,0.,0.00003160,0.00003801,0.,0.00089975,-0.00034993,0.,0.359150
 47,0.00001228,-0.00000122,0.,0.00001425,0.00001067,0.,-0.00001786,-0.0
 0002389,0.,-0.00001496,0.00002898,0.,0.00002595,-0.00004722,0.,-0.0000
 6959,-0.00002107,0.,-0.00008720,0.00010943,0.,-0.00022773,-0.00039201,
 0.,-0.00112827,0.00070571,0.,0.00003249,-0.00042989,0.,-0.00001892,-0.
 00001185,0.,0.00006579,0.00001643,0.,0.00001379,-0.00017096,0.,0.00016
 428,0.00018966,0.,-0.00003545,0.00003477,0.,-0.00002780,0.00001816,0.,
 0.00130774,0.00060545,0.,0.00138835,0.00163095,0.,-0.00033887,0.000032
 94,0.,0.00005053,0.00008829,0.,0.00155555,-0.00475316,0.,-0.00026992,-
 0.00063490,0.,-0.00106689,-0.00504712,0.,-0.03058801,0.00271478,0.,-0.
 01424871,-0.05967895,0.,0.02650158,0.00488302,0.,0.00001248,-0.0000059
 7,0.,-0.00000237,0.00001153,0.,-0.00000123,-0.00000253,0.,-0.00000225,
 0.00000393,0.,0.00000178,0.00000075,0.,-0.00000289,0.00000447,0.,-0.00
 000458,0.00001041,0.,-0.00000132,0.00000053,0.,-0.00000171,-0.00000214
 ,0.,-0.00001998,-0.00000364,0.,0.00000840,-0.00000118,0.,0.00003351,-0
 .00004085,0.,0.00013700,0.00000671,0.,-0.00084727,-0.00051487,0.,-0.00
 000418,-0.00000757,0.,-0.00006268,-0.00002947,0.,0.00018582,0.00078501
 ,0.,0.01757768,0.05992537,0.,0.,0.00000972,0.,0.,-0.00000895,0.,0.,-0.
 00000039,0.,0.,-0.00001298,0.,0.,-0.00001463,0.,0.,0.00008615,0.,0.,-0
 .00006250,0.,0.,-0.00102059,0.,0.,0.00005125,0.,0.,-0.00003099,0.,0.,-
 0.00000358,0.,0.,0.00009136,0.,0.,0.00010940,0.,0.,-0.00061654,0.,0.,0
 .00005120,0.,0.,0.00000195,0.,0.,0.00008277,0.,0.,-0.00169195,0.,0.,-0
 .00020398,0.,0.,0.00001304,0.,0.,0.00346682,0.,0.,-0.00070447,0.,0.,0.
 01081876,0.,0.,0.00451051,0.,0.,-0.03736212,0.,0.,0.00271587,0.,0.,0.0
 0000148,0.,0.,-0.00000294,0.,0.,-0.00000112,0.,0.,-0.00000119,0.,0.,-0
 .00000072,0.,0.,-0.00000123,0.,0.,0.00000565,0.,0.,0.00000202,0.,0.,0.
 00000197,0.,0.,0.00000905,0.,0.,-0.00001210,0.,0.,0.00031710,0.,0.,-0.
 00002443,0.,0.,0.00023576,0.,0.,0.00006289,0.,0.,0.00004211,0.,0.,-0.0
 0611757,0.,0.,0.02520406,0.00112533,0.00191146,0.,0.00038366,0.0008921
 8,0.,-0.00022239,0.00005760,0.,-0.00000627,0.00008285,0.,0.00006023,0.
 00000067,0.,-0.00002163,0.00001411,0.,0.00002025,0.00001551,0.,-0.0000
 0190,-0.00002925,0.,0.00000772,0.00000237,0.,0.00002728,0.00006766,0.,
 0.00029983,0.00023812,0.,-0.00001541,-0.00009156,0.,-0.00001905,0.0000
 1143,0.,0.00001762,0.00002423,0.,-0.00006341,-0.00002631,0.,0.00008999
 ,-0.00051928,0.,-0.00003125,-0.00003725,0.,0.00001420,-0.00000452,0.,-
 0.00000717,-0.00000315,0.,0.00001616,0.00000899,0.,0.00001393,-0.00000
 512,0.,0.00001249,-0.00000366,0.,-0.00000189,-0.00000580,0.,-0.0000022
 6,-0.00000154,0.,-0.00000053,0.00000217,0.,0.00000353,0.00000718,0.,-0
 .00153592,0.00275600,0.,0.01021835,0.01516764,0.,-0.11935139,-0.114180
 53,0.,-0.00919044,-0.03017797,0.,-0.00572653,0.00099977,0.,-0.00077395
 ,0.00070165,0.,-0.00043863,-0.00034678,0.,0.00001190,0.00000907,0.,-0.
 00001389,0.00001807,0.,-0.00000208,-0.00000393,0.,0.00000228,-0.000002
 01,0.,0.00000150,-0.00000283,0.,-0.00002813,-0.00002880,0.,0.00000352,
 -0.00000113,0.,0.00000340,0.00000340,0.,-0.00000643,-0.00000482,0.,0.0
 0000176,-0.00000287,0.,0.00000348,-0.00000003,0.,0.12479543,-0.0021927
 4,0.00100573,0.,-0.00124524,-0.00069573,0.,0.00041485,-0.00028122,0.,-
 0.00012897,-0.00007387,0.,0.00003743,-0.00000078,0.,0.00000115,0.00005
 161,0.,0.00004241,-0.00002790,0.,-0.00001650,-0.00002577,0.,-0.0000015
 6,0.00002515,0.,0.00005340,-0.00006737,0.,-0.00005852,0.00014969,0.,0.
 00007312,0.00006280,0.,-0.00002890,-0.00003589,0.,0.00001704,-0.000031
 56,0.,-0.00003103,-0.00004932,0.,0.00042161,0.00014208,0.,-0.00001639,
 0.00005538,0.,0.00000339,0.00000480,0.,-0.00000215,0.00000561,0.,0.000
 01478,-0.00000814,0.,-0.00000923,-0.00001735,0.,-0.00000764,0.00001228
 ,0.,0.00001165,-0.00001109,0.,-0.00001207,0.00001133,0.,0.00001289,-0.
 00000527,0.,0.00000375,0.00000524,0.,0.00403197,-0.00226981,0.,-0.0146
 7461,-0.01945426,0.,-0.11416996,-0.27878140,0.,0.00178289,0.00258444,0
 .,0.00006007,0.00182937,0.,0.00092055,0.00021652,0.,0.00137506,0.00029
 499,0.,-0.00001908,0.00002283,0.,0.00002552,-0.00004480,0.,-0.00000228
 ,-0.00000239,0.,0.00000457,0.00000013,0.,0.00000269,-0.00000148,0.,0.0
 0003051,0.00002899,0.,-0.00000099,0.00000077,0.,0.00000178,0.00000130,
 0.,0.00000298,0.00001128,0.,0.00000086,-0.00000052,0.,-0.00000031,0.00
 000192,0.,0.12363229,0.29465876,0.,0.,-0.00313709,0.,0.,0.00008046,0.,
 0.,0.00017591,0.,0.,-0.00000171,0.,0.,0.00000572,0.,0.,-0.00000731,0.,
 0.,0.00000257,0.,0.,-0.00000447,0.,0.,0.00000129,0.,0.,-0.00006695,0.,
 0.,-0.00004823,0.,0.,0.00003626,0.,0.,0.00000542,0.,0.,-0.00000995,0.,
 0.,0.00017588,0.,0.,-0.00010459,0.,0.,0.00003127,0.,0.,-0.00000234,0.,
 0.,-0.00000464,0.,0.,-0.00002258,0.,0.,-0.00001555,0.,0.,0.00000557,0.
 ,0.,-0.00000126,0.,0.,-0.00000262,0.,0.,-0.00000188,0.,0.,0.00000369,0
 .,0.,0.00542371,0.,0.,0.00294011,0.,0.,-0.03658233,0.,0.,0.00371697,0.
 ,0.,0.00871646,0.,0.,-0.00085868,0.,0.,0.00026264,0.,0.,0.00000989,0.,
 0.,-0.00003830,0.,0.,0.00000036,0.,0.,0.00000116,0.,0.,0.00000033,0.,0
 .,0.00004045,0.,0.,0.00000212,0.,0.,0.00000381,0.,0.,0.00001762,0.,0.,
 0.00000144,0.,0.,0.00000130,0.,0.,0.02518706,0.00012387,0.00141436,0.,
 0.00031549,-0.00018700,0.,-0.00005496,0.00008031,0.,0.00012790,0.00000
 825,0.,-0.00006783,-0.00000688,0.,0.00003615,-0.00002327,0.,-0.0000350
 0,-0.00002055,0.,0.00000659,0.00003837,0.,-0.00000932,-0.00000916,0.,-
 0.00004781,-0.00001430,0.,-0.00015040,-0.00030142,0.,-0.00000509,0.000
 06001,0.,0.00002714,-0.00000853,0.,-0.00005242,-0.00003477,0.,0.000051
 53,0.00013714,0.,-0.00054152,0.00013581,0.,0.00004448,0.00000537,0.,-0
 .00001916,0.00000364,0.,0.00000943,0.00000031,0.,-0.00002686,0.0000027
 0,0.,-0.00000924,0.00001049,0.,-0.00001273,0.00000643,0.,-0.00000403,0
 .00000890,0.,0.00000436,-0.00000002,0.,-0.00000219,-0.00000004,0.,-0.0
 0000277,-0.00001235,0.,-0.00094297,-0.00050887,0.,-0.00540992,-0.00186
 141,0.,-0.01171999,0.02885392,0.,-0.14403693,0.12831490,0.,0.01189905,
 -0.01346488,0.,-0.00056444,-0.00316935,0.,-0.00001277,-0.00004433,0.,0
 .00002332,0.00004266,0.,-0.00000223,0.00000615,0.,0.00000124,0.0000034
 7,0.,-0.00000261,0.00000202,0.,-0.00000208,0.00000284,0.,0.00000949,0.
 00001196,0.,-0.00000225,0.00000038,0.,-0.00000464,-0.00000349,0.,0.000
 00355,-0.00000145,0.,-0.00000217,0.00000256,0.,-0.00000277,-0.00000043
 ,0.,0.00084866,-0.00038429,0.,0.14917547,0.00009169,-0.00002480,0.,0.0
 0019675,-0.00010890,0.,-0.00003630,-0.00001326,0.,0.00007204,-0.000008
 34,0.,-0.00005128,-0.00001552,0.,0.00002943,0.00000266,0.,-0.00001202,
 -0.00001396,0.,0.00001543,0.00001214,0.,-0.00001245,0.00000330,0.,0.00
 001632,-0.00001014,0.,-0.00008688,-0.00012476,0.,-0.00001463,0.0000397
 7,0.,0.00000721,-0.00001435,0.,0.00001707,0.00000646,0.,-0.00002976,0.
 00003728,0.,-0.00001362,0.00017959,0.,-0.00001014,0.00000216,0.,0.0000
 1346,0.00001359,0.,0.00000686,-0.00001067,0.,0.00000404,-0.00000543,0.
 ,0.00001691,0.00000603,0.,0.00000161,-0.00000911,0.,0.00000664,0.00000
 459,0.,-0.00001051,0.00000159,0.,0.00000258,0.00000368,0.,-0.00000424,
 0.00000087,0.,-0.00101320,0.00030764,0.,-0.00125111,0.00148797,0.,-0.0
 0312675,0.00517231,0.,0.12900177,-0.25907284,0.,0.01809719,-0.01741715
 ,0.,-0.00383381,-0.00348517,0.,0.00001107,0.00000298,0.,0.00003846,0.0
 0008416,0.,0.00000090,-0.00000701,0.,-0.00000276,-0.00000194,0.,0.0000
 0463,-0.00000278,0.,0.00000292,-0.00000344,0.,-0.00000357,-0.00000254,
 0.,0.00000267,-0.00000050,0.,0.00000277,0.00000330,0.,-0.00000314,0.00
 000006,0.,0.00000176,-0.00000314,0.,0.00000300,0.00000093,0.,0.0003606
 8,0.00079051,0.,-0.13895206,0.27236533,0.,0.,0.00018370,0.,0.,-0.00085
 571,0.,0.,0.00002172,0.,0.,-0.00005672,0.,0.,-0.00000704,0.,0.,0.00002
 024,0.,0.,0.00000256,0.,0.,-0.00000881,0.,0.,0.00000107,0.,0.,-0.00001
 099,0.,0.,0.00007235,0.,0.,0.00005312,0.,0.,-0.00000491,0.,0.,0.000023
 02,0.,0.,-0.00003004,0.,0.,-0.00054766,0.,0.,0.00000923,0.,0.,-0.00000
 101,0.,0.,-0.00000230,0.,0.,-0.00000505,0.,0.,-0.00000630,0.,0.,0.0000
 0646,0.,0.,0.00000155,0.,0.,-0.00000063,0.,0.,-0.00000096,0.,0.,0.0000
 0025,0.,0.,-0.00096228,0.,0.,0.00935065,0.,0.,0.00315664,0.,0.,-0.0372
 1831,0.,0.,0.00211321,0.,0.,0.00623576,0.,0.,0.00015561,0.,0.,0.000069
 91,0.,0.,0.00000120,0.,0.,0.00000199,0.,0.,-0.00000413,0.,0.,0.0000001
 7,0.,0.,-0.00000384,0.,0.,0.00000101,0.,0.,0.00000190,0.,0.,0.00000406
 ,0.,0.,0.00000097,0.,0.,0.00000079,0.,0.,-0.00487791,0.,0.,0.02597317,
 0.00002450,-0.00002435,0.,-0.00059503,-0.00055061,0.,-0.00006332,-0.00
 000687,0.,0.00001385,0.00002053,0.,-0.00001128,0.00002394,0.,-0.000002
 57,-0.00003012,0.,-0.00001931,0.00002068,0.,-0.00000557,0.00001067,0.,
 0.00000087,-0.00000658,0.,-0.00001988,-0.00001748,0.,-0.00009223,0.000
 31300,0.,-0.00005084,-0.00005588,0.,0.00000471,0.00004689,0.,-0.000014
 30,-0.00000271,0.,0.00003429,0.00000611,0.,0.00004086,0.00006672,0.,0.
 00001795,0.00000509,0.,-0.00000768,-0.00000326,0.,0.00000036,0.0000020
 4,0.,-0.00000913,-0.00000214,0.,-0.00000887,0.00000468,0.,-0.00000417,
 0.00000133,0.,-0.00000291,0.00000455,0.,0.00000908,-0.00000399,0.,-0.0
 0000436,-0.00000186,0.,-0.00000254,-0.00000353,0.,0.00051233,0.0030761
 3,0.,0.00065673,0.00012225,0.,0.00077499,-0.00291126,0.,-0.00961699,0.
 00246305,0.,-0.34142580,-0.01415114,0.,-0.01280710,-0.00369743,0.,0.00
 001470,-0.00001155,0.,-0.00000138,-0.00001177,0.,-0.00000729,0.0000235
 4,0.,0.00000160,0.00000850,0.,-0.00000546,0.00000247,0.,-0.00000424,0.
 00000382,0.,0.00000930,0.00000878,0.,-0.00000342,0.00000065,0.,-0.0000
 0219,-0.00000335,0.,0.00000346,0.00000089,0.,-0.00000207,0.00000348,0.
 ,-0.00000358,-0.00000121,0.,-0.00059930,0.00013367,0.,0.00068900,-0.00
 035598,0.,0.36168494,-0.00038506,0.00029864,0.,0.00091537,0.00096918,0
 .,0.00000528,-0.00007093,0.,-0.00014420,0.00002893,0.,0.00009777,0.000
 01275,0.,-0.00004811,0.00003552,0.,0.00004717,0.00002191,0.,-0.0000048
 6,-0.00003553,0.,0.00001759,0.00000875,0.,0.00002215,0.00000346,0.,0.0
 0029625,-0.00016427,0.,0.00016332,-0.00000006,0.,-0.00002589,-0.000036
 53,0.,-0.00001167,-0.00000470,0.,-0.00001960,0.00000281,0.,-0.00000086
 ,-0.00035039,0.,-0.00001781,0.00000308,0.,0.00000095,-0.00001260,0.,-0
 .00001180,0.00000713,0.,0.00001303,0.00000530,0.,-0.00000989,-0.000014
 77,0.,0.00000281,0.00001799,0.,-0.00000147,-0.00001729,0.,0.00000138,0
 .00000415,0.,0.00000263,-0.00000456,0.,0.00000894,0.00000955,0.,0.0025
 7766,-0.00457370,0.,0.00051826,-0.00122661,0.,-0.00226187,-0.00499490,
 0.,-0.02907749,0.00388130,0.,-0.01511562,-0.06115390,0.,0.02821024,0.0
 0534158,0.,0.00009070,0.00002086,0.,-0.00000464,-0.00002346,0.,0.00000
 801,-0.00001707,0.,0.00000022,-0.00000395,0.,0.00000183,-0.00000020,0.
 ,0.00000224,-0.00000028,0.,0.00000354,0.00000360,0.,-0.00000008,0.0000
 0002,0.,0.00000014,0.00000030,0.,0.00000067,0.00000162,0.,0.00000024,-
 0.00000019,0.,0.00000003,0.00000036,0.,-0.00142830,-0.00003224,0.,0.00
 055825,0.00084509,0.,0.01515236,0.06031394,0.,0.,-0.00085169,0.,0.,0.0
 0017593,0.,0.,0.00030715,0.,0.,-0.00010993,0.,0.,0.00007751,0.,0.,-0.0
 0000054,0.,0.,-0.00001125,0.,0.,0.00000573,0.,0.,0.00000630,0.,0.,-0.0
 0001648,0.,0.,-0.00054136,0.,0.,-0.00004322,0.,0.,-0.00002522,0.,0.,-0
 .00000577,0.,0.,0.00009344,0.,0.,0.00011434,0.,0.,-0.00000066,0.,0.,-0
 .00000065,0.,0.,-0.00000142,0.,0.,-0.00000164,0.,0.,0.00000041,0.,0.,-
 0.00000684,0.,0.,0.00000144,0.,0.,-0.00000201,0.,0.,-0.00000098,0.,0.,
 0.00000147,0.,0.,0.00919054,0.,0.,-0.00109011,0.,0.,0.00620340,0.,0.,0
 .00222236,0.,0.,-0.03648105,0.,0.,0.00277707,0.,0.,0.00003958,0.,0.,-0
 .00004702,0.,0.,0.00001007,0.,0.,0.00000304,0.,0.,0.00000155,0.,0.,0.0
 0000103,0.,0.,0.00000673,0.,0.,0.00000053,0.,0.,0.00000105,0.,0.,0.000
 00221,0.,0.,0.00000086,0.,0.,0.00000067,0.,0.,0.00008034,0.,0.,-0.0028
 6911,0.,0.,0.02566364,-0.00008265,-0.00158946,0.,0.00118881,-0.0005725
 1,0.,-0.00162090,-0.00002367,0.,0.00061959,0.00050330,0.,0.00010160,-0
 .00010513,0.,0.00006601,0.00009561,0.,0.00004958,-0.00000629,0.,-0.000
 00544,-0.00002635,0.,0.00000618,0.00004838,0.,-0.00006216,-0.00001873,
 0.,0.00001514,0.00006782,0.,0.00014853,-0.00008983,0.,-0.00007970,0.00
 001110,0.,-0.00000221,-0.00006910,0.,0.00010223,0.00002086,0.,0.000052
 34,-0.00010462,0.,0.00002815,0.00004119,0.,-0.00002400,-0.00000044,0.,
 -0.00000472,0.00001003,0.,-0.00000908,0.00001048,0.,-0.00003606,-0.000
 01932,0.,-0.00002128,0.00000891,0.,0.00002020,-0.00002543,0.,-0.000017
 60,0.00002490,0.,0.00002533,-0.00001338,0.,0.00002166,-0.00000640,0.,-
 0.00828454,-0.02873390,0.,-0.00549587,0.00148277,0.,-0.00088899,0.0007
 6152,0.,-0.00107577,0.00322071,0.,0.01154478,0.01703533,0.,-0.12760007
 ,-0.12226965,0.,-0.00050113,-0.00005991,0.,0.00004109,0.00236258,0.,-0
 .00002541,0.00000525,0.,-0.00001000,0.00000787,0.,0.00001645,-0.000000
 73,0.,0.00000318,-0.00000138,0.,0.00001628,0.00003993,0.,-0.00000075,-
 0.00000026,0.,-0.00000164,0.00000036,0.,0.00000195,0.00000492,0.,0.000
 00087,-0.00000030,0.,-0.00000125,0.00000307,0.,0.00007734,-0.00011043,
 0.,0.00035042,0.00079834,0.,0.00089929,-0.00014981,0.,0.13045421,0.000
 30514,-0.00009570,0.,-0.00006741,-0.00164595,0.,0.00221024,-0.00170576
 ,0.,0.00031497,0.00020690,0.,-0.00000588,-0.00006560,0.,0.00004979,-0.
 00002115,0.,-0.00003435,-0.00001953,0.,0.00000094,0.00002819,0.,-0.000
 00898,-0.00000796,0.,-0.00003461,-0.00001207,0.,-0.00028232,0.00000135
 ,0.,-0.00007342,-0.00003361,0.,0.00000695,0.00002870,0.,-0.00000792,-0
 .00001448,0.,0.00005177,-0.00000280,0.,-0.00005773,0.00020952,0.,0.000
 03192,0.00000671,0.,-0.00001381,0.00000450,0.,0.00000735,0.00000255,0.
 ,-0.00001716,-0.00000344,0.,-0.00000750,0.00000639,0.,-0.00001211,-0.0
 0000758,0.,-0.00000034,0.00001242,0.,0.00000330,-0.00000186,0.,-0.0000
 0063,0.,0.,-0.00000493,-0.00001042,0.,-0.00095785,0.00279910,0.,0.0004
 7103,0.00151366,0.,0.00081735,0.00031712,0.,0.00404184,-0.00287702,0.,
 -0.01558915,-0.01997236,0.,-0.12109983,-0.27593758,0.,-0.00000653,0.00
 000229,0.,0.00300234,-0.00214458,0.,0.00000008,-0.00000982,0.,-0.00000
 027,0.00000534,0.,-0.00000178,0.00000259,0.,-0.00000362,0.00000332,0.,
 0.00000118,0.00000789,0.,-0.00000278,0.00000066,0.,-0.00000204,-0.0000
 0301,0.,0.00000253,0.00000066,0.,-0.00000173,0.00000310,0.,-0.00000306
 ,-0.00000068,0.,-0.00007772,-0.00005536,0.,-0.00070233,-0.00101822,0.,
 0.00032726,0.00090031,0.,0.12743181,0.29960327,0.,0.,0.00014096,0.,0.,
 -0.00218827,0.,0.,-0.00086491,0.,0.,-0.00013141,0.,0.,0.00002741,0.,0.
 ,0.00005967,0.,0.,-0.00000202,0.,0.,-0.00000076,0.,0.,-0.00000680,0.,0
 .,-0.00003816,0.,0.,-0.00012046,0.,0.,0.00012947,0.,0.,0.00000814,0.,0
 .,0.00000616,0.,0.,0.00006912,0.,0.,-0.00026607,0.,0.,0.00002364,0.,0.
 ,-0.00000701,0.,0.,0.00000005,0.,0.,-0.00000345,0.,0.,-0.00002940,0.,0
 .,0.00000222,0.,0.,0.00000464,0.,0.,0.00000050,0.,0.,-0.00000663,0.,0.
 ,0.00001697,0.,0.,0.00206902,0.,0.,0.00602537,0.,0.,-0.00099153,0.,0.,
 0.00899815,0.,0.,0.00351675,0.,0.,-0.03583355,0.,0.,0.00009512,0.,0.,0
 .00186635,0.,0.,-0.00002624,0.,0.,0.00000742,0.,0.,-0.00001427,0.,0.,0
 .00000113,0.,0.,0.00000887,0.,0.,0.00000144,0.,0.,0.00000116,0.,0.,0.0
 0000035,0.,0.,0.00000109,0.,0.,0.00000129,0.,0.,-0.00114142,0.,0.,0.00
 001137,0.,0.,-0.00488147,0.,0.,0.02345999\\0.00000709,-0.00000284,0.,0
 .00000636,-0.00000250,0.,-0.00000152,0.00000183,0.,-0.00000089,-0.0000
 0055,0.,-0.00000187,0.00000426,0.,0.00000236,-0.00000150,0.,-0.0000043
 0,-0.00000259,0.,-0.00000217,0.00000502,0.,0.00000054,-0.00000087,0.,-
 0.00000315,-0.00000241,0.,-0.00000365,-0.00000164,0.,-0.00000320,-0.00
 000047,0.,0.00000315,-0.00000428,0.,0.00000053,0.00000187,0.,0.0000009
 4,-0.00000021,0.,-0.00000004,0.00000475,0.,0.00000133,-0.00000276,0.,-
 0.00000014,-0.00000313,0.,0.00000003,-0.00000111,0.,0.00000203,0.00000
 006,0.,0.00000242,0.00000371,0.,-0.00000275,-0.00000617,0.,-0.00000367
 ,0.00000088,0.,0.00000309,0.00000104,0.,0.00000024,-0.00000579,0.,-0.0
 0000136,0.00000061,0.,-0.00000329,0.00000578,0.,-0.00000296,0.00000127
 ,0.,0.00000417,-0.00000046,0.,-0.00000154,0.00000031,0.,0.00000064,0.0
 0000369,0.,0.00000159,-0.00000013,0.,0.00000072,0.00000201,0.,-0.00000
 006,0.00000160,0.,-0.00000091,0.00000051,0.,-0.00000224,0.00000040,0.,
 -0.00000085,-0.00000030,0.,-0.00000113,-0.00000172,0.,0.00000010,0.000
 00079,0.,0.00000127,-0.00000180,0.,0.00000152,-0.00000140,0.,0.0000009
 0,-0.00000060,0.,-0.00000146,-0.00000245,0.,0.00000016,-0.00000118,0.,
 0.00000055,0.00000187,0.,0.00000162,0.00000203,0.,0.00000012,0.0000019
 2,0.,-0.00000032,0.00000261,0.\\\@


 We're simply so accustomed to the marvels of everyday thought
 that we never wonder about it.
 -- Marvin Minsky in "Why people think computers are smart"
 Job cpu time:       4 days 19 hours 29 minutes 41.8 seconds.
 File lengths (MBytes):  RWF=   4428 Int=      0 D2E=      0 Chk=     85 Scr=      1
 Normal termination of Gaussian 09 at Sun Jul 28 01:00:14 2019.
