 Entering Gaussian System, Link 0=g09
 Initial command:
 /home/minenky/programs//g09/l1.exe "/local/scratch/minenky/m1_00_190-72-7-C32H16_wB97XD/Gau-36007.inp" -scrdir="/local/scratch/minenky/m1_00_190-72-7-C32H16_wB97XD/"
 Entering Link 1 = /home/minenky/programs//g09/l1.exe PID=     36008.
  
 Copyright (c) 1988,1990,1992,1993,1995,1998,2003,2009,2013,
            Gaussian, Inc.  All Rights Reserved.
  
 This is part of the Gaussian(R) 09 program.  It is based on
 the Gaussian(R) 03 system (copyright 2003, Gaussian, Inc.),
 the Gaussian(R) 98 system (copyright 1998, Gaussian, Inc.),
 the Gaussian(R) 94 system (copyright 1995, Gaussian, Inc.),
 the Gaussian 92(TM) system (copyright 1992, Gaussian, Inc.),
 the Gaussian 90(TM) system (copyright 1990, Gaussian, Inc.),
 the Gaussian 88(TM) system (copyright 1988, Gaussian, Inc.),
 the Gaussian 86(TM) system (copyright 1986, Carnegie Mellon
 University), and the Gaussian 82(TM) system (copyright 1983,
 Carnegie Mellon University). Gaussian is a federally registered
 trademark of Gaussian, Inc.
  
 This software contains proprietary and confidential information,
 including trade secrets, belonging to Gaussian, Inc.
  
 This software is provided under written license and may be
 used, copied, transmitted, or stored only in accord with that
 written license.
  
 The following legend is applicable only to US Government
 contracts under FAR:
  
                    RESTRICTED RIGHTS LEGEND
  
 Use, reproduction and disclosure by the US Government is
 subject to restrictions as set forth in subparagraphs (a)
 and (c) of the Commercial Computer Software - Restricted
 Rights clause in FAR 52.227-19.
  
 Gaussian, Inc.
 340 Quinnipiac St., Bldg. 40, Wallingford CT 06492
  
  
 ---------------------------------------------------------------
 Warning -- This program may not be used in any manner that
 competes with the business of Gaussian, Inc. or will provide
 assistance to any competitor of Gaussian, Inc.  The licensee
 of this program is prohibited from giving any competitor of
 Gaussian, Inc. access to this program.  By using this program,
 the user acknowledges that Gaussian, Inc. is engaged in the
 business of creating and licensing software in the field of
 computational chemistry and represents and warrants to the
 licensee that it is not a competitor of Gaussian, Inc. and that
 it will not use this program in any manner prohibited above.
 ---------------------------------------------------------------
  

 Cite this work as:
 Gaussian 09, Revision D.01,
 M. J. Frisch, G. W. Trucks, H. B. Schlegel, G. E. Scuseria, 
 M. A. Robb, J. R. Cheeseman, G. Scalmani, V. Barone, B. Mennucci, 
 G. A. Petersson, H. Nakatsuji, M. Caricato, X. Li, H. P. Hratchian, 
 A. F. Izmaylov, J. Bloino, G. Zheng, J. L. Sonnenberg, M. Hada, 
 M. Ehara, K. Toyota, R. Fukuda, J. Hasegawa, M. Ishida, T. Nakajima, 
 Y. Honda, O. Kitao, H. Nakai, T. Vreven, J. A. Montgomery, Jr., 
 J. E. Peralta, F. Ogliaro, M. Bearpark, J. J. Heyd, E. Brothers, 
 K. N. Kudin, V. N. Staroverov, T. Keith, R. Kobayashi, J. Normand, 
 K. Raghavachari, A. Rendell, J. C. Burant, S. S. Iyengar, J. Tomasi, 
 M. Cossi, N. Rega, J. M. Millam, M. Klene, J. E. Knox, J. B. Cross, 
 V. Bakken, C. Adamo, J. Jaramillo, R. Gomperts, R. E. Stratmann, 
 O. Yazyev, A. J. Austin, R. Cammi, C. Pomelli, J. W. Ochterski, 
 R. L. Martin, K. Morokuma, V. G. Zakrzewski, G. A. Voth, 
 P. Salvador, J. J. Dannenberg, S. Dapprich, A. D. Daniels, 
 O. Farkas, J. B. Foresman, J. V. Ortiz, J. Cioslowski, 
 and D. J. Fox, Gaussian, Inc., Wallingford CT, 2013.
 
 ******************************************
 Gaussian 09:  AM64L-G09RevD.01 24-Apr-2013
                27-Jul-2019 
 ******************************************
 %Mem=32000MB
 %NProcShared=16
 Will use up to   16 processors via shared memory.
 %Chk=m1_00_190-72-7-C32H16_wB97XD
 ----------------------------------------------------------------------
 #P wB97XD/def2tzvp opt=(tight) freq integral(Grid=ultrafine) # SCF(Max
 Cycle=380) 5d 7f GFPrint
 ----------------------------------------------------------------------
 1/7=10,14=-1,18=20,19=15,26=4,38=1/1,3;
 2/9=110,12=2,17=6,18=5,40=1/2;
 3/5=44,7=101,8=11,11=2,16=1,24=100,25=1,30=1,71=1,74=-58,75=-5/1,2,3;
 4//1;
 5/5=2,7=380,38=5/2;
 6/7=2,8=2,9=2,10=2,28=1/1;
 7//1,2,3,16;
 1/7=10,14=-1,18=20,19=15,26=4/3(2);
 2/9=110/2;
 99//99;
 2/9=110/2;
 3/5=44,7=101,8=11,11=2,16=1,25=1,30=1,71=1,74=-58,75=-5/1,2,3;
 4/5=5,16=3,69=1/1;
 5/5=2,7=380,38=5/2;
 7//1,2,3,16;
 1/7=10,14=-1,18=20,19=15,26=4/3(-5);
 2/9=110/2;
 6/7=2,8=2,9=2,10=2,19=2,28=1/1;
 99/9=1/99;
 Leave Link    1 at Sat Jul 27 14:31:51 2019, MaxMem=  4194304000 cpu:         1.0
 (Enter /home/minenky/programs//g09/l101.exe)
 ---------------------------------------
 The PBEPBE optimization and frequencies
 ---------------------------------------
 Symbolic Z-matrix:
 Charge =  0 Multiplicity = 1
 C                     2.6668    4.0601    7.1599 
 C                     3.4127    3.5557    8.2649 
 C                     3.1908    3.9215    5.81 
 C                     1.4227    4.6884    7.4169 
 C                     4.6941    2.9061    8.0364 
 C                     2.8736    3.7063    9.5669 
 C                     5.1938    2.7779    6.7173 
 C                     4.4397    3.287     5.6006 
 C                     4.9641    3.1463    4.2741 
 C                     6.4554    2.1394    6.4826 
 C                     5.4714    2.3895    9.1101 
 C                     2.479     4.4093    4.6789 
 C                     6.9797    1.9985    5.1561 
 C                     6.2256    2.5077    4.0393 
 C                     6.7253    2.3795    2.7203 
 C                     8.2284    1.3639    4.9466 
 C                     7.2002    1.637     7.5854 
 C                     4.2194    3.6491    3.1713 
 C                     8.7522    1.2246    3.5967 
 C                     8.0064    1.7293    2.4917 
 C                     8.5453    1.5783    1.1897 
 C                     9.9957    0.5954    3.3395 
 C                     8.9405    0.8766    6.0777 
 C                     5.9483    2.8967    1.6467 
 C                     8.4471    1.0072    7.3481 
 C                     6.6775    1.7787    8.8946 
 C                     4.7423    3.5077    1.8621 
 C                     2.9727    4.279     3.4087 
 C                     9.76      0.961     0.9707 
 C                     10.4946   0.4629    2.0596 
 C                     0.9236    4.8205    8.6968 
 C                     1.6585    4.3228    9.7858 
 H                     0.8359    5.081     6.5952 
 H                     3.4198    3.3318    10.4242 
 H                     5.1126    2.4747    10.1284 
 H                     1.5215    4.8978    4.8111 
 H                     7.9991    1.953     0.3324 
 H                     10.5823   0.2023    4.1612 
 H                     9.8982    0.3883    5.9456 
 H                     6.3073    2.8118    0.6283 
 H                     9.0112    0.6264    8.196 
 H                     7.2526    1.3925    9.7326 
 H                     4.1675    3.8944    1.0242 
 H                     2.4088    4.6602    2.5608 
 H                     10.1435   0.862    -0.0411 
 H                     11.4518  -0.0252    1.8985 
 H                    -0.034     5.3078    8.8579 
 H                     1.2747    4.4214    10.7975 
 
 NAtoms=     48 NQM=       48 NQMF=       0 NMMI=      0 NMMIF=      0
                NMic=       0 NMicF=      0.
                    Isotopes and Nuclear Properties:
 (Nuclear quadrupole moments (NQMom) in fm**2, nuclear magnetic moments (NMagM)
  in nuclear magnetons)

  Atom         1           2           3           4           5           6           7           8           9          10
 IAtWgt=          12          12          12          12          12          12          12          12          12          12
 AtmWgt=  12.0000000  12.0000000  12.0000000  12.0000000  12.0000000  12.0000000  12.0000000  12.0000000  12.0000000  12.0000000
 NucSpn=           0           0           0           0           0           0           0           0           0           0
 AtZEff=   0.0000000   0.0000000   0.0000000   0.0000000   0.0000000   0.0000000   0.0000000   0.0000000   0.0000000   0.0000000
 NQMom=    0.0000000   0.0000000   0.0000000   0.0000000   0.0000000   0.0000000   0.0000000   0.0000000   0.0000000   0.0000000
 NMagM=    0.0000000   0.0000000   0.0000000   0.0000000   0.0000000   0.0000000   0.0000000   0.0000000   0.0000000   0.0000000
 AtZNuc=   6.0000000   6.0000000   6.0000000   6.0000000   6.0000000   6.0000000   6.0000000   6.0000000   6.0000000   6.0000000

  Atom        11          12          13          14          15          16          17          18          19          20
 IAtWgt=          12          12          12          12          12          12          12          12          12          12
 AtmWgt=  12.0000000  12.0000000  12.0000000  12.0000000  12.0000000  12.0000000  12.0000000  12.0000000  12.0000000  12.0000000
 NucSpn=           0           0           0           0           0           0           0           0           0           0
 AtZEff=   0.0000000   0.0000000   0.0000000   0.0000000   0.0000000   0.0000000   0.0000000   0.0000000   0.0000000   0.0000000
 NQMom=    0.0000000   0.0000000   0.0000000   0.0000000   0.0000000   0.0000000   0.0000000   0.0000000   0.0000000   0.0000000
 NMagM=    0.0000000   0.0000000   0.0000000   0.0000000   0.0000000   0.0000000   0.0000000   0.0000000   0.0000000   0.0000000
 AtZNuc=   6.0000000   6.0000000   6.0000000   6.0000000   6.0000000   6.0000000   6.0000000   6.0000000   6.0000000   6.0000000

  Atom        21          22          23          24          25          26          27          28          29          30
 IAtWgt=          12          12          12          12          12          12          12          12          12          12
 AtmWgt=  12.0000000  12.0000000  12.0000000  12.0000000  12.0000000  12.0000000  12.0000000  12.0000000  12.0000000  12.0000000
 NucSpn=           0           0           0           0           0           0           0           0           0           0
 AtZEff=   0.0000000   0.0000000   0.0000000   0.0000000   0.0000000   0.0000000   0.0000000   0.0000000   0.0000000   0.0000000
 NQMom=    0.0000000   0.0000000   0.0000000   0.0000000   0.0000000   0.0000000   0.0000000   0.0000000   0.0000000   0.0000000
 NMagM=    0.0000000   0.0000000   0.0000000   0.0000000   0.0000000   0.0000000   0.0000000   0.0000000   0.0000000   0.0000000
 AtZNuc=   6.0000000   6.0000000   6.0000000   6.0000000   6.0000000   6.0000000   6.0000000   6.0000000   6.0000000   6.0000000

  Atom        31          32          33          34          35          36          37          38          39          40
 IAtWgt=          12          12           1           1           1           1           1           1           1           1
 AtmWgt=  12.0000000  12.0000000   1.0078250   1.0078250   1.0078250   1.0078250   1.0078250   1.0078250   1.0078250   1.0078250
 NucSpn=           0           0           1           1           1           1           1           1           1           1
 AtZEff=   0.0000000   0.0000000   0.0000000   0.0000000   0.0000000   0.0000000   0.0000000   0.0000000   0.0000000   0.0000000
 NQMom=    0.0000000   0.0000000   0.0000000   0.0000000   0.0000000   0.0000000   0.0000000   0.0000000   0.0000000   0.0000000
 NMagM=    0.0000000   0.0000000   2.7928460   2.7928460   2.7928460   2.7928460   2.7928460   2.7928460   2.7928460   2.7928460
 AtZNuc=   6.0000000   6.0000000   1.0000000   1.0000000   1.0000000   1.0000000   1.0000000   1.0000000   1.0000000   1.0000000

  Atom        41          42          43          44          45          46          47          48
 IAtWgt=           1           1           1           1           1           1           1           1
 AtmWgt=   1.0078250   1.0078250   1.0078250   1.0078250   1.0078250   1.0078250   1.0078250   1.0078250
 NucSpn=           1           1           1           1           1           1           1           1
 AtZEff=   0.0000000   0.0000000   0.0000000   0.0000000   0.0000000   0.0000000   0.0000000   0.0000000
 NQMom=    0.0000000   0.0000000   0.0000000   0.0000000   0.0000000   0.0000000   0.0000000   0.0000000
 NMagM=    2.7928460   2.7928460   2.7928460   2.7928460   2.7928460   2.7928460   2.7928460   2.7928460
 AtZNuc=   1.0000000   1.0000000   1.0000000   1.0000000   1.0000000   1.0000000   1.0000000   1.0000000
 Leave Link  101 at Sat Jul 27 14:31:52 2019, MaxMem=  4194304000 cpu:         3.2
 (Enter /home/minenky/programs//g09/l103.exe)

 GradGradGradGradGradGradGradGradGradGradGradGradGradGradGradGradGradGrad
 Berny optimization.
 Initialization pass.
                           ----------------------------
                           !    Initial Parameters    !
                           ! (Angstroms and Degrees)  !
 --------------------------                            --------------------------
 ! Name  Definition              Value          Derivative Info.                !
 --------------------------------------------------------------------------------
 ! R1    R(1,2)                  1.4254         estimate D2E/DX2                !
 ! R2    R(1,3)                  1.4547         estimate D2E/DX2                !
 ! R3    R(1,4)                  1.4172         estimate D2E/DX2                !
 ! R4    R(2,5)                  1.4547         estimate D2E/DX2                !
 ! R5    R(2,6)                  1.4172         estimate D2E/DX2                !
 ! R6    R(3,8)                  1.4164         estimate D2E/DX2                !
 ! R7    R(3,12)                 1.4227         estimate D2E/DX2                !
 ! R8    R(4,31)                 1.3801         estimate D2E/DX2                !
 ! R9    R(4,33)                 1.0834         estimate D2E/DX2                !
 ! R10   R(5,7)                  1.4164         estimate D2E/DX2                !
 ! R11   R(5,11)                 1.4226         estimate D2E/DX2                !
 ! R12   R(6,32)                 1.38           estimate D2E/DX2                !
 ! R13   R(6,34)                 1.0833         estimate D2E/DX2                !
 ! R14   R(7,8)                  1.4404         estimate D2E/DX2                !
 ! R15   R(7,10)                 1.4333         estimate D2E/DX2                !
 ! R16   R(8,9)                  1.4333         estimate D2E/DX2                !
 ! R17   R(9,14)                 1.4333         estimate D2E/DX2                !
 ! R18   R(9,18)                 1.4225         estimate D2E/DX2                !
 ! R19   R(10,13)                1.4333         estimate D2E/DX2                !
 ! R20   R(10,17)                1.4224         estimate D2E/DX2                !
 ! R21   R(11,26)                1.369          estimate D2E/DX2                !
 ! R22   R(11,35)                1.083          estimate D2E/DX2                !
 ! R23   R(12,28)                1.369          estimate D2E/DX2                !
 ! R24   R(12,36)                1.083          estimate D2E/DX2                !
 ! R25   R(13,14)                1.4406         estimate D2E/DX2                !
 ! R26   R(13,16)                1.4163         estimate D2E/DX2                !
 ! R27   R(14,15)                1.4163         estimate D2E/DX2                !
 ! R28   R(15,20)                1.4547         estimate D2E/DX2                !
 ! R29   R(15,24)                1.4226         estimate D2E/DX2                !
 ! R30   R(16,19)                1.4546         estimate D2E/DX2                !
 ! R31   R(16,23)                1.4227         estimate D2E/DX2                !
 ! R32   R(17,25)                1.4169         estimate D2E/DX2                !
 ! R33   R(17,26)                1.4168         estimate D2E/DX2                !
 ! R34   R(18,27)                1.4168         estimate D2E/DX2                !
 ! R35   R(18,28)                1.4168         estimate D2E/DX2                !
 ! R36   R(19,20)                1.4255         estimate D2E/DX2                !
 ! R37   R(19,22)                1.4172         estimate D2E/DX2                !
 ! R38   R(20,21)                1.4172         estimate D2E/DX2                !
 ! R39   R(21,29)                1.38           estimate D2E/DX2                !
 ! R40   R(21,37)                1.0834         estimate D2E/DX2                !
 ! R41   R(22,30)                1.3801         estimate D2E/DX2                !
 ! R42   R(22,38)                1.0834         estimate D2E/DX2                !
 ! R43   R(23,25)                1.3691         estimate D2E/DX2                !
 ! R44   R(23,39)                1.0831         estimate D2E/DX2                !
 ! R45   R(24,27)                1.369          estimate D2E/DX2                !
 ! R46   R(24,40)                1.0832         estimate D2E/DX2                !
 ! R47   R(25,41)                1.0873         estimate D2E/DX2                !
 ! R48   R(26,42)                1.0873         estimate D2E/DX2                !
 ! R49   R(27,43)                1.0872         estimate D2E/DX2                !
 ! R50   R(28,44)                1.0873         estimate D2E/DX2                !
 ! R51   R(29,30)                1.4048         estimate D2E/DX2                !
 ! R52   R(29,45)                1.0866         estimate D2E/DX2                !
 ! R53   R(30,46)                1.0865         estimate D2E/DX2                !
 ! R54   R(31,32)                1.4049         estimate D2E/DX2                !
 ! R55   R(31,47)                1.0865         estimate D2E/DX2                !
 ! R56   R(32,48)                1.0865         estimate D2E/DX2                !
 ! A1    A(2,1,3)              119.813          estimate D2E/DX2                !
 ! A2    A(2,1,4)              118.402          estimate D2E/DX2                !
 ! A3    A(3,1,4)              121.785          estimate D2E/DX2                !
 ! A4    A(1,2,5)              119.8145         estimate D2E/DX2                !
 ! A5    A(1,2,6)              118.3939         estimate D2E/DX2                !
 ! A6    A(5,2,6)              121.7917         estimate D2E/DX2                !
 ! A7    A(1,3,8)              119.8347         estimate D2E/DX2                !
 ! A8    A(1,3,12)             121.6616         estimate D2E/DX2                !
 ! A9    A(8,3,12)             118.5037         estimate D2E/DX2                !
 ! A10   A(1,4,31)             121.8745         estimate D2E/DX2                !
 ! A11   A(1,4,33)             119.9069         estimate D2E/DX2                !
 ! A12   A(31,4,33)            118.2186         estimate D2E/DX2                !
 ! A13   A(2,5,7)              119.8329         estimate D2E/DX2                !
 ! A14   A(2,5,11)             121.6609         estimate D2E/DX2                !
 ! A15   A(7,5,11)             118.5062         estimate D2E/DX2                !
 ! A16   A(2,6,32)             121.8792         estimate D2E/DX2                !
 ! A17   A(2,6,34)             119.9013         estimate D2E/DX2                !
 ! A18   A(32,6,34)            118.2195         estimate D2E/DX2                !
 ! A19   A(5,7,8)              120.352          estimate D2E/DX2                !
 ! A20   A(5,7,10)             120.2219         estimate D2E/DX2                !
 ! A21   A(8,7,10)             119.4261         estimate D2E/DX2                !
 ! A22   A(3,8,7)              120.3529         estimate D2E/DX2                !
 ! A23   A(3,8,9)              120.2249         estimate D2E/DX2                !
 ! A24   A(7,8,9)              119.4223         estimate D2E/DX2                !
 ! A25   A(8,9,14)             121.1554         estimate D2E/DX2                !
 ! A26   A(8,9,18)             119.4222         estimate D2E/DX2                !
 ! A27   A(14,9,18)            119.4224         estimate D2E/DX2                !
 ! A28   A(7,10,13)            121.1521         estimate D2E/DX2                !
 ! A29   A(7,10,17)            119.424          estimate D2E/DX2                !
 ! A30   A(13,10,17)           119.4239         estimate D2E/DX2                !
 ! A31   A(5,11,26)            121.6393         estimate D2E/DX2                !
 ! A32   A(5,11,35)            120.0028         estimate D2E/DX2                !
 ! A33   A(26,11,35)           118.3578         estimate D2E/DX2                !
 ! A34   A(3,12,28)            121.6422         estimate D2E/DX2                !
 ! A35   A(3,12,36)            119.9966         estimate D2E/DX2                !
 ! A36   A(28,12,36)           118.3611         estimate D2E/DX2                !
 ! A37   A(10,13,14)           119.4231         estimate D2E/DX2                !
 ! A38   A(10,13,16)           120.2294         estimate D2E/DX2                !
 ! A39   A(14,13,16)           120.3475         estimate D2E/DX2                !
 ! A40   A(9,14,13)            119.4211         estimate D2E/DX2                !
 ! A41   A(9,14,15)            120.2271         estimate D2E/DX2                !
 ! A42   A(13,14,15)           120.3518         estimate D2E/DX2                !
 ! A43   A(14,15,20)           119.8358         estimate D2E/DX2                !
 ! A44   A(14,15,24)           118.5034         estimate D2E/DX2                !
 ! A45   A(20,15,24)           121.6609         estimate D2E/DX2                !
 ! A46   A(13,16,19)           119.8452         estimate D2E/DX2                !
 ! A47   A(13,16,23)           118.5019         estimate D2E/DX2                !
 ! A48   A(19,16,23)           121.6529         estimate D2E/DX2                !
 ! A49   A(10,17,25)           119.2042         estimate D2E/DX2                !
 ! A50   A(10,17,26)           119.2037         estimate D2E/DX2                !
 ! A51   A(25,17,26)           121.5921         estimate D2E/DX2                !
 ! A52   A(9,18,27)            119.2006         estimate D2E/DX2                !
 ! A53   A(9,18,28)            119.2022         estimate D2E/DX2                !
 ! A54   A(27,18,28)           121.5972         estimate D2E/DX2                !
 ! A55   A(16,19,20)           119.8058         estimate D2E/DX2                !
 ! A56   A(16,19,22)           121.7963         estimate D2E/DX2                !
 ! A57   A(20,19,22)           118.398          estimate D2E/DX2                !
 ! A58   A(15,20,19)           119.8139         estimate D2E/DX2                !
 ! A59   A(15,20,21)           121.7941         estimate D2E/DX2                !
 ! A60   A(19,20,21)           118.392          estimate D2E/DX2                !
 ! A61   A(20,21,29)           121.8808         estimate D2E/DX2                !
 ! A62   A(20,21,37)           119.8969         estimate D2E/DX2                !
 ! A63   A(29,21,37)           118.2223         estimate D2E/DX2                !
 ! A64   A(19,22,30)           121.8804         estimate D2E/DX2                !
 ! A65   A(19,22,38)           119.9026         estimate D2E/DX2                !
 ! A66   A(30,22,38)           118.217          estimate D2E/DX2                !
 ! A67   A(16,23,25)           121.6473         estimate D2E/DX2                !
 ! A68   A(16,23,39)           120.0035         estimate D2E/DX2                !
 ! A69   A(25,23,39)           118.3492         estimate D2E/DX2                !
 ! A70   A(15,24,27)           121.6457         estimate D2E/DX2                !
 ! A71   A(15,24,40)           120.0018         estimate D2E/DX2                !
 ! A72   A(27,24,40)           118.3525         estimate D2E/DX2                !
 ! A73   A(17,25,23)           120.9933         estimate D2E/DX2                !
 ! A74   A(17,25,41)           118.792          estimate D2E/DX2                !
 ! A75   A(23,25,41)           120.2148         estimate D2E/DX2                !
 ! A76   A(11,26,17)           121.0049         estimate D2E/DX2                !
 ! A77   A(11,26,42)           120.2089         estimate D2E/DX2                !
 ! A78   A(17,26,42)           118.7863         estimate D2E/DX2                !
 ! A79   A(18,27,24)           121.0008         estimate D2E/DX2                !
 ! A80   A(18,27,43)           118.7851         estimate D2E/DX2                !
 ! A81   A(24,27,43)           120.2141         estimate D2E/DX2                !
 ! A82   A(12,28,18)           121.0049         estimate D2E/DX2                !
 ! A83   A(12,28,44)           120.2083         estimate D2E/DX2                !
 ! A84   A(18,28,44)           118.7868         estimate D2E/DX2                !
 ! A85   A(21,29,30)           119.727          estimate D2E/DX2                !
 ! A86   A(21,29,45)           119.9464         estimate D2E/DX2                !
 ! A87   A(30,29,45)           120.3266         estimate D2E/DX2                !
 ! A88   A(22,30,29)           119.7217         estimate D2E/DX2                !
 ! A89   A(22,30,46)           119.9429         estimate D2E/DX2                !
 ! A90   A(29,30,46)           120.3354         estimate D2E/DX2                !
 ! A91   A(4,31,32)            119.7216         estimate D2E/DX2                !
 ! A92   A(4,31,47)            119.9463         estimate D2E/DX2                !
 ! A93   A(32,31,47)           120.3321         estimate D2E/DX2                !
 ! A94   A(6,32,31)            119.7288         estimate D2E/DX2                !
 ! A95   A(6,32,48)            119.9507         estimate D2E/DX2                !
 ! A96   A(31,32,48)           120.3205         estimate D2E/DX2                !
 ! D1    D(3,1,2,5)              0.0445         estimate D2E/DX2                !
 ! D2    D(3,1,2,6)           -179.9675         estimate D2E/DX2                !
 ! D3    D(4,1,2,5)           -179.9516         estimate D2E/DX2                !
 ! D4    D(4,1,2,6)              0.0364         estimate D2E/DX2                !
 ! D5    D(2,1,3,8)             -0.0435         estimate D2E/DX2                !
 ! D6    D(2,1,3,12)           179.9452         estimate D2E/DX2                !
 ! D7    D(4,1,3,8)            179.9525         estimate D2E/DX2                !
 ! D8    D(4,1,3,12)            -0.0589         estimate D2E/DX2                !
 ! D9    D(2,1,4,31)            -0.0259         estimate D2E/DX2                !
 ! D10   D(2,1,4,33)           179.9668         estimate D2E/DX2                !
 ! D11   D(3,1,4,31)           179.9781         estimate D2E/DX2                !
 ! D12   D(3,1,4,33)            -0.0292         estimate D2E/DX2                !
 ! D13   D(1,2,5,7)             -0.0136         estimate D2E/DX2                !
 ! D14   D(1,2,5,11)           179.9542         estimate D2E/DX2                !
 ! D15   D(6,2,5,7)            179.9988         estimate D2E/DX2                !
 ! D16   D(6,2,5,11)            -0.0333         estimate D2E/DX2                !
 ! D17   D(1,2,6,32)            -0.0195         estimate D2E/DX2                !
 ! D18   D(1,2,6,34)           179.9871         estimate D2E/DX2                !
 ! D19   D(5,2,6,32)           179.9682         estimate D2E/DX2                !
 ! D20   D(5,2,6,34)            -0.0252         estimate D2E/DX2                !
 ! D21   D(1,3,8,7)              0.0112         estimate D2E/DX2                !
 ! D22   D(1,3,8,9)           -179.9806         estimate D2E/DX2                !
 ! D23   D(12,3,8,7)          -179.9778         estimate D2E/DX2                !
 ! D24   D(12,3,8,9)             0.0304         estimate D2E/DX2                !
 ! D25   D(1,3,12,28)          179.9804         estimate D2E/DX2                !
 ! D26   D(1,3,12,36)           -0.0327         estimate D2E/DX2                !
 ! D27   D(8,3,12,28)           -0.0308         estimate D2E/DX2                !
 ! D28   D(8,3,12,36)          179.9561         estimate D2E/DX2                !
 ! D29   D(1,4,31,32)           -0.0031         estimate D2E/DX2                !
 ! D30   D(1,4,31,47)         -179.9971         estimate D2E/DX2                !
 ! D31   D(33,4,31,32)        -179.996          estimate D2E/DX2                !
 ! D32   D(33,4,31,47)           0.01           estimate D2E/DX2                !
 ! D33   D(2,5,7,8)             -0.0188         estimate D2E/DX2                !
 ! D34   D(2,5,7,10)           179.997          estimate D2E/DX2                !
 ! D35   D(11,5,7,8)          -179.9877         estimate D2E/DX2                !
 ! D36   D(11,5,7,10)            0.0282         estimate D2E/DX2                !
 ! D37   D(2,5,11,26)         -179.9747         estimate D2E/DX2                !
 ! D38   D(2,5,11,35)            0.0119         estimate D2E/DX2                !
 ! D39   D(7,5,11,26)           -0.0064         estimate D2E/DX2                !
 ! D40   D(7,5,11,35)          179.9802         estimate D2E/DX2                !
 ! D41   D(2,6,32,31)           -0.0096         estimate D2E/DX2                !
 ! D42   D(2,6,32,48)         -179.9983         estimate D2E/DX2                !
 ! D43   D(34,6,32,31)         179.9839         estimate D2E/DX2                !
 ! D44   D(34,6,32,48)          -0.0048         estimate D2E/DX2                !
 ! D45   D(5,7,8,3)              0.0199         estimate D2E/DX2                !
 ! D46   D(5,7,8,9)           -179.9882         estimate D2E/DX2                !
 ! D47   D(10,7,8,3)          -179.9958         estimate D2E/DX2                !
 ! D48   D(10,7,8,9)            -0.0039         estimate D2E/DX2                !
 ! D49   D(5,7,10,13)          179.9779         estimate D2E/DX2                !
 ! D50   D(5,7,10,17)           -0.0324         estimate D2E/DX2                !
 ! D51   D(8,7,10,13)           -0.0064         estimate D2E/DX2                !
 ! D52   D(8,7,10,17)          179.9833         estimate D2E/DX2                !
 ! D53   D(3,8,9,14)          -179.9974         estimate D2E/DX2                !
 ! D54   D(3,8,9,18)            -0.0063         estimate D2E/DX2                !
 ! D55   D(7,8,9,14)             0.0107         estimate D2E/DX2                !
 ! D56   D(7,8,9,18)          -179.9982         estimate D2E/DX2                !
 ! D57   D(8,9,14,13)           -0.0071         estimate D2E/DX2                !
 ! D58   D(8,9,14,15)         -179.988          estimate D2E/DX2                !
 ! D59   D(18,9,14,13)        -179.9982         estimate D2E/DX2                !
 ! D60   D(18,9,14,15)           0.0209         estimate D2E/DX2                !
 ! D61   D(8,9,18,27)          179.9891         estimate D2E/DX2                !
 ! D62   D(8,9,18,28)           -0.0184         estimate D2E/DX2                !
 ! D63   D(14,9,18,27)          -0.0197         estimate D2E/DX2                !
 ! D64   D(14,9,18,28)         179.9728         estimate D2E/DX2                !
 ! D65   D(7,10,13,14)           0.01           estimate D2E/DX2                !
 ! D66   D(7,10,13,16)        -179.9868         estimate D2E/DX2                !
 ! D67   D(17,10,13,14)       -179.9797         estimate D2E/DX2                !
 ! D68   D(17,10,13,16)          0.0234         estimate D2E/DX2                !
 ! D69   D(7,10,17,25)        -179.9705         estimate D2E/DX2                !
 ! D70   D(7,10,17,26)           0.0146         estimate D2E/DX2                !
 ! D71   D(13,10,17,25)          0.0194         estimate D2E/DX2                !
 ! D72   D(13,10,17,26)       -179.9955         estimate D2E/DX2                !
 ! D73   D(5,11,26,17)          -0.0114         estimate D2E/DX2                !
 ! D74   D(5,11,26,42)         179.9765         estimate D2E/DX2                !
 ! D75   D(35,11,26,17)       -179.9982         estimate D2E/DX2                !
 ! D76   D(35,11,26,42)         -0.0103         estimate D2E/DX2                !
 ! D77   D(3,12,28,18)           0.0061         estimate D2E/DX2                !
 ! D78   D(3,12,28,44)         179.9803         estimate D2E/DX2                !
 ! D79   D(36,12,28,18)       -179.981          estimate D2E/DX2                !
 ! D80   D(36,12,28,44)         -0.0068         estimate D2E/DX2                !
 ! D81   D(10,13,14,9)          -0.0033         estimate D2E/DX2                !
 ! D82   D(10,13,14,15)        179.9776         estimate D2E/DX2                !
 ! D83   D(16,13,14,9)         179.9935         estimate D2E/DX2                !
 ! D84   D(16,13,14,15)         -0.0256         estimate D2E/DX2                !
 ! D85   D(10,13,16,19)        179.9586         estimate D2E/DX2                !
 ! D86   D(10,13,16,23)         -0.0553         estimate D2E/DX2                !
 ! D87   D(14,13,16,19)         -0.0382         estimate D2E/DX2                !
 ! D88   D(14,13,16,23)        179.9479         estimate D2E/DX2                !
 ! D89   D(9,14,15,20)        -179.9729         estimate D2E/DX2                !
 ! D90   D(9,14,15,24)          -0.0042         estimate D2E/DX2                !
 ! D91   D(13,14,15,20)          0.0463         estimate D2E/DX2                !
 ! D92   D(13,14,15,24)       -179.9849         estimate D2E/DX2                !
 ! D93   D(14,15,20,19)         -0.003          estimate D2E/DX2                !
 ! D94   D(14,15,20,21)        179.9808         estimate D2E/DX2                !
 ! D95   D(24,15,20,19)       -179.9707         estimate D2E/DX2                !
 ! D96   D(24,15,20,21)          0.0131         estimate D2E/DX2                !
 ! D97   D(14,15,24,27)         -0.0143         estimate D2E/DX2                !
 ! D98   D(14,15,24,40)        179.9999         estimate D2E/DX2                !
 ! D99   D(20,15,24,27)        179.9539         estimate D2E/DX2                !
 ! D100  D(20,15,24,40)         -0.0319         estimate D2E/DX2                !
 ! D101  D(13,16,19,20)          0.0811         estimate D2E/DX2                !
 ! D102  D(13,16,19,22)       -179.9108         estimate D2E/DX2                !
 ! D103  D(23,16,19,20)       -179.9045         estimate D2E/DX2                !
 ! D104  D(23,16,19,22)          0.1036         estimate D2E/DX2                !
 ! D105  D(13,16,23,25)          0.0459         estimate D2E/DX2                !
 ! D106  D(13,16,23,39)       -179.9312         estimate D2E/DX2                !
 ! D107  D(19,16,23,25)       -179.9683         estimate D2E/DX2                !
 ! D108  D(19,16,23,39)          0.0546         estimate D2E/DX2                !
 ! D109  D(10,17,25,23)         -0.0299         estimate D2E/DX2                !
 ! D110  D(10,17,25,41)        179.9473         estimate D2E/DX2                !
 ! D111  D(26,17,25,23)        179.9854         estimate D2E/DX2                !
 ! D112  D(26,17,25,41)         -0.0374         estimate D2E/DX2                !
 ! D113  D(10,17,26,11)          0.0071         estimate D2E/DX2                !
 ! D114  D(10,17,26,42)       -179.9809         estimate D2E/DX2                !
 ! D115  D(25,17,26,11)        179.9919         estimate D2E/DX2                !
 ! D116  D(25,17,26,42)          0.0039         estimate D2E/DX2                !
 ! D117  D(9,18,27,24)           0.0017         estimate D2E/DX2                !
 ! D118  D(9,18,27,43)         179.998          estimate D2E/DX2                !
 ! D119  D(28,18,27,24)       -179.9906         estimate D2E/DX2                !
 ! D120  D(28,18,27,43)          0.0057         estimate D2E/DX2                !
 ! D121  D(9,18,28,12)           0.0188         estimate D2E/DX2                !
 ! D122  D(9,18,28,44)        -179.9557         estimate D2E/DX2                !
 ! D123  D(27,18,28,12)       -179.9889         estimate D2E/DX2                !
 ! D124  D(27,18,28,44)          0.0366         estimate D2E/DX2                !
 ! D125  D(16,19,20,15)         -0.0603         estimate D2E/DX2                !
 ! D126  D(16,19,20,21)        179.9554         estimate D2E/DX2                !
 ! D127  D(22,19,20,15)        179.9319         estimate D2E/DX2                !
 ! D128  D(22,19,20,21)         -0.0525         estimate D2E/DX2                !
 ! D129  D(16,19,22,30)       -179.9669         estimate D2E/DX2                !
 ! D130  D(16,19,22,38)          0.042          estimate D2E/DX2                !
 ! D131  D(20,19,22,30)          0.0411         estimate D2E/DX2                !
 ! D132  D(20,19,22,38)       -179.95           estimate D2E/DX2                !
 ! D133  D(15,20,21,29)       -179.9557         estimate D2E/DX2                !
 ! D134  D(15,20,21,37)          0.0261         estimate D2E/DX2                !
 ! D135  D(19,20,21,29)          0.0283         estimate D2E/DX2                !
 ! D136  D(19,20,21,37)       -179.9899         estimate D2E/DX2                !
 ! D137  D(20,21,29,30)          0.0098         estimate D2E/DX2                !
 ! D138  D(20,21,29,45)        179.9873         estimate D2E/DX2                !
 ! D139  D(37,21,29,30)       -179.9723         estimate D2E/DX2                !
 ! D140  D(37,21,29,45)          0.0053         estimate D2E/DX2                !
 ! D141  D(19,22,30,29)         -0.0032         estimate D2E/DX2                !
 ! D142  D(19,22,30,46)       -179.9997         estimate D2E/DX2                !
 ! D143  D(38,22,30,29)        179.9881         estimate D2E/DX2                !
 ! D144  D(38,22,30,46)         -0.0084         estimate D2E/DX2                !
 ! D145  D(16,23,25,17)         -0.0031         estimate D2E/DX2                !
 ! D146  D(16,23,25,41)       -179.98           estimate D2E/DX2                !
 ! D147  D(39,23,25,17)        179.9743         estimate D2E/DX2                !
 ! D148  D(39,23,25,41)         -0.0026         estimate D2E/DX2                !
 ! D149  D(15,24,27,18)          0.0157         estimate D2E/DX2                !
 ! D150  D(15,24,27,43)       -179.9806         estimate D2E/DX2                !
 ! D151  D(40,24,27,18)       -179.9983         estimate D2E/DX2                !
 ! D152  D(40,24,27,43)          0.0054         estimate D2E/DX2                !
 ! D153  D(21,29,30,22)         -0.0227         estimate D2E/DX2                !
 ! D154  D(21,29,30,46)        179.9738         estimate D2E/DX2                !
 ! D155  D(45,29,30,22)        179.9998         estimate D2E/DX2                !
 ! D156  D(45,29,30,46)         -0.0037         estimate D2E/DX2                !
 ! D157  D(4,31,32,6)            0.0211         estimate D2E/DX2                !
 ! D158  D(4,31,32,48)        -179.9902         estimate D2E/DX2                !
 ! D159  D(47,31,32,6)        -179.9849         estimate D2E/DX2                !
 ! D160  D(47,31,32,48)          0.0037         estimate D2E/DX2                !
 --------------------------------------------------------------------------------
 Trust Radius=3.00D-01 FncErr=1.00D-07 GrdErr=1.00D-06
 Number of steps in this run=    288 maximum allowed number of steps=    288.
 GradGradGradGradGradGradGradGradGradGradGradGradGradGradGradGradGradGrad

 Leave Link  103 at Sat Jul 27 14:31:52 2019, MaxMem=  4194304000 cpu:         0.3
 (Enter /home/minenky/programs//g09/l202.exe)
                          Input orientation:                          
 ---------------------------------------------------------------------
 Center     Atomic      Atomic             Coordinates (Angstroms)
 Number     Number       Type             X           Y           Z
 ---------------------------------------------------------------------
      1          6           0        2.666800    4.060100    7.159900
      2          6           0        3.412700    3.555700    8.264900
      3          6           0        3.190800    3.921500    5.810000
      4          6           0        1.422700    4.688400    7.416900
      5          6           0        4.694100    2.906100    8.036400
      6          6           0        2.873600    3.706300    9.566900
      7          6           0        5.193800    2.777900    6.717300
      8          6           0        4.439700    3.287000    5.600600
      9          6           0        4.964100    3.146300    4.274100
     10          6           0        6.455400    2.139400    6.482600
     11          6           0        5.471400    2.389500    9.110100
     12          6           0        2.479000    4.409300    4.678900
     13          6           0        6.979700    1.998500    5.156100
     14          6           0        6.225600    2.507700    4.039300
     15          6           0        6.725300    2.379500    2.720300
     16          6           0        8.228400    1.363900    4.946600
     17          6           0        7.200200    1.637000    7.585400
     18          6           0        4.219400    3.649100    3.171300
     19          6           0        8.752200    1.224600    3.596700
     20          6           0        8.006400    1.729300    2.491700
     21          6           0        8.545300    1.578300    1.189700
     22          6           0        9.995700    0.595400    3.339500
     23          6           0        8.940500    0.876600    6.077700
     24          6           0        5.948300    2.896700    1.646700
     25          6           0        8.447100    1.007200    7.348100
     26          6           0        6.677500    1.778700    8.894600
     27          6           0        4.742300    3.507700    1.862100
     28          6           0        2.972700    4.279000    3.408700
     29          6           0        9.760000    0.961000    0.970700
     30          6           0       10.494600    0.462900    2.059600
     31          6           0        0.923600    4.820500    8.696800
     32          6           0        1.658500    4.322800    9.785800
     33          1           0        0.835900    5.081000    6.595200
     34          1           0        3.419800    3.331800   10.424200
     35          1           0        5.112600    2.474700   10.128400
     36          1           0        1.521500    4.897800    4.811100
     37          1           0        7.999100    1.953000    0.332400
     38          1           0       10.582300    0.202300    4.161200
     39          1           0        9.898200    0.388300    5.945600
     40          1           0        6.307300    2.811800    0.628300
     41          1           0        9.011200    0.626400    8.196000
     42          1           0        7.252600    1.392500    9.732600
     43          1           0        4.167500    3.894400    1.024200
     44          1           0        2.408800    4.660200    2.560800
     45          1           0       10.143500    0.862000   -0.041100
     46          1           0       11.451800   -0.025200    1.898500
     47          1           0       -0.034000    5.307800    8.857900
     48          1           0        1.274700    4.421400   10.797500
 ---------------------------------------------------------------------
                    Distance matrix (angstroms):
                    1          2          3          4          5
     1  C    0.000000
     2  C    1.425416   0.000000
     3  C    1.454653   2.491904   0.000000
     4  C    1.417249   2.441764   2.509271   0.000000
     5  C    2.491970   1.454709   2.871899   3.776563   0.000000
     6  C    2.441637   1.417220   3.776404   2.773469   2.509377
     7  C    2.868041   2.484423   2.478512   4.284932   1.416390
     8  C    2.484406   2.868000   1.416400   3.790139   2.478493
     9  C    3.800060   4.301271   2.470732   4.979636   3.779616
    10  C    4.301315   3.800069   3.779667   5.718250   2.470688
    11  C    3.802626   2.512495   4.294045   4.954174   1.422639
    12  C    2.512483   3.802608   1.422672   2.947933   4.294076
    13  C    5.183292   4.981265   4.298986   6.574726   3.787325
    14  C    4.981280   5.183281   3.787376   6.263504   4.298956
    15  C    6.245469   6.565010   4.941326   7.450278   5.715243
    16  C    6.565027   6.245484   5.715259   7.966946   4.941308
    17  C    5.157924   4.299801   4.944317   6.535973   2.845093
    18  C    4.299816   5.157931   2.845164   5.189103   4.944349
    19  C    7.600562   7.465680   6.565146   8.961775   6.245523
    20  C    7.465658   7.600504   6.245547   8.738362   6.565050
    21  C    8.738386   8.961705   7.450398   9.959025   7.966938
    22  C    8.961717   8.738354   7.966993  10.337996   7.450313
    23  C    7.117945   6.520582   6.511692   8.534670   5.097773
    24  C    6.520515   7.117873   5.097753   7.548937   6.511634
    25  C    6.539685   5.716691   6.203836   7.930836   4.261993
    26  C    4.929471   3.770036   5.124785   6.185699   2.437501
    27  C    5.716601   6.539571   4.261959   6.577963   6.203727
    28  C    3.770012   4.929446   2.437543   4.316917   5.124810
    29  C    9.910807  10.011296   8.679733  11.178442   8.909033
    30  C   10.011362   9.910826   8.909147  11.351426   8.679698
    31  C    2.445203   2.825221   3.779155   1.380107   4.279921
    32  C    2.825072   2.445158   4.279716   2.408517   3.779194
    33  H    2.171018   3.428460   2.739805   1.083356   4.657570
    34  H    3.428277   2.170889   4.657363   3.856504   2.739827
    35  H    4.160219   2.744240   4.943190   5.086065   2.176629
    36  H    2.744142   4.160121   2.176586   2.616066   4.943159
    37  H    8.915607   9.302057   7.549758  10.045974   8.437004
    38  H    9.302148   8.915650   8.437136  10.706211   7.549742
    39  H    8.200597   7.581114   7.582289   9.617156   6.147635
    40  H    7.581114   8.200595   6.147684   8.571233   7.582299
    41  H    7.288018   6.318920   7.101249   8.642463   4.884655
    42  H    5.896137   4.645257   6.187152   7.086124   3.422572
    43  H    6.318732   7.287810   4.884522   7.002212   7.101056
    44  H    4.645256   5.896142   3.422646   4.955290   6.187217
    45  H   10.862011  11.024941   9.588324  12.096092   9.955918
    46  H   11.024891  10.861907   9.955923  12.379564   9.588162
    47  H    3.425534   3.911680   4.648748   2.140587   5.366373
    48  H    3.911600   3.425572   5.366237   3.394356   4.648882
                    6          7          8          9         10
     6  C    0.000000
     7  C    3.790181   0.000000
     8  C    4.284859   1.440440   0.000000
     9  C    5.718175   2.481473   1.433316   0.000000
    10  C    4.979696   1.433318   2.481523   2.848736   0.000000
    11  C    2.948083   2.439961   3.766497   4.921077   2.816836
    12  C    4.954035   3.766521   2.439966   2.816870   4.921132
    13  C    6.263529   2.496848   2.882605   2.481534   1.433299
    14  C    6.574717   2.882586   2.496879   1.433291   2.481566
    15  C    7.966927   4.298863   3.787301   2.470648   3.779603
    16  C    7.450362   3.787291   4.298869   3.779532   2.470673
    17  C    5.189202   2.465946   3.779192   4.271163   1.422428
    18  C    6.535912   3.779228   2.465998   1.422517   4.271252
    19  C    8.738424   4.981275   5.183316   4.301337   3.800075
    20  C    8.961731   5.183240   4.981269   3.800056   4.301287
    21  C   10.337990   6.574645   6.263517   4.979673   5.718156
    22  C    9.959042   6.263472   6.574680   5.718179   4.979632
    23  C    7.549106   4.249917   5.127851   4.921003   2.816794
    24  C    8.534565   5.127803   4.249886   2.816768   4.921035
    25  C    6.578154   3.757293   4.930568   5.114344   2.449048
    26  C    4.317092   2.817872   4.258304   5.114205   2.448913
    27  C    7.930664   4.930459   3.757214   2.448989   5.114291
    28  C    6.185567   4.258335   2.817903   2.449000   5.114289
    29  C   11.351380   7.561397   7.426429   6.220020   6.533762
    30  C   11.178499   7.426431   7.561484   6.533841   6.220026
    31  C    2.408530   5.130813   4.929608   6.220037   6.533895
    32  C    1.380021   4.929580   5.130678   6.533757   6.220017
    33  H    3.856556   4.930565   4.146690   5.115917   6.343853
    34  H    1.083304   4.146684   4.930448   6.343737   5.115945
    35  H    2.616341   3.425511   4.649043   5.894568   3.899666
    36  H    5.085812   4.649017   3.425475   3.899694   5.894578
    37  H   10.706110   7.022615   6.496369   5.115876   6.343715
    38  H   10.046077   6.496406   7.022733   6.343820   5.115912
    39  H    8.571344   5.332644   6.190049   5.894558   3.899691
    40  H    9.617120   6.190069   5.332683   3.899735   5.894649
    41  H    7.002520   4.624721   5.891817   6.173347   3.428851
    42  H    4.955479   3.905128   5.345555   6.173190   3.428686
    43  H    8.642180   5.891626   4.624550   3.428713   6.173220
    44  H    7.086000   5.345631   3.905204   3.428826   6.173323
    45  H   12.379627   8.593380   8.381094   7.117946   7.602137
    46  H   12.096031   8.380976   8.593356   7.602114   7.117828
    47  H    3.394351   6.189706   5.891318   7.117887   7.602179
    48  H    2.140613   5.891389   6.189657   7.602125   7.117973
                   11         12         13         14         15
    11  C    0.000000
    12  C    5.715731   0.000000
    13  C    4.249937   5.127960   0.000000
    14  C    5.127943   4.249963   1.440553   0.000000
    15  C    6.511675   5.097771   2.478508   1.416297   0.000000
    16  C    5.097807   6.511661   1.416284   2.478443   2.871788
    17  C    2.424813   6.198638   2.465928   3.779258   4.944293
    18  C    6.198665   2.424820   3.779308   2.465980   2.845140
    19  C    6.520600   7.118041   2.484433   2.868091   2.492026
    20  C    7.117957   6.520613   2.868032   2.484395   1.454729
    21  C    8.534614   7.549111   4.284857   3.790120   2.509394
    22  C    7.549034   8.534671   3.790116   4.284888   3.776498
    23  C    4.849636   7.495838   2.439824   3.766463   4.293944
    24  C    7.495800   4.849561   3.766489   2.439826   1.422618
    25  C    3.724270   7.370016   2.817943   4.258488   5.124874
    26  C    1.369012   6.505350   3.757129   4.930476   6.203646
    27  C    7.369902   3.724214   4.258413   2.817868   2.437546
    28  C    6.505357   1.368987   4.930531   3.757196   4.261925
    29  C    9.310346   8.868736   5.130697   4.929561   3.779239
    30  C    8.868702   9.310459   4.929594   5.130768   4.279895
    31  C    5.173303   4.328034   7.561520   7.426477   8.679675
    32  C    4.328097   5.173116   7.426416   7.561432   8.908994
    33  H    5.920874   2.612119   7.022755   6.496412   7.549701
    34  H    2.612250   5.920691   6.496419   7.022720   8.437018
    35  H    1.083020   6.354178   5.332598   6.190072   7.582204
    36  H    6.354107   1.083012   6.190066   5.332618   6.147586
    37  H    9.144825   7.442914   4.930449   4.146577   2.739806
    38  H    7.442900   9.144962   4.146672   4.930574   4.657557
    39  H    5.797881   8.533317   3.425448   4.649067   4.943150
    40  H    8.533346   5.797866   4.649145   3.425503   2.176711
    41  H    4.058853   8.327662   3.905207   5.345747   6.187244
    42  H    2.134055   7.578141   4.624507   5.891695   7.101026
    43  H    8.327464   4.058693   5.345606   3.905066   3.422575
    44  H    7.578188   2.134063   5.891804   4.624628   4.884589
    45  H   10.387793   9.675035   6.189681   5.891344   4.648895
    46  H    9.674871  10.387808   5.891265   6.189651   5.366353
    47  H    6.236145   4.958479   8.593415   8.381054   9.588181
    48  H    4.958652   6.236004   8.381102   8.593423   9.955880
                   16         17         18         19         20
    16  C    0.000000
    17  C    2.845179   0.000000
    18  C    4.944281   5.693680   0.000000
    19  C    1.454648   4.299826   5.158046   0.000000
    20  C    2.491854   5.157932   4.299867   1.425470   0.000000
    21  C    3.776333   6.535879   5.189254   2.441631   1.417187
    22  C    2.509325   5.189163   6.535979   1.417158   2.441681
    23  C    1.422651   2.424874   6.198605   2.512354   3.802504
    24  C    4.293911   6.198569   2.424790   3.802667   2.512493
    25  C    2.437677   1.416940   6.503748   3.770060   4.929530
    26  C    4.261931   1.416792   6.503600   5.716568   6.539537
    27  C    5.124735   6.503611   1.416836   4.929572   3.770073
    28  C    6.203654   6.503595   1.416825   6.539673   5.716642
    29  C    4.279709   7.124872   6.539631   2.825070   2.445166
    30  C    3.779184   6.539576   7.125018   2.445163   2.825176
    31  C    8.909107   7.124998   6.539543  10.011418   9.910845
    32  C    8.679662   6.539550   7.124864   9.910821  10.011292
    33  H    8.437048   7.303831   5.022101   9.302184   8.915642
    34  H    7.549792   5.022206   7.303739   8.915691   9.302121
    35  H    6.147612   3.395094   7.111840   7.581065   8.200542
    36  H    7.582171   7.111764   3.395123   8.200621   7.581091
    37  H    4.657302   7.303705   5.022175   3.428320   2.170869
    38  H    2.739893   5.022162   7.303891   2.170950   3.428443
    39  H    2.176701   3.395202   7.111844   2.744093   4.160122
    40  H    4.943152   7.111868   3.395180   4.160305   2.744268
    41  H    3.422759   2.161913   7.572693   4.645265   5.896189
    42  H    4.884547   2.161711   7.572530   6.318723   7.287817
    43  H    6.187048   7.572481   2.161690   5.896190   4.645252
    44  H    7.101083   7.572573   2.161783   7.288015   6.318867
    45  H    5.366252   8.211403   7.292626   3.911622   3.425563
    46  H    4.648744   7.292451   8.211462   3.425452   3.911641
    47  H    9.955896   8.211436   7.292470  11.024974  10.861961
    48  H    9.588289   7.292600   8.211372  10.862047  11.024949
                   21         22         23         24         25
    21  C    0.000000
    22  C    2.773336   0.000000
    23  C    4.953898   2.947925   0.000000
    24  C    2.948124   4.954089   5.715577   0.000000
    25  C    6.185603   4.317015   1.369093   6.505396   0.000000
    26  C    7.930594   6.577977   3.724229   7.369784   2.473532
    27  C    4.317119   6.185662   6.505294   1.368998   7.076315
    28  C    6.578116   7.930714   7.369839   3.724190   7.496173
    29  C    1.380042   2.408408   5.173022   4.328160   6.511303
    30  C    2.408446   1.380073   4.327991   5.173269   5.697083
    31  C   11.178494  11.351437   9.310463   8.868626   8.541856
    32  C   11.351354  11.178426   8.868699   9.310268   7.938556
    33  H   10.046053  10.706172   9.144907   7.442812   8.665626
    34  H   10.706143  10.046060   7.442997   9.144787   6.335606
    35  H    9.617033   8.571207   5.797837   8.533212   4.582850
    36  H    8.571312   9.617085   8.533222   5.797792   8.338889
    37  H    1.083373   3.856441   5.920586   2.612228   7.093327
    38  H    3.856495   1.083429   2.612118   5.920849   3.919601
    39  H    5.085767   2.616133   1.083087   6.354079   2.110861
    40  H    2.616359   5.085993   6.354109   1.083156   7.279494
    41  H    7.086001   4.955380   2.134196   7.578189   1.087268
    42  H    8.642149   7.002263   4.058750   8.327400   2.694648
    43  H    4.955486   7.086038   7.578028   2.134048   8.163493
    44  H    7.002475   8.642339   8.327504   4.058765   8.527820
    45  H    2.140607   3.394315   6.235955   4.958667   7.582818
    46  H    3.394312   2.140526   4.958385   6.236138   6.308107
    47  H   12.096068  12.379593  10.387815   9.674850   9.628277
    48  H   12.379607  12.096110   9.675051  10.387704   8.660164
                   26         27         28         29         30
    26  C    0.000000
    27  C    7.496032   0.000000
    28  C    7.076167   2.473532   0.000000
    29  C    8.541582   5.697156   7.938539   0.000000
    30  C    7.938439   6.511434   8.541760   1.404793   0.000000
    31  C    6.511454   7.938453   5.697020  12.355983  12.435640
    32  C    5.697108   8.541618   6.511255  12.435513  12.355956
    33  H    7.093428   6.335414   3.919554  11.324706  11.627080
    34  H    3.919746   8.665420   7.093259  11.627016  11.324748
    35  H    2.110827   8.338820   7.279357  10.380418   9.905493
    36  H    7.279292   4.582852   2.110834   9.905551  10.380540
    37  H    8.665349   3.919671   6.335503   2.119495   3.380997
    38  H    6.335422   7.093457   8.665550   3.380990   2.119511
    39  H    4.582873   7.279350   8.338822   5.009662   3.932207
    40  H    8.338828   2.110868   4.582887   3.932408   5.009933
    41  H    2.694809   8.163558   8.527790   7.271700   6.315268
    42  H    1.087260   8.527628   8.163402   9.123823   8.381506
    43  H    8.527572   1.087202   2.694681   6.315359   7.271825
    44  H    8.163447   2.694747   1.087304   8.381685   9.124072
    45  H    9.628096   6.308317   8.660103   1.086560   2.166909
    46  H    8.659874   7.582882   9.628187   2.166931   1.086474
    47  H    7.582884   8.659943   6.308126  13.305075  13.436568
    48  H    6.308339   9.628108   7.582733  13.436543  13.305156
                   31         32         33         34         35
    31  C    0.000000
    32  C    1.404886   0.000000
    33  H    2.119499   3.381045   0.000000
    34  H    3.380999   2.119390   4.939381   0.000000
    35  H    5.009988   3.932385   6.129149   1.920336   0.000000
    36  H    3.932191   5.009694   1.920058   6.128849   6.858651
    37  H   11.324683  11.626949  10.015911  11.167610  10.225736
    38  H   11.627120  11.324701  11.167738  10.016004   8.407669
    39  H   10.380604   9.905558  10.225884   8.407837   6.689607
    40  H    9.905544  10.380475   8.407698  10.225836   9.580858
    41  H    9.124174   8.381708   9.446775   6.599077   4.727522
    42  H    7.271885   6.315334   8.038803   4.350810   2.430517
    43  H    8.381488   9.123828   6.598759   9.446458   9.262571
    44  H    6.315221   7.271686   4.350571   8.038646   8.327996
    45  H   13.305156  13.436530  12.184903  12.681899  11.459908
    46  H   13.436543  13.305011  12.681861  12.184828  10.684859
    47  H    1.086468   2.166975   2.434743   4.276284   6.010667
    48  H    2.166909   1.086536   4.276324   2.434756   4.355090
                   36         37         38         39         40
    36  H    0.000000
    37  H    8.407729   0.000000
    38  H   10.225859   4.939391   0.000000
    39  H    9.580803   6.128856   1.920071   0.000000
    40  H    6.689626   1.920230   6.129151   6.858688   0.000000
    41  H    9.262722   8.038683   4.350612   2.430589   8.328093
    42  H    8.327893   9.446438   6.598786   4.727471   9.262628
    43  H    4.727445   4.350722   8.038783   8.327895   2.430536
    44  H    2.430557   6.598951   9.446706   9.262673   4.727520
    45  H   10.685055   2.434797   4.276339   6.010419   4.355025
    46  H   11.459931   4.276340   2.434666   4.354730   6.010645
    47  H    4.354799  12.184807  12.681914  11.459999  10.684962
    48  H    6.010395  12.681832  12.184937  10.685110  11.459952
                   41         42         43         44         45
    41  H    0.000000
    42  H    2.457788   0.000000
    43  H    9.250728   9.571498   0.000000
    44  H    9.571766   9.250674   2.457766   0.000000
    45  H    8.317898  10.206074   6.785491   9.001211   0.000000
    46  H    6.785250   9.000904   8.317974  10.206246   2.502163
    47  H   10.206334   8.318005   9.000953   6.785287  14.231614
    48  H    9.001292   6.785539  10.206048   8.317838  14.449920
                   46         47         48
    46  H    0.000000
    47  H   14.449835   0.000000
    48  H   14.231578   2.502089   0.000000
 Stoichiometry    C32H16
 Framework group  C1[X(C32H16)]
 Deg. of freedom   138
 Full point group                 C1      NOp   1
 Largest Abelian subgroup         C1      NOp   1
 Largest concise Abelian subgroup C1      NOp   1
                         Standard orientation:                         
 ---------------------------------------------------------------------
 Center     Atomic      Atomic             Coordinates (Angstroms)
 Number     Number       Type             X           Y           Z
 ---------------------------------------------------------------------
      1          6           0       -3.732844   -0.712632    0.000148
      2          6           0       -3.732803    0.712784    0.000773
      3          6           0       -2.470732   -1.435881    0.000261
      4          6           0       -4.979521   -1.386717   -0.000658
      5          6           0       -2.470618    1.436019    0.000541
      6          6           0       -4.979511    1.386751    0.001350
      7          6           0       -1.248392    0.720252   -0.000014
      8          6           0       -1.248449   -0.720188    0.000059
      9          6           0       -0.000027   -1.424344   -0.000251
     10          6           0        0.000043    1.424392   -0.000310
     11          6           0       -2.424739    2.857918    0.000177
     12          6           0       -2.424881   -2.857813    0.000812
     13          6           0        1.248456    0.720254   -0.000398
     14          6           0        1.248430   -0.720299   -0.000404
     15          6           0        2.470594   -1.435988   -0.000967
     16          6           0        2.470689    1.435800   -0.000410
     17          6           0        0.000048    2.846819   -0.000743
     18          6           0       -0.000086   -2.846861   -0.000217
     19          6           0        3.732877    0.712694    0.000413
     20          6           0        3.732814   -0.712776   -0.000523
     21          6           0        4.979504   -1.386707   -0.000654
     22          6           0        4.979531    1.386628    0.002309
     23          6           0        2.424897    2.857713   -0.001541
     24          6           0        2.424679   -2.857865   -0.001281
     25          6           0        1.236878    3.538173   -0.001671
     26          6           0       -1.236653    3.538099   -0.000556
     27          6           0        1.236665   -3.538142   -0.000761
     28          6           0       -1.236866   -3.538068    0.000521
     29          6           0        6.177958   -0.702439    0.000674
     30          6           0        6.178017    0.702353    0.002415
     31          6           0       -6.178025   -0.702405   -0.000319
     32          6           0       -6.177939    0.702480    0.000922
     33          1           0       -5.008004   -2.469698   -0.001688
     34          1           0       -5.007977    2.469681    0.002043
     35          1           0       -3.344681    3.429439    0.000262
     36          1           0       -3.344891   -3.429212    0.001695
     37          1           0        5.007907   -2.469707   -0.001523
     38          1           0        5.008027    2.469681    0.003872
     39          1           0        3.344925    3.429222   -0.002702
     40          1           0        3.344734   -3.429465   -0.001714
     41          1           0        1.229059    4.625412   -0.002873
     42          1           0       -1.228729    4.625330   -0.001207
     43          1           0        1.228736   -4.625315   -0.000699
     44          1           0       -1.229029   -4.625344    0.001278
     45          1           0        7.115811   -1.251114    0.000738
     46          1           0        7.115759    1.251047    0.003900
     47          1           0       -7.115803   -1.251027   -0.000913
     48          1           0       -7.115819    1.251061    0.001358
 ---------------------------------------------------------------------
 Rotational constants (GHZ):      0.3035506      0.1059287      0.0785259
 Leave Link  202 at Sat Jul 27 14:31:52 2019, MaxMem=  4194304000 cpu:         1.0
 (Enter /home/minenky/programs//g09/l301.exe)
 Standard basis: def2TZVP (5D, 7F)
 ======================================================================================================
                                       Pseudopotential Parameters
 ======================================================================================================
  Center     Atomic      Valence      Angular      Power
  Number     Number     Electrons     Momentum     of R      Exponent        Coefficient   SO-Coeffient
 ======================================================================================================
    1          6
                                   No pseudopotential on this center.
    2          6
                                   No pseudopotential on this center.
    3          6
                                   No pseudopotential on this center.
    4          6
                                   No pseudopotential on this center.
    5          6
                                   No pseudopotential on this center.
    6          6
                                   No pseudopotential on this center.
    7          6
                                   No pseudopotential on this center.
    8          6
                                   No pseudopotential on this center.
    9          6
                                   No pseudopotential on this center.
   10          6
                                   No pseudopotential on this center.
   11          6
                                   No pseudopotential on this center.
   12          6
                                   No pseudopotential on this center.
   13          6
                                   No pseudopotential on this center.
   14          6
                                   No pseudopotential on this center.
   15          6
                                   No pseudopotential on this center.
   16          6
                                   No pseudopotential on this center.
   17          6
                                   No pseudopotential on this center.
   18          6
                                   No pseudopotential on this center.
   19          6
                                   No pseudopotential on this center.
   20          6
                                   No pseudopotential on this center.
   21          6
                                   No pseudopotential on this center.
   22          6
                                   No pseudopotential on this center.
   23          6
                                   No pseudopotential on this center.
   24          6
                                   No pseudopotential on this center.
   25          6
                                   No pseudopotential on this center.
   26          6
                                   No pseudopotential on this center.
   27          6
                                   No pseudopotential on this center.
   28          6
                                   No pseudopotential on this center.
   29          6
                                   No pseudopotential on this center.
   30          6
                                   No pseudopotential on this center.
   31          6
                                   No pseudopotential on this center.
   32          6
                                   No pseudopotential on this center.
   33          1
                                   No pseudopotential on this center.
   34          1
                                   No pseudopotential on this center.
   35          1
                                   No pseudopotential on this center.
   36          1
                                   No pseudopotential on this center.
   37          1
                                   No pseudopotential on this center.
   38          1
                                   No pseudopotential on this center.
   39          1
                                   No pseudopotential on this center.
   40          1
                                   No pseudopotential on this center.
   41          1
                                   No pseudopotential on this center.
   42          1
                                   No pseudopotential on this center.
   43          1
                                   No pseudopotential on this center.
   44          1
                                   No pseudopotential on this center.
   45          1
                                   No pseudopotential on this center.
   46          1
                                   No pseudopotential on this center.
   47          1
                                   No pseudopotential on this center.
   48          1
                                   No pseudopotential on this center.
 ======================================================================================================
 Ernie: Thresh=  0.10000D-02 Tol=  0.10000D-05 Strict=F.
 AO basis set (Overlap normalization):
 Atom C1       Shell     1 S   6     bf    1 -     1         -7.054052958463         -1.346679256254          0.000279206703
      0.1357534968D+05  0.6064550360D-03
      0.2035233368D+04  0.4697908888D-02
      0.4632256236D+03  0.2433247765D-01
      0.1312001960D+03  0.9739996831D-01
      0.4285301589D+02  0.3019558425D+00
      0.1558418577D+02  0.6623360914D+00
 Atom C1       Shell     2 S   2     bf    2 -     2         -7.054052958463         -1.346679256254          0.000279206703
      0.6206713851D+01  0.6559530854D+00
      0.2576489653D+01  0.3758563329D+00
 Atom C1       Shell     3 S   1     bf    3 -     3         -7.054052958463         -1.346679256254          0.000279206703
      0.5769633942D+00  0.1000000000D+01
 Atom C1       Shell     4 S   1     bf    4 -     4         -7.054052958463         -1.346679256254          0.000279206703
      0.2297283136D+00  0.1000000000D+01
 Atom C1       Shell     5 S   1     bf    5 -     5         -7.054052958463         -1.346679256254          0.000279206703
      0.9516444003D-01  0.1000000000D+01
 Atom C1       Shell     6 P   4     bf    6 -     8         -7.054052958463         -1.346679256254          0.000279206703
      0.3469723224D+02  0.1132722000D-01
      0.7958262283D+01  0.7616965920D-01
      0.2378082688D+01  0.3019225220D+00
      0.8143320818D+00  0.7278502735D+00
 Atom C1       Shell     7 P   1     bf    9 -    11         -7.054052958463         -1.346679256254          0.000279206703
      0.2888754725D+00  0.1000000000D+01
 Atom C1       Shell     8 P   1     bf   12 -    14         -7.054052958463         -1.346679256254          0.000279206703
      0.1005682367D+00  0.1000000000D+01
 Atom C1       Shell     9 D   1     bf   15 -    19         -7.054052958463         -1.346679256254          0.000279206703
      0.1097000000D+01  0.1000000000D+01
 Atom C1       Shell    10 D   1     bf   20 -    24         -7.054052958463         -1.346679256254          0.000279206703
      0.3180000000D+00  0.1000000000D+01
 Atom C1       Shell    11 F   1     bf   25 -    31         -7.054052958463         -1.346679256254          0.000279206703
      0.7610000000D+00  0.1000000000D+01
 Atom C2       Shell    12 S   6     bf   32 -    32         -7.053975000083          1.346966612077          0.001460655456
      0.1357534968D+05  0.6064550360D-03
      0.2035233368D+04  0.4697908888D-02
      0.4632256236D+03  0.2433247765D-01
      0.1312001960D+03  0.9739996831D-01
      0.4285301589D+02  0.3019558425D+00
      0.1558418577D+02  0.6623360914D+00
 Atom C2       Shell    13 S   2     bf   33 -    33         -7.053975000083          1.346966612077          0.001460655456
      0.6206713851D+01  0.6559530854D+00
      0.2576489653D+01  0.3758563329D+00
 Atom C2       Shell    14 S   1     bf   34 -    34         -7.053975000083          1.346966612077          0.001460655456
      0.5769633942D+00  0.1000000000D+01
 Atom C2       Shell    15 S   1     bf   35 -    35         -7.053975000083          1.346966612077          0.001460655456
      0.2297283136D+00  0.1000000000D+01
 Atom C2       Shell    16 S   1     bf   36 -    36         -7.053975000083          1.346966612077          0.001460655456
      0.9516444003D-01  0.1000000000D+01
 Atom C2       Shell    17 P   4     bf   37 -    39         -7.053975000083          1.346966612077          0.001460655456
      0.3469723224D+02  0.1132722000D-01
      0.7958262283D+01  0.7616965920D-01
      0.2378082688D+01  0.3019225220D+00
      0.8143320818D+00  0.7278502735D+00
 Atom C2       Shell    18 P   1     bf   40 -    42         -7.053975000083          1.346966612077          0.001460655456
      0.2888754725D+00  0.1000000000D+01
 Atom C2       Shell    19 P   1     bf   43 -    45         -7.053975000083          1.346966612077          0.001460655456
      0.1005682367D+00  0.1000000000D+01
 Atom C2       Shell    20 D   1     bf   46 -    50         -7.053975000083          1.346966612077          0.001460655456
      0.1097000000D+01  0.1000000000D+01
 Atom C2       Shell    21 D   1     bf   51 -    55         -7.053975000083          1.346966612077          0.001460655456
      0.3180000000D+00  0.1000000000D+01
 Atom C2       Shell    22 F   1     bf   56 -    62         -7.053975000083          1.346966612077          0.001460655456
      0.7610000000D+00  0.1000000000D+01
 Atom C3       Shell    23 S   6     bf   63 -    63         -4.669006444442         -2.713421129464          0.000493558724
      0.1357534968D+05  0.6064550360D-03
      0.2035233368D+04  0.4697908888D-02
      0.4632256236D+03  0.2433247765D-01
      0.1312001960D+03  0.9739996831D-01
      0.4285301589D+02  0.3019558425D+00
      0.1558418577D+02  0.6623360914D+00
 Atom C3       Shell    24 S   2     bf   64 -    64         -4.669006444442         -2.713421129464          0.000493558724
      0.6206713851D+01  0.6559530854D+00
      0.2576489653D+01  0.3758563329D+00
 Atom C3       Shell    25 S   1     bf   65 -    65         -4.669006444442         -2.713421129464          0.000493558724
      0.5769633942D+00  0.1000000000D+01
 Atom C3       Shell    26 S   1     bf   66 -    66         -4.669006444442         -2.713421129464          0.000493558724
      0.2297283136D+00  0.1000000000D+01
 Atom C3       Shell    27 S   1     bf   67 -    67         -4.669006444442         -2.713421129464          0.000493558724
      0.9516444003D-01  0.1000000000D+01
 Atom C3       Shell    28 P   4     bf   68 -    70         -4.669006444442         -2.713421129464          0.000493558724
      0.3469723224D+02  0.1132722000D-01
      0.7958262283D+01  0.7616965920D-01
      0.2378082688D+01  0.3019225220D+00
      0.8143320818D+00  0.7278502735D+00
 Atom C3       Shell    29 P   1     bf   71 -    73         -4.669006444442         -2.713421129464          0.000493558724
      0.2888754725D+00  0.1000000000D+01
 Atom C3       Shell    30 P   1     bf   74 -    76         -4.669006444442         -2.713421129464          0.000493558724
      0.1005682367D+00  0.1000000000D+01
 Atom C3       Shell    31 D   1     bf   77 -    81         -4.669006444442         -2.713421129464          0.000493558724
      0.1097000000D+01  0.1000000000D+01
 Atom C3       Shell    32 D   1     bf   82 -    86         -4.669006444442         -2.713421129464          0.000493558724
      0.3180000000D+00  0.1000000000D+01
 Atom C3       Shell    33 F   1     bf   87 -    93         -4.669006444442         -2.713421129464          0.000493558724
      0.7610000000D+00  0.1000000000D+01
 Atom C4       Shell    34 S   6     bf   94 -    94         -9.409930839470         -2.620515602306         -0.001243623083
      0.1357534968D+05  0.6064550360D-03
      0.2035233368D+04  0.4697908888D-02
      0.4632256236D+03  0.2433247765D-01
      0.1312001960D+03  0.9739996831D-01
      0.4285301589D+02  0.3019558425D+00
      0.1558418577D+02  0.6623360914D+00
 Atom C4       Shell    35 S   2     bf   95 -    95         -9.409930839470         -2.620515602306         -0.001243623083
      0.6206713851D+01  0.6559530854D+00
      0.2576489653D+01  0.3758563329D+00
 Atom C4       Shell    36 S   1     bf   96 -    96         -9.409930839470         -2.620515602306         -0.001243623083
      0.5769633942D+00  0.1000000000D+01
 Atom C4       Shell    37 S   1     bf   97 -    97         -9.409930839470         -2.620515602306         -0.001243623083
      0.2297283136D+00  0.1000000000D+01
 Atom C4       Shell    38 S   1     bf   98 -    98         -9.409930839470         -2.620515602306         -0.001243623083
      0.9516444003D-01  0.1000000000D+01
 Atom C4       Shell    39 P   4     bf   99 -   101         -9.409930839470         -2.620515602306         -0.001243623083
      0.3469723224D+02  0.1132722000D-01
      0.7958262283D+01  0.7616965920D-01
      0.2378082688D+01  0.3019225220D+00
      0.8143320818D+00  0.7278502735D+00
 Atom C4       Shell    40 P   1     bf  102 -   104         -9.409930839470         -2.620515602306         -0.001243623083
      0.2888754725D+00  0.1000000000D+01
 Atom C4       Shell    41 P   1     bf  105 -   107         -9.409930839470         -2.620515602306         -0.001243623083
      0.1005682367D+00  0.1000000000D+01
 Atom C4       Shell    42 D   1     bf  108 -   112         -9.409930839470         -2.620515602306         -0.001243623083
      0.1097000000D+01  0.1000000000D+01
 Atom C4       Shell    43 D   1     bf  113 -   117         -9.409930839470         -2.620515602306         -0.001243623083
      0.3180000000D+00  0.1000000000D+01
 Atom C4       Shell    44 F   1     bf  118 -   124         -9.409930839470         -2.620515602306         -0.001243623083
      0.7610000000D+00  0.1000000000D+01
 Atom C5       Shell    45 S   6     bf  125 -   125         -4.668791655227          2.713681808235          0.001021429607
      0.1357534968D+05  0.6064550360D-03
      0.2035233368D+04  0.4697908888D-02
      0.4632256236D+03  0.2433247765D-01
      0.1312001960D+03  0.9739996831D-01
      0.4285301589D+02  0.3019558425D+00
      0.1558418577D+02  0.6623360914D+00
 Atom C5       Shell    46 S   2     bf  126 -   126         -4.668791655227          2.713681808235          0.001021429607
      0.6206713851D+01  0.6559530854D+00
      0.2576489653D+01  0.3758563329D+00
 Atom C5       Shell    47 S   1     bf  127 -   127         -4.668791655227          2.713681808235          0.001021429607
      0.5769633942D+00  0.1000000000D+01
 Atom C5       Shell    48 S   1     bf  128 -   128         -4.668791655227          2.713681808235          0.001021429607
      0.2297283136D+00  0.1000000000D+01
 Atom C5       Shell    49 S   1     bf  129 -   129         -4.668791655227          2.713681808235          0.001021429607
      0.9516444003D-01  0.1000000000D+01
 Atom C5       Shell    50 P   4     bf  130 -   132         -4.668791655227          2.713681808235          0.001021429607
      0.3469723224D+02  0.1132722000D-01
      0.7958262283D+01  0.7616965920D-01
      0.2378082688D+01  0.3019225220D+00
      0.8143320818D+00  0.7278502735D+00
 Atom C5       Shell    51 P   1     bf  133 -   135         -4.668791655227          2.713681808235          0.001021429607
      0.2888754725D+00  0.1000000000D+01
 Atom C5       Shell    52 P   1     bf  136 -   138         -4.668791655227          2.713681808235          0.001021429607
      0.1005682367D+00  0.1000000000D+01
 Atom C5       Shell    53 D   1     bf  139 -   143         -4.668791655227          2.713681808235          0.001021429607
      0.1097000000D+01  0.1000000000D+01
 Atom C5       Shell    54 D   1     bf  144 -   148         -4.668791655227          2.713681808235          0.001021429607
      0.3180000000D+00  0.1000000000D+01
 Atom C5       Shell    55 F   1     bf  149 -   155         -4.668791655227          2.713681808235          0.001021429607
      0.7610000000D+00  0.1000000000D+01
 Atom C6       Shell    56 S   6     bf  156 -   156         -9.409911770990          2.620580187635          0.002550829776
      0.1357534968D+05  0.6064550360D-03
      0.2035233368D+04  0.4697908888D-02
      0.4632256236D+03  0.2433247765D-01
      0.1312001960D+03  0.9739996831D-01
[...]
 00641,0.00000542,-0.00000376,0.00000678,-0.00000117,-0.00000121,0.0000
 1707,-0.00000584,0.00000852,-0.00000202,0.00000160,-0.00000117,-0.0000
 1201,0.00000076,-0.00001989,-0.00000202,-0.00000185,0.00000245,-0.0000
 0371,-0.00000375,0.00001402,0.00000431,-0.00001431,0.00001259,-0.00000
 226,-0.00001921,-0.00007636,0.00003085,0.00007138,-0.00000760,0.000018
 70,-0.00000949,0.00001041,-0.00000186,-0.00000952,-0.00002790,0.000110
 12,0.00001908,0.00010031,-0.00003553,-0.00048756,-0.00009189,-0.000097
 75,0.00026348,-0.00065465,-0.00047897,-0.00064552,0.00003394,0.0000199
 7,-0.00001716,-0.00000967,0.00004278,0.00003653,-0.00002138,0.00012243
 ,-0.00112858,0.00003436,0.00601274,0.00586744,0.00067345,0.00434037,0.
 00169781,-0.01403610,0.00377376,0.00441255,0.00231656,0.00003334,0.000
 00854,-0.00001693,0.00013154,0.00021741,0.00002110,-0.00007717,-0.0000
 2744,-0.00000045,-0.00001160,0.00002356,0.00001437,-0.00006352,-0.0000
 6690,0.00003711,-0.00002521,0.00001257,0.00001246,0.01877359,-0.044229
 79,-0.02161857,-0.00523126,0.00384850,0.01058767,-0.00000064,-0.000000
 93,-0.00000297,0.00000248,-0.00000178,-0.00000038,-0.00000022,0.000000
 93,0.00000071,0.00000017,0.00000096,-0.00000029,-0.00000172,-0.0000033
 0,-0.00000087,0.00000150,0.00000103,-0.00000063,-0.00229467,-0.0034711
 8,-0.00036153,-0.00019163,0.00004453,0.00053358,0.00000699,0.00007533,
 -0.00002004,-0.00001195,-0.00004496,0.00000239,0.00000171,0.00000179,-
 0.00000125,0.00000063,0.00000184,-0.00000072,0.00001501,0.00000325,0.0
 0000111,0.00000379,0.00000188,0.00000155,-0.02343814,0.03574386,-0.000
 00138,0.00000044,0.00001120,-0.00001412,0.00000751,0.00000138,-0.00000
 414,0.00000320,-0.00000611,0.00000073,0.00000054,-0.00000871,0.0000089
 5,-0.00000599,0.00000520,0.00000807,-0.00000457,0.00000059,0.00000356,
 -0.00000021,-0.00002066,0.00002619,-0.00001542,0.00000572,-0.00003228,
 0.00001504,-0.00000924,0.00000691,0.00000344,0.00001705,-0.00000402,0.
 00000302,-0.00000756,0.00002078,-0.00001331,0.00001030,-0.00003993,0.0
 0003400,-0.00004156,0.00010093,-0.00011637,0.00011009,-0.00003639,0.00
 005619,-0.00022024,0.00004712,-0.00010896,-0.00006217,-0.00002153,0.00
 001159,-0.00001038,0.00001184,-0.00000280,0.00002313,-0.00069310,0.000
 20232,0.00053625,0.00055620,0.00043837,0.00188029,-0.00077361,0.000744
 62,-0.00078429,-0.00335125,0.00263259,-0.00198427,-0.00004091,0.000028
 50,-0.00004497,0.00001959,0.00002330,-0.00004300,0.00003940,-0.0000277
 0,0.00000119,0.00002010,-0.00000869,0.00000046,0.00002383,-0.00001966,
 -0.00002593,-0.00000036,0.00000253,-0.00002256,0.09378142,-0.02203754,
 -0.30536249,0.01138967,-0.00404222,-0.01698678,0.00000488,-0.00000258,
 -0.00000140,0.00000154,-0.00000064,-0.00000217,-0.00000111,0.00000037,
 0.00000297,-0.00000253,0.00000139,0.00000048,0.00000218,-0.00000112,-0
 .00000453,0.00000337,-0.00000150,-0.00000098,0.00004187,-0.00059124,0.
 00090809,0.00050962,-0.00016923,-0.00097426,0.00005595,-0.00002790,0.0
 0006231,-0.00001067,0.00000222,-0.00001754,-0.00000059,0.00000142,-0.0
 0000836,-0.00000294,0.00000196,-0.00000196,0.00001311,-0.00000613,0.00
 000376,0.00000434,-0.00000231,0.00000428,-0.10122763,0.02314030,0.3223
 1258,0.00000350,0.00000043,-0.00001065,0.00000848,-0.00000027,0.000002
 26,-0.00000666,-0.00000076,0.00000281,-0.00000077,-0.00000180,0.000007
 94,-0.00000137,0.00000243,0.00000386,-0.00000695,0.00000414,-0.0000026
 2,0.00000046,-0.00000930,0.00003361,-0.00001130,0.00000374,-0.00000050
 ,0.00002492,0.00003187,0.00000635,-0.00003775,0.00000894,-0.00003839,-
 0.00001149,-0.00000314,0.00002147,-0.00000253,0.00000152,0.00000535,-0
 .00009520,-0.00024243,0.00021380,0.00002601,0.00003179,0.00000283,-0.0
 0019531,-0.00036531,-0.00001491,-0.00038535,0.00030495,-0.00025614,0.0
 0001406,0.00002001,0.00002426,-0.00001130,0.00000317,-0.00001237,0.002
 98063,0.00298757,0.00220673,0.00031737,-0.00069910,-0.00024490,0.00131
 912,0.00309091,-0.00297872,-0.00620660,0.00470101,-0.00097040,0.000023
 15,0.00013781,0.00001617,-0.00003035,0.00003284,-0.00004064,-0.0000246
 7,-0.00003877,0.00001032,-0.00000862,0.00000663,-0.00001773,-0.0000147
 7,-0.00002932,0.00001330,0.00000763,0.00000480,0.00001115,-0.01001738,
 0.00586258,0.00533729,-0.27479306,0.12130258,0.03784599,-0.00000261,0.
 00000085,0.00000243,-0.00000372,0.00000071,0.00000414,0.00000105,0.000
 00025,-0.00000257,0.00000306,-0.00000107,-0.00000064,-0.00000157,0.000
 00140,0.00000343,-0.00000512,0.00000033,0.00000106,-0.00061566,0.00029
 771,0.00024265,-0.00029341,-0.00232753,0.00005975,-0.00002049,-0.00001
 512,-0.00000894,0.00004360,0.00001214,0.00005314,0.00000106,0.00000338
 ,0.00001946,0.00000338,-0.00000033,0.00000659,-0.00000637,0.00000493,-
 0.00000235,-0.00000070,0.00000183,-0.00000360,-0.00008490,-0.00149442,
 -0.00044825,0.28812285,-0.00000125,0.00000220,0.00000718,-0.00000108,0
 .00000896,0.00000010,-0.00000344,-0.00000521,-0.00000542,-0.00000045,-
 0.00000197,-0.00000455,0.00000345,0.00000193,0.00000246,0.00000381,-0.
 00000167,0.00000085,-0.00000390,-0.00000709,-0.00001612,0.00000648,-0.
 00000770,0.00000017,0.00002974,0.00007084,0.00000349,-0.00000869,-0.00
 002515,0.00001561,-0.00000596,-0.00000884,-0.00001337,0.00000295,-0.00
 000037,0.00000215,-0.00023772,-0.00037782,-0.00012686,0.00004458,0.000
 06062,0.00003005,-0.00033770,-0.00070583,-0.00010321,0.00016792,0.0000
 4989,0.00007657,0.00001642,0.00004861,-0.00000396,-0.00000093,-0.00000
 825,0.00001073,0.00303276,0.00747202,0.00028508,-0.00073148,-0.0006928
 7,0.00016070,0.00302996,0.00477476,0.00259795,0.00185130,0.00150648,0.
 00076286,0.00013737,0.00021409,0.00002361,0.00002408,0.00000880,0.0000
 2847,-0.00002781,-0.00008003,-0.00001841,0.00000855,-0.00000432,0.0000
 0414,-0.00002407,-0.00005282,-0.00002528,0.00000925,0.00001486,-0.0000
 0786,0.00868322,-0.00203561,-0.00347982,0.12138342,-0.09861065,-0.0168
 3951,0.00000091,-0.00000092,-0.00000073,0.00000064,-0.00000165,-0.0000
 0251,-0.00000008,0.00000092,0.00000139,-0.00000101,0.00000138,0.000000
 33,0.00000156,0.00000109,-0.00000150,0.00000038,-0.00000438,-0.0000010
 2,0.00043322,-0.00021501,-0.00014442,-0.00228326,-0.00345374,-0.000592
 95,-0.00001508,-0.00004327,0.00000207,0.00001366,0.00007260,-0.0000276
 4,0.00000477,0.00000942,-0.00000672,0.00000041,0.00000406,-0.00000252,
 0.00000442,0.00000008,0.00000158,0.00000132,0.00000121,0.00000202,-0.0
 0157831,-0.00217252,-0.00014688,-0.13363715,0.09419286,0.00000594,-0.0
 0000153,-0.00001341,0.00001027,-0.00000410,-0.00000436,0.00002927,-0.0
 0001932,0.00003141,-0.00000542,0.00000246,0.00000111,-0.00000628,0.000
 00778,-0.00004022,0.00000063,-0.00000086,0.00000563,-0.00001974,0.0000
 1190,-0.00002597,-0.00002760,0.00001440,-0.00000332,0.00002735,-0.0000
 0754,0.00001943,0.00013562,-0.00007578,0.00001684,0.00004927,-0.000027
 97,0.00000732,-0.00000873,0.00000954,-0.00004758,0.00016722,-0.0001023
 9,-0.00037179,-0.00012345,0.00009634,-0.00022402,-0.00028702,0.0000397
 3,0.00020262,0.00109718,-0.00063422,0.00071774,0.00005964,-0.00002254,
 -0.00002991,0.00002810,-0.00001052,-0.00004950,0.00175921,0.00052007,-
 0.00516571,0.00007486,-0.00000728,-0.00137710,-0.00237702,0.00228191,-
 0.00357468,0.02716954,-0.01401788,0.00005567,0.00002038,0.00002142,-0.
 00002842,0.00004586,-0.00001695,-0.00004612,-0.00009779,0.00003837,0.0
 0003173,-0.00003665,0.00001408,0.00005162,-0.00003858,0.00000197,0.000
 11263,-0.00003275,0.00001520,0.00003867,-0.02251543,0.01115014,0.00885
 117,0.03704824,-0.01642055,-0.06656970,0.00000192,-0.00000046,-0.00000
 596,0.00000488,-0.00000290,0.00000176,0.00000062,-0.00000029,0.0000006
 4,-0.00000128,0.00000066,0.00000098,0.00000179,-0.00000064,-0.00000122
 ,0.00000059,-0.00000077,0.00000024,-0.00109537,0.00055838,0.00016542,-
 0.00037753,-0.00036321,0.00083162,-0.00000927,0.00000222,-0.00002493,0
 .00003816,-0.00001978,0.00007431,0.00000568,0.00000052,-0.00002333,-0.
 00000075,0.00000134,-0.00000531,0.00000272,-0.00000109,-0.00000085,0.0
 0000149,-0.00000066,0.00000084,0.00038019,-0.00058203,0.00075892,-0.04
 110770,0.01755349,0.06565610,0.00298039,0.00298729,0.00220685,0.000317
 43,-0.00069906,-0.00024491,-0.00038539,0.00030495,-0.00025611,-0.00620
 735,0.00470094,-0.00097038,-0.00019531,-0.00036527,-0.00001491,0.00131
 898,0.00309081,-0.00297865,0.00002601,0.00003179,0.00000281,-0.0000951
 8,-0.00024243,0.00021381,-0.00003775,0.00000894,-0.00003839,0.00002491
 ,0.00003187,0.00000635,-0.00003035,0.00003284,-0.00004063,0.00002315,0
 .00013780,0.00001617,-0.00001130,0.00000374,-0.00000050,0.00000046,-0.
 00000930,0.00003361,-0.00000137,0.00000243,0.00000385,-0.00000666,-0.0
 0000076,0.00000281,-0.00001130,0.00000317,-0.00001237,0.00001406,0.000
 02001,0.00002426,0.00000350,0.00000043,-0.00001066,0.00000848,-0.00000
 027,0.00000226,-0.00000695,0.00000414,-0.00000262,-0.00000077,-0.00000
 180,0.00000794,-0.00000253,0.00000152,0.00000535,-0.00001149,-0.000003
 14,0.00002148,0.00000763,0.00000480,0.00001115,-0.00001476,-0.00002932
 ,0.00001329,-0.00000862,0.00000663,-0.00001773,-0.00002468,-0.00003877
 ,0.00001033,-0.00000372,0.00000071,0.00000414,-0.00000261,0.00000085,0
 .00000243,-0.27480433,0.12129475,0.03784594,-0.01001768,0.00586191,0.0
 0533729,-0.00029321,-0.00232740,0.00005974,-0.00061567,0.00029768,0.00
 024265,0.00004360,0.00001215,0.00005314,-0.00002049,-0.00001511,-0.000
 00895,0.00000306,-0.00000107,-0.00000064,0.00000105,0.00000025,-0.0000
 0257,-0.00000512,0.00000033,0.00000106,-0.00000157,0.00000140,0.000003
 43,-0.00000070,0.00000183,-0.00000360,-0.00000638,0.00000493,-0.000002
 35,0.00000338,-0.00000033,0.00000659,0.00000107,0.00000338,0.00001946,
 -0.00000149,0.00000072,0.00000309,-0.00000287,0.00000186,0.00000078,0.
 28813521,0.00303267,0.00747219,0.00028537,-0.00073144,-0.00069292,0.00
 016066,0.00016784,0.00004992,0.00007661,0.00185026,0.00150709,0.000762
 96,-0.00033773,-0.00070582,-0.00010321,0.00302985,0.00477487,0.0025981
 1,0.00004458,0.00006062,0.00003001,-0.00023770,-0.00037784,-0.00012685
 ,-0.00000869,-0.00002515,0.00001561,0.00002974,0.00007084,0.00000349,0
 .00002407,0.00000881,0.00002849,0.00013738,0.00021409,0.00002362,0.000
 00648,-0.00000770,0.00000016,-0.00000390,-0.00000709,-0.00001611,0.000
 00345,0.00000193,0.00000245,-0.00000344,-0.00000521,-0.00000542,-0.000
 00093,-0.00000825,0.00001074,0.00001643,0.00004860,-0.00000396,-0.0000
 0125,0.00000220,0.00000718,-0.00000108,0.00000896,0.00000010,0.0000038
 1,-0.00000167,0.00000085,-0.00000045,-0.00000197,-0.00000456,0.0000029
 4,-0.00000037,0.00000215,-0.00000595,-0.00000884,-0.00001337,0.0000092
 5,0.00001486,-0.00000786,-0.00002406,-0.00005283,-0.00002528,0.0000085
 5,-0.00000432,0.00000415,-0.00002783,-0.00008002,-0.00001841,0.0000006
 4,-0.00000165,-0.00000251,0.00000090,-0.00000092,-0.00000072,0.1213755
 3,-0.09859981,-0.01683689,0.00868352,-0.00203521,-0.00347965,-0.002283
 09,-0.00345392,-0.00059302,0.00043322,-0.00021499,-0.00014441,0.000013
 66,0.00007260,-0.00002764,-0.00001508,-0.00004327,0.00000205,-0.000001
 01,0.00000138,0.00000033,-0.00000008,0.00000092,0.00000139,0.00000038,
 -0.00000438,-0.00000102,0.00000156,0.00000109,-0.00000150,0.00000132,0
 .00000121,0.00000202,0.00000442,0.00000008,0.00000158,0.00000041,0.000
 00406,-0.00000252,0.00000477,0.00000942,-0.00000672,0.00000094,0.00000
 014,-0.00000149,0.00000186,-0.00000012,-0.00000031,-0.13362851,0.09418
 102,0.00175939,0.00052044,-0.00516564,0.00007487,-0.00000729,-0.001377
 10,0.00109719,-0.00063418,0.00071775,0.02717008,-0.01401659,0.00005581
 ,-0.00028704,0.00003970,0.00020262,-0.00237694,0.00228209,-0.00357465,
 -0.00012344,0.00009635,-0.00022403,0.00016722,-0.00010239,-0.00037179,
 0.00013562,-0.00007579,0.00001684,0.00002735,-0.00000754,0.00001943,0.
 00004586,-0.00001696,-0.00004612,0.00002038,0.00002140,-0.00002842,-0.
 00002760,0.00001440,-0.00000332,-0.00001974,0.00001191,-0.00002597,-0.
 00000628,0.00000778,-0.00004022,0.00002927,-0.00001932,0.00003141,0.00
 002810,-0.00001052,-0.00004950,0.00005964,-0.00002254,-0.00002991,0.00
 000594,-0.00000153,-0.00001341,0.00001027,-0.00000410,-0.00000436,0.00
 000063,-0.00000086,0.00000563,-0.00000542,0.00000246,0.00000111,-0.000
 00873,0.00000954,-0.00004758,0.00004927,-0.00002797,0.00000732,-0.0000
 3275,0.00001520,0.00003867,-0.00003858,0.00000197,0.00011263,-0.000036
 65,0.00001408,0.00005162,-0.00009779,0.00003837,0.00003173,0.00000488,
 -0.00000290,0.00000176,0.00000192,-0.00000046,-0.00000596,0.03704821,-
 0.01641788,-0.06656927,-0.02251599,0.01114905,0.00885107,-0.00037759,-
 0.00036337,0.00083160,-0.00109539,0.00055834,0.00016542,0.00003816,-0.
 00001977,0.00007432,-0.00000927,0.00000223,-0.00002493,-0.00000128,0.0
 0000066,0.00000098,0.00000062,-0.00000029,0.00000064,0.00000059,-0.000
 00077,0.00000024,0.00000179,-0.00000064,-0.00000122,0.00000149,-0.0000
 0066,0.00000084,0.00000272,-0.00000109,-0.00000085,-0.00000075,0.00000
 134,-0.00000531,0.00000568,0.00000052,-0.00002333,0.00000093,-0.000000
 35,-0.00000085,0.00000078,-0.00000031,-0.00000016,-0.04110780,0.017550
 33,0.06565557,-0.00116023,0.00009005,-0.00037336,-0.00246119,0.0060578
 0,0.00010875,0.00000919,-0.00045140,-0.00022499,0.00009070,0.00371268,
 -0.00274952,0.00033900,-0.00023486,0.00131693,-0.00555867,0.00148960,0
 .02736686,-0.00046734,-0.00003081,0.00005433,-0.00011491,0.00012292,-0
 .00016619,0.00002675,0.00002872,0.00002791,-0.00001760,-0.00001988,0.0
 0014173,0.00003442,0.00013112,0.00002380,-0.00003124,0.00002457,0.0000
 4559,-0.00002402,0.00000971,-0.00002716,0.00000210,-0.00000097,-0.0000
 2354,0.00001358,-0.00001469,0.00003541,-0.00002771,0.00001809,-0.00001
 427,-0.00002691,0.00003920,0.00004721,-0.00004151,0.00001587,0.0000189
 3,-0.00000353,0.00000560,0.00000663,-0.00000792,0.00000510,0.00000248,
 -0.00000037,-0.00000067,-0.00000530,0.00000412,-0.00000235,0.00000399,
 -0.00001379,-0.00000467,0.00004857,-0.00003344,0.00002013,-0.00001810,
 0.00004867,-0.00002330,-0.00001927,0.00001985,-0.00005258,-0.00008428,
 0.00003713,-0.00000716,-0.00002380,0.00007130,-0.00007191,-0.00001248,
 -0.00000553,0.00000253,0.00000104,-0.00000129,-0.00000071,0.00000562,0
 .00993685,-0.00240989,-0.01646310,-0.09038575,0.01885062,0.09298882,0.
 00026449,-0.00005610,-0.00082841,-0.00035227,-0.00225026,-0.00039552,-
 0.00002619,-0.00001192,-0.00001100,0.00005287,0.00000850,0.00004097,0.
 00000118,-0.00000015,0.00000066,0.00000152,-0.00000015,-0.00000175,-0.
 00000176,0.00000167,0.00000173,-0.00000144,-0.00000167,0.00000171,-0.0
 0000402,0.00000453,-0.00000300,-0.00001986,0.00001640,-0.00000067,0.00
 000147,0.00000012,0.00000215,-0.00000057,0.00000119,0.00000448,-0.0000
 0048,0.00000053,0.00000151,-0.00000149,0.00000094,0.00000093,-0.000084
 77,-0.00157823,0.00038016,0.08992061,0.00012247,-0.00112859,0.00003430
 ,0.00601254,0.00586778,0.00067356,-0.00047898,-0.00064554,0.00003397,0
 .00377363,0.00441274,0.00231665,-0.00009780,0.00026352,-0.00065457,0.0
 0434030,0.00169843,-0.01403486,-0.00003554,-0.00048756,-0.00009192,0.0
 0011015,0.00001906,0.00010032,0.00003085,0.00007138,-0.00000759,-0.000
 00226,-0.00001921,-0.00007635,0.00013154,0.00021741,0.00002109,0.00003
 332,0.00000855,-0.00001693,0.00000430,-0.00001431,0.00001260,-0.000003
 71,-0.00000375,0.00001402,-0.00001201,0.00000076,-0.00001989,0.0000170
 7,-0.00000584,0.00000852,0.00004278,0.00003653,-0.00002139,0.00001997,
 -0.00001716,-0.00000967,0.00000641,0.00000542,-0.00000377,0.00000678,-
 0.00000117,-0.00000121,-0.00000202,-0.00000186,0.00000245,-0.00000202,
 0.00000160,-0.00000117,-0.00000186,-0.00000952,-0.00002791,0.00001870,
 -0.00000949,0.00001042,-0.00002522,0.00001257,0.00001247,-0.00006353,-
 0.00006689,0.00003713,-0.00001160,0.00002356,0.00001437,-0.00007716,-0
 .00002745,-0.00000046,0.00000248,-0.00000178,-0.00000038,-0.00000064,-
 0.00000093,-0.00000297,-0.00523155,0.00384806,0.01058744,0.01876986,-0
 .04422734,-0.02160770,-0.00019164,0.00004452,0.00053357,-0.00229459,-0
 .00347130,-0.00036173,-0.00001194,-0.00004496,0.00000239,0.00000699,0.
 00007533,-0.00002003,0.00000017,0.00000096,-0.00000029,-0.00000022,0.0
 0000093,0.00000071,0.00000150,0.00000103,-0.00000063,-0.00000172,-0.00
 000330,-0.00000087,0.00000379,0.00000188,0.00000155,0.00001501,0.00000
 325,0.00000111,0.00000063,0.00000184,-0.00000072,0.00000171,0.00000179
 ,-0.00000125,0.00000053,0.00000059,-0.00000038,0.00000072,0.00000014,-
 0.00000035,-0.00149431,-0.00217263,-0.00058211,-0.02343387,0.03574093,
 -0.00069313,0.00020226,0.00053624,0.00055629,0.00043860,0.00188032,0.0
 0004711,-0.00010898,-0.00006217,-0.00335123,0.00263267,-0.00198425,-0.
 00003640,0.00005619,-0.00022024,-0.00077361,0.00074469,-0.00078417,0.0
 0010092,-0.00011638,0.00011008,-0.00003992,0.00003400,-0.00004156,0.00
 000691,0.00000344,0.00001706,-0.00003228,0.00001504,-0.00000924,0.0000
 1959,0.00002331,-0.00004300,-0.00004090,0.00002851,-0.00004497,0.00002
 619,-0.00001542,0.00000572,0.00000356,-0.00000021,-0.00002066,0.000008
 95,-0.00000599,0.00000520,-0.00000414,0.00000319,-0.00000611,0.0000118
 4,-0.00000280,0.00002313,-0.00002153,0.00001159,-0.00001038,-0.0000013
 8,0.00000044,0.00001120,-0.00001412,0.00000751,0.00000138,0.00000807,-
 0.00000457,0.00000059,0.00000073,0.00000054,-0.00000871,0.00002078,-0.
 00001331,0.00001030,-0.00000402,0.00000302,-0.00000756,-0.00000036,0.0
 0000253,-0.00002256,0.00002383,-0.00001967,-0.00002593,0.00002010,-0.0
 0000869,0.00000046,0.00003940,-0.00002771,0.00000119,0.00000154,-0.000
 00064,-0.00000217,0.00000488,-0.00000258,-0.00000140,0.01139017,-0.004
 04125,-0.01698670,0.09378655,-0.02202674,-0.30536035,0.00050964,-0.000
 16919,-0.00097426,0.00004180,-0.00059139,0.00090805,-0.00001068,0.0000
 0222,-0.00001754,0.00005595,-0.00002791,0.00006231,-0.00000253,0.00000
 139,0.00000048,-0.00000111,0.00000037,0.00000297,0.00000337,-0.0000015
 0,-0.00000098,0.00000218,-0.00000112,-0.00000453,0.00000434,-0.0000023
 1,0.00000428,0.00001311,-0.00000613,0.00000376,-0.00000294,0.00000196,
 -0.00000196,-0.00000059,0.00000142,-0.00000836,0.00000151,-0.00000038,
 -0.00000327,0.00000309,-0.00000149,-0.00000085,-0.00044830,-0.00014700
 ,0.00075890,-0.10123322,0.02312847,0.32231025\\-0.00000068,0.00000046,
 -0.00000094,0.00000065,-0.00000048,0.00000104,-0.00000039,0.00000014,0
 .00000050,0.00000075,-0.00000037,-0.00000027,-0.00000060,0.00000029,0.
 00000033,0.00000053,-0.00000020,-0.00000084,-0.00000041,0.00000019,-0.
 00000027,0.00000017,-0.00000014,0.00000046,-0.00000011,0.00000006,-0.0
 0000019,0.00000012,-0.00000005,0.00000019,0.00000044,-0.00000022,0.000
 00008,0.00000001,0.00000005,-0.00000066,-0.00000021,0.00000009,-0.0000
 0046,0.00000039,-0.00000023,0.00000026,0.00000063,-0.00000030,-0.00000
 035,0.00000040,-0.00000015,-0.00000053,-0.00000028,0.00000024,-0.00000
 044,0.00000029,-0.00000018,0.00000045,0.00000060,-0.00000045,0.0000009
 4,-0.00000069,0.00000046,-0.00000095,-0.00000046,0.00000014,0.00000076
 ,-0.00000069,0.00000030,0.00000018,0.,-0.00000003,0.00000066,-0.000000
 45,0.00000025,-0.00000007,0.00000054,-0.00000030,-0.00000038,-0.000000
 54,0.00000019,0.00000048,0.00000053,-0.00000025,-0.00000050,-0.0000005
 5,0.00000023,0.00000038,0.00000033,-0.00000019,0.00000001,0.00000015,0
 .,-0.00000041,-0.00000014,0.,0.00000052,-0.00000041,0.00000024,-0.0000
 0005,-0.00000009,-0.00000002,0.00000015,0.00000004,-0.00000009,0.00000
 010,-0.00000031,0.00000022,0.00000001,0.00000010,0.,0.00000019,-0.0000
 0008,0.00000003,-0.00000010,0.00000004,-0.00000004,-0.00000016,-0.0000
 0004,0.00000011,-0.00000017,0.00000036,-0.00000010,0.,-0.00000017,0.00
 000011,0.00000015,0.00000016,-0.00000004,-0.00000015,-0.00000014,0.000
 00008,0.00000016,0.00000019,-0.00000007,-0.00000015,0.00000008,-0.0000
 0004,-0.00000003,0.00000003,-0.00000002,-0.00000011,-0.00000004,0.0000
 0002,0.00000009,-0.00000007,0.00000003,0.00000003\\\@


 BLACK HOLES SUCK.
 Job cpu time:       7 days  3 hours 46 minutes 38.4 seconds.
 File lengths (MBytes):  RWF=   4419 Int=      0 D2E=      0 Chk=     85 Scr=      1
 Normal termination of Gaussian 09 at Sun Jul 28 08:40:00 2019.
