 Entering Gaussian System, Link 0=g09
 Initial command:
 /home/minenky/programs//g09/l1.exe "/local/scratch/minenky/m1_00_189-43-5-C32H18_wB97XD/Gau-238486.inp" -scrdir="/local/scratch/minenky/m1_00_189-43-5-C32H18_wB97XD/"
 Entering Link 1 = /home/minenky/programs//g09/l1.exe PID=    238487.
  
 Copyright (c) 1988,1990,1992,1993,1995,1998,2003,2009,2013,
            Gaussian, Inc.  All Rights Reserved.
  
 This is part of the Gaussian(R) 09 program.  It is based on
 the Gaussian(R) 03 system (copyright 2003, Gaussian, Inc.),
 the Gaussian(R) 98 system (copyright 1998, Gaussian, Inc.),
 the Gaussian(R) 94 system (copyright 1995, Gaussian, Inc.),
 the Gaussian 92(TM) system (copyright 1992, Gaussian, Inc.),
 the Gaussian 90(TM) system (copyright 1990, Gaussian, Inc.),
 the Gaussian 88(TM) system (copyright 1988, Gaussian, Inc.),
 the Gaussian 86(TM) system (copyright 1986, Carnegie Mellon
 University), and the Gaussian 82(TM) system (copyright 1983,
 Carnegie Mellon University). Gaussian is a federally registered
 trademark of Gaussian, Inc.
  
 This software contains proprietary and confidential information,
 including trade secrets, belonging to Gaussian, Inc.
  
 This software is provided under written license and may be
 used, copied, transmitted, or stored only in accord with that
 written license.
  
 The following legend is applicable only to US Government
 contracts under FAR:
  
                    RESTRICTED RIGHTS LEGEND
  
 Use, reproduction and disclosure by the US Government is
 subject to restrictions as set forth in subparagraphs (a)
 and (c) of the Commercial Computer Software - Restricted
 Rights clause in FAR 52.227-19.
  
 Gaussian, Inc.
 340 Quinnipiac St., Bldg. 40, Wallingford CT 06492
  
  
 ---------------------------------------------------------------
 Warning -- This program may not be used in any manner that
 competes with the business of Gaussian, Inc. or will provide
 assistance to any competitor of Gaussian, Inc.  The licensee
 of this program is prohibited from giving any competitor of
 Gaussian, Inc. access to this program.  By using this program,
 the user acknowledges that Gaussian, Inc. is engaged in the
 business of creating and licensing software in the field of
 computational chemistry and represents and warrants to the
 licensee that it is not a competitor of Gaussian, Inc. and that
 it will not use this program in any manner prohibited above.
 ---------------------------------------------------------------
  

 Cite this work as:
 Gaussian 09, Revision D.01,
 M. J. Frisch, G. W. Trucks, H. B. Schlegel, G. E. Scuseria, 
 M. A. Robb, J. R. Cheeseman, G. Scalmani, V. Barone, B. Mennucci, 
 G. A. Petersson, H. Nakatsuji, M. Caricato, X. Li, H. P. Hratchian, 
 A. F. Izmaylov, J. Bloino, G. Zheng, J. L. Sonnenberg, M. Hada, 
 M. Ehara, K. Toyota, R. Fukuda, J. Hasegawa, M. Ishida, T. Nakajima, 
 Y. Honda, O. Kitao, H. Nakai, T. Vreven, J. A. Montgomery, Jr., 
 J. E. Peralta, F. Ogliaro, M. Bearpark, J. J. Heyd, E. Brothers, 
 K. N. Kudin, V. N. Staroverov, T. Keith, R. Kobayashi, J. Normand, 
 K. Raghavachari, A. Rendell, J. C. Burant, S. S. Iyengar, J. Tomasi, 
 M. Cossi, N. Rega, J. M. Millam, M. Klene, J. E. Knox, J. B. Cross, 
 V. Bakken, C. Adamo, J. Jaramillo, R. Gomperts, R. E. Stratmann, 
 O. Yazyev, A. J. Austin, R. Cammi, C. Pomelli, J. W. Ochterski, 
 R. L. Martin, K. Morokuma, V. G. Zakrzewski, G. A. Voth, 
 P. Salvador, J. J. Dannenberg, S. Dapprich, A. D. Daniels, 
 O. Farkas, J. B. Foresman, J. V. Ortiz, J. Cioslowski, 
 and D. J. Fox, Gaussian, Inc., Wallingford CT, 2013.
 
 ******************************************
 Gaussian 09:  AM64L-G09RevD.01 24-Apr-2013
                27-Jul-2019 
 ******************************************
 %Mem=32000MB
 %NProcShared=16
 Will use up to   16 processors via shared memory.
 %Chk=m1_00_189-43-5-C32H18_wB97XD
 ----------------------------------------------------------------------
 #P wB97XD/def2tzvp opt=(tight) freq integral(Grid=ultrafine) # SCF(Max
 Cycle=380) 5d 7f GFPrint
 ----------------------------------------------------------------------
 1/7=10,14=-1,18=20,19=15,26=4,38=1/1,3;
 2/9=110,12=2,17=6,18=5,40=1/2;
 3/5=44,7=101,8=11,11=2,16=1,24=100,25=1,30=1,71=1,74=-58,75=-5/1,2,3;
 4//1;
 5/5=2,7=380,38=5/2;
 6/7=2,8=2,9=2,10=2,28=1/1;
 7//1,2,3,16;
 1/7=10,14=-1,18=20,19=15,26=4/3(2);
 2/9=110/2;
 99//99;
 2/9=110/2;
 3/5=44,7=101,8=11,11=2,16=1,25=1,30=1,71=1,74=-58,75=-5/1,2,3;
 4/5=5,16=3,69=1/1;
 5/5=2,7=380,38=5/2;
 7//1,2,3,16;
 1/7=10,14=-1,18=20,19=15,26=4/3(-5);
 2/9=110/2;
 6/7=2,8=2,9=2,10=2,19=2,28=1/1;
 99/9=1/99;
 Leave Link    1 at Sat Jul 27 14:28:46 2019, MaxMem=  4194304000 cpu:         1.9
 (Enter /home/minenky/programs//g09/l101.exe)
 ---------------------------------------
 The PBEPBE optimization and frequencies
 ---------------------------------------
 Symbolic Z-matrix:
 Charge =  0 Multiplicity = 1
 C                     2.7709    2.3256    7.2289 
 C                     2.7992    3.7581    7.0879 
 C                     1.6989    1.7272    7.9575 
 C                     3.8001    1.5762    6.6424 
 C                     1.7539    4.5254    7.6819 
 C                     3.8515    4.3572    6.3717 
 C                     0.7384    3.9155    8.3752 
 C                     0.711     2.499     8.5146 
 C                     4.8429    2.1781    5.9306 
 C                     4.8767    3.6147    5.7867 
 C                     5.8777    1.3943    5.3405 
 C                     5.9759    4.2179    5.0386 
 C                     6.9139    1.9551    4.6333 
 C                     6.9805    3.3967    4.4687 
 C                     7.949     1.1377    4.0427 
 C                     8.0591    3.9743    3.7326 
 C                     6.0877    5.6163    4.8511 
 C                     8.9699    1.6847    3.3441 
 C                     9.0763    3.1135    3.1548 
 C                     10.1149   3.6642    2.4433 
 C                     8.1441    5.3785    3.5612 
 C                     10.2436   5.0703    2.2435 
 C                     9.2518    5.9569    2.8061 
 C                     11.3133   5.5993    1.5141 
 C                     9.4032    7.3274    2.5984 
 C                     7.1274    6.1726    4.1432 
 C                     11.4618   6.9776    1.3063 
 C                     10.4771   7.8661    1.8665 
 C                     12.5472   7.5339    0.5643 
 C                     10.6242   9.2696    1.659 
 C                     12.6543   8.8899    0.3858 
 C                     11.6813   9.7689    0.9399 
 H                     1.6808    0.6448    8.0618 
 H                     3.7891    0.4926    6.7416 
 H                     1.7766    5.6075    7.5744 
 H                     3.8407    5.4391    6.286 
 H                    -0.0518    4.5122    8.8226 
 H                    -0.1001    2.032     9.0666 
 H                     5.8358    0.3135    5.4587 
 H                     7.8836    0.0606    4.1758 
 H                     5.3405    6.2801    5.2714 
 H                     9.7404    1.0554    2.9053 
 H                     10.872    3.0119    2.0131 
 H                     12.0519   4.918     1.0965 
 H                     8.6797    8.0268    3.0054 
 H                     7.1553    7.2512    4.036 
 H                     13.289    6.8597    0.1426 
 H                     9.8798    9.9396    2.083 
 H                     13.4852   9.3014   -0.181 
 H                     11.7812   10.8404   0.7895 
 
 NAtoms=     50 NQM=       50 NQMF=       0 NMMI=      0 NMMIF=      0
                NMic=       0 NMicF=      0.
                    Isotopes and Nuclear Properties:
 (Nuclear quadrupole moments (NQMom) in fm**2, nuclear magnetic moments (NMagM)
  in nuclear magnetons)

  Atom         1           2           3           4           5           6           7           8           9          10
 IAtWgt=          12          12          12          12          12          12          12          12          12          12
 AtmWgt=  12.0000000  12.0000000  12.0000000  12.0000000  12.0000000  12.0000000  12.0000000  12.0000000  12.0000000  12.0000000
 NucSpn=           0           0           0           0           0           0           0           0           0           0
 AtZEff=   0.0000000   0.0000000   0.0000000   0.0000000   0.0000000   0.0000000   0.0000000   0.0000000   0.0000000   0.0000000
 NQMom=    0.0000000   0.0000000   0.0000000   0.0000000   0.0000000   0.0000000   0.0000000   0.0000000   0.0000000   0.0000000
 NMagM=    0.0000000   0.0000000   0.0000000   0.0000000   0.0000000   0.0000000   0.0000000   0.0000000   0.0000000   0.0000000
 AtZNuc=   6.0000000   6.0000000   6.0000000   6.0000000   6.0000000   6.0000000   6.0000000   6.0000000   6.0000000   6.0000000

  Atom        11          12          13          14          15          16          17          18          19          20
 IAtWgt=          12          12          12          12          12          12          12          12          12          12
 AtmWgt=  12.0000000  12.0000000  12.0000000  12.0000000  12.0000000  12.0000000  12.0000000  12.0000000  12.0000000  12.0000000
 NucSpn=           0           0           0           0           0           0           0           0           0           0
 AtZEff=   0.0000000   0.0000000   0.0000000   0.0000000   0.0000000   0.0000000   0.0000000   0.0000000   0.0000000   0.0000000
 NQMom=    0.0000000   0.0000000   0.0000000   0.0000000   0.0000000   0.0000000   0.0000000   0.0000000   0.0000000   0.0000000
 NMagM=    0.0000000   0.0000000   0.0000000   0.0000000   0.0000000   0.0000000   0.0000000   0.0000000   0.0000000   0.0000000
 AtZNuc=   6.0000000   6.0000000   6.0000000   6.0000000   6.0000000   6.0000000   6.0000000   6.0000000   6.0000000   6.0000000

  Atom        21          22          23          24          25          26          27          28          29          30
 IAtWgt=          12          12          12          12          12          12          12          12          12          12
 AtmWgt=  12.0000000  12.0000000  12.0000000  12.0000000  12.0000000  12.0000000  12.0000000  12.0000000  12.0000000  12.0000000
 NucSpn=           0           0           0           0           0           0           0           0           0           0
 AtZEff=   0.0000000   0.0000000   0.0000000   0.0000000   0.0000000   0.0000000   0.0000000   0.0000000   0.0000000   0.0000000
 NQMom=    0.0000000   0.0000000   0.0000000   0.0000000   0.0000000   0.0000000   0.0000000   0.0000000   0.0000000   0.0000000
 NMagM=    0.0000000   0.0000000   0.0000000   0.0000000   0.0000000   0.0000000   0.0000000   0.0000000   0.0000000   0.0000000
 AtZNuc=   6.0000000   6.0000000   6.0000000   6.0000000   6.0000000   6.0000000   6.0000000   6.0000000   6.0000000   6.0000000

  Atom        31          32          33          34          35          36          37          38          39          40
 IAtWgt=          12          12           1           1           1           1           1           1           1           1
 AtmWgt=  12.0000000  12.0000000   1.0078250   1.0078250   1.0078250   1.0078250   1.0078250   1.0078250   1.0078250   1.0078250
 NucSpn=           0           0           1           1           1           1           1           1           1           1
 AtZEff=   0.0000000   0.0000000   0.0000000   0.0000000   0.0000000   0.0000000   0.0000000   0.0000000   0.0000000   0.0000000
 NQMom=    0.0000000   0.0000000   0.0000000   0.0000000   0.0000000   0.0000000   0.0000000   0.0000000   0.0000000   0.0000000
 NMagM=    0.0000000   0.0000000   2.7928460   2.7928460   2.7928460   2.7928460   2.7928460   2.7928460   2.7928460   2.7928460
 AtZNuc=   6.0000000   6.0000000   1.0000000   1.0000000   1.0000000   1.0000000   1.0000000   1.0000000   1.0000000   1.0000000

  Atom        41          42          43          44          45          46          47          48          49          50
 IAtWgt=           1           1           1           1           1           1           1           1           1           1
 AtmWgt=   1.0078250   1.0078250   1.0078250   1.0078250   1.0078250   1.0078250   1.0078250   1.0078250   1.0078250   1.0078250
 NucSpn=           1           1           1           1           1           1           1           1           1           1
 AtZEff=   0.0000000   0.0000000   0.0000000   0.0000000   0.0000000   0.0000000   0.0000000   0.0000000   0.0000000   0.0000000
 NQMom=    0.0000000   0.0000000   0.0000000   0.0000000   0.0000000   0.0000000   0.0000000   0.0000000   0.0000000   0.0000000
 NMagM=    2.7928460   2.7928460   2.7928460   2.7928460   2.7928460   2.7928460   2.7928460   2.7928460   2.7928460   2.7928460
 AtZNuc=   1.0000000   1.0000000   1.0000000   1.0000000   1.0000000   1.0000000   1.0000000   1.0000000   1.0000000   1.0000000
 Leave Link  101 at Sat Jul 27 14:28:46 2019, MaxMem=  4194304000 cpu:         5.0
 (Enter /home/minenky/programs//g09/l103.exe)

 GradGradGradGradGradGradGradGradGradGradGradGradGradGradGradGradGradGrad
 Berny optimization.
 Initialization pass.
                           ----------------------------
                           !    Initial Parameters    !
                           ! (Angstroms and Degrees)  !
 --------------------------                            --------------------------
 ! Name  Definition              Value          Derivative Info.                !
 --------------------------------------------------------------------------------
 ! R1    R(1,2)                  1.4397         estimate D2E/DX2                !
 ! R2    R(1,3)                  1.4276         estimate D2E/DX2                !
 ! R3    R(1,4)                  1.4017         estimate D2E/DX2                !
 ! R4    R(2,5)                  1.4263         estimate D2E/DX2                !
 ! R5    R(2,6)                  1.4068         estimate D2E/DX2                !
 ! R6    R(3,8)                  1.3719         estimate D2E/DX2                !
 ! R7    R(3,33)                 1.0876         estimate D2E/DX2                !
 ! R8    R(4,9)                  1.3987         estimate D2E/DX2                !
 ! R9    R(4,34)                 1.0882         estimate D2E/DX2                !
 ! R10   R(5,7)                  1.3725         estimate D2E/DX2                !
 ! R11   R(5,35)                 1.0877         estimate D2E/DX2                !
 ! R12   R(6,10)                 1.3945         estimate D2E/DX2                !
 ! R13   R(6,36)                 1.0853         estimate D2E/DX2                !
 ! R14   R(7,8)                  1.4236         estimate D2E/DX2                !
 ! R15   R(7,37)                 1.0866         estimate D2E/DX2                !
 ! R16   R(8,38)                 1.0866         estimate D2E/DX2                !
 ! R17   R(9,10)                 1.4442         estimate D2E/DX2                !
 ! R18   R(9,11)                 1.426          estimate D2E/DX2                !
 ! R19   R(10,12)                1.46           estimate D2E/DX2                !
 ! R20   R(11,13)                1.3742         estimate D2E/DX2                !
 ! R21   R(11,39)                1.0881         estimate D2E/DX2                !
 ! R22   R(12,14)                1.4172         estimate D2E/DX2                !
 ! R23   R(12,17)                1.4153         estimate D2E/DX2                !
 ! R24   R(13,14)                1.4525         estimate D2E/DX2                !
 ! R25   R(13,15)                1.4451         estimate D2E/DX2                !
 ! R26   R(14,16)                1.4279         estimate D2E/DX2                !
 ! R27   R(15,18)                1.3526         estimate D2E/DX2                !
 ! R28   R(15,40)                1.0873         estimate D2E/DX2                !
 ! R29   R(16,19)                1.4524         estimate D2E/DX2                !
 ! R30   R(16,21)                1.4172         estimate D2E/DX2                !
 ! R31   R(17,26)                1.3753         estimate D2E/DX2                !
 ! R32   R(17,41)                1.0842         estimate D2E/DX2                !
 ! R33   R(18,19)                1.4452         estimate D2E/DX2                !
 ! R34   R(18,42)                1.0873         estimate D2E/DX2                !
 ! R35   R(19,20)                1.3741         estimate D2E/DX2                !
 ! R36   R(20,22)                1.426          estimate D2E/DX2                !
 ! R37   R(20,43)                1.088          estimate D2E/DX2                !
 ! R38   R(21,23)                1.46           estimate D2E/DX2                !
 ! R39   R(21,26)                1.4153         estimate D2E/DX2                !
 ! R40   R(22,23)                1.4444         estimate D2E/DX2                !
 ! R41   R(22,24)                1.3986         estimate D2E/DX2                !
 ! R42   R(23,25)                1.3944         estimate D2E/DX2                !
 ! R43   R(24,27)                1.4018         estimate D2E/DX2                !
 ! R44   R(24,44)                1.0882         estimate D2E/DX2                !
 ! R45   R(25,28)                1.4068         estimate D2E/DX2                !
 ! R46   R(25,45)                1.0855         estimate D2E/DX2                !
 ! R47   R(26,46)                1.0843         estimate D2E/DX2                !
 ! R48   R(27,28)                1.4398         estimate D2E/DX2                !
 ! R49   R(27,29)                1.4276         estimate D2E/DX2                !
 ! R50   R(28,30)                1.4264         estimate D2E/DX2                !
 ! R51   R(29,31)                1.3719         estimate D2E/DX2                !
 ! R52   R(29,47)                1.0875         estimate D2E/DX2                !
 ! R53   R(30,32)                1.3725         estimate D2E/DX2                !
 ! R54   R(30,48)                1.0876         estimate D2E/DX2                !
 ! R55   R(31,32)                1.4235         estimate D2E/DX2                !
 ! R56   R(31,49)                1.0867         estimate D2E/DX2                !
 ! R57   R(32,50)                1.0866         estimate D2E/DX2                !
 ! A1    A(2,1,3)              118.8032         estimate D2E/DX2                !
 ! A2    A(2,1,4)              118.4598         estimate D2E/DX2                !
 ! A3    A(3,1,4)              122.737          estimate D2E/DX2                !
 ! A4    A(1,2,5)              118.6915         estimate D2E/DX2                !
 ! A5    A(1,2,6)              119.2276         estimate D2E/DX2                !
 ! A6    A(5,2,6)              122.081          estimate D2E/DX2                !
 ! A7    A(1,3,8)              120.8086         estimate D2E/DX2                !
 ! A8    A(1,3,33)             118.5945         estimate D2E/DX2                !
 ! A9    A(8,3,33)             120.5969         estimate D2E/DX2                !
 ! A10   A(1,4,9)              122.024          estimate D2E/DX2                !
 ! A11   A(1,4,34)             119.131          estimate D2E/DX2                !
 ! A12   A(9,4,34)             118.8449         estimate D2E/DX2                !
 ! A13   A(2,5,7)              120.901          estimate D2E/DX2                !
 ! A14   A(2,5,35)             118.605          estimate D2E/DX2                !
 ! A15   A(7,5,35)             120.494          estimate D2E/DX2                !
 ! A16   A(2,6,10)             122.4614         estimate D2E/DX2                !
 ! A17   A(2,6,36)             117.2099         estimate D2E/DX2                !
 ! A18   A(10,6,36)            120.3286         estimate D2E/DX2                !
 ! A19   A(5,7,8)              120.3871         estimate D2E/DX2                !
 ! A20   A(5,7,37)             120.134          estimate D2E/DX2                !
 ! A21   A(8,7,37)             119.4788         estimate D2E/DX2                !
 ! A22   A(3,8,7)              120.4086         estimate D2E/DX2                !
 ! A23   A(3,8,38)             120.1356         estimate D2E/DX2                !
 ! A24   A(7,8,38)             119.4558         estimate D2E/DX2                !
 ! A25   A(4,9,10)             119.7504         estimate D2E/DX2                !
 ! A26   A(4,9,11)             121.0037         estimate D2E/DX2                !
 ! A27   A(10,9,11)            119.2459         estimate D2E/DX2                !
 ! A28   A(6,10,9)             118.0768         estimate D2E/DX2                !
 ! A29   A(6,10,12)            123.2612         estimate D2E/DX2                !
 ! A30   A(9,10,12)            118.662          estimate D2E/DX2                !
 ! A31   A(9,11,13)            122.4022         estimate D2E/DX2                !
 ! A32   A(9,11,39)            118.2356         estimate D2E/DX2                !
 ! A33   A(13,11,39)           119.3621         estimate D2E/DX2                !
 ! A34   A(10,12,14)           120.0217         estimate D2E/DX2                !
 ! A35   A(10,12,17)           122.3806         estimate D2E/DX2                !
 ! A36   A(14,12,17)           117.5977         estimate D2E/DX2                !
 ! A37   A(11,13,14)           119.8635         estimate D2E/DX2                !
 ! A38   A(11,13,15)           121.3054         estimate D2E/DX2                !
 ! A39   A(14,13,15)           118.831          estimate D2E/DX2                !
 ! A40   A(12,14,13)           119.8046         estimate D2E/DX2                !
 ! A41   A(12,14,16)           120.5562         estimate D2E/DX2                !
 ! A42   A(13,14,16)           119.6393         estimate D2E/DX2                !
 ! A43   A(13,15,18)           121.5311         estimate D2E/DX2                !
 ! A44   A(13,15,40)           117.8543         estimate D2E/DX2                !
 ! A45   A(18,15,40)           120.6145         estimate D2E/DX2                !
 ! A46   A(14,16,19)           119.6284         estimate D2E/DX2                !
 ! A47   A(14,16,21)           120.5619         estimate D2E/DX2                !
 ! A48   A(19,16,21)           119.8097         estimate D2E/DX2                !
 ! A49   A(12,17,26)           121.8395         estimate D2E/DX2                !
 ! A50   A(12,17,41)           119.9409         estimate D2E/DX2                !
 ! A51   A(26,17,41)           118.2196         estimate D2E/DX2                !
 ! A52   A(15,18,19)           121.5364         estimate D2E/DX2                !
 ! A53   A(15,18,42)           120.613          estimate D2E/DX2                !
 ! A54   A(19,18,42)           117.8505         estimate D2E/DX2                !
 ! A55   A(16,19,18)           118.8336         estimate D2E/DX2                !
 ! A56   A(16,19,20)           119.8552         estimate D2E/DX2                !
 ! A57   A(18,19,20)           121.3112         estimate D2E/DX2                !
 ! A58   A(19,20,22)           122.4064         estimate D2E/DX2                !
 ! A59   A(19,20,43)           119.3676         estimate D2E/DX2                !
 ! A60   A(22,20,43)           118.226          estimate D2E/DX2                !
 ! A61   A(16,21,23)           120.0384         estimate D2E/DX2                !
 ! A62   A(16,21,26)           117.5895         estimate D2E/DX2                !
 ! A63   A(23,21,26)           122.3721         estimate D2E/DX2                !
 ! A64   A(20,22,23)           119.255          estimate D2E/DX2                !
 ! A65   A(20,22,24)           120.9998         estimate D2E/DX2                !
 ! A66   A(23,22,24)           119.7452         estimate D2E/DX2                !
 ! A67   A(21,23,22)           118.635          estimate D2E/DX2                !
 ! A68   A(21,23,25)           123.2831         estimate D2E/DX2                !
 ! A69   A(22,23,25)           118.0819         estimate D2E/DX2                !
 ! A70   A(22,24,27)           122.0213         estimate D2E/DX2                !
 ! A71   A(22,24,44)           118.8465         estimate D2E/DX2                !
 ! A72   A(27,24,44)           119.1322         estimate D2E/DX2                !
 ! A73   A(23,25,28)           122.4617         estimate D2E/DX2                !
 ! A74   A(23,25,45)           120.3356         estimate D2E/DX2                !
 ! A75   A(28,25,45)           117.2027         estimate D2E/DX2                !
 ! A76   A(17,26,21)           121.8551         estimate D2E/DX2                !
 ! A77   A(17,26,46)           118.21           estimate D2E/DX2                !
 ! A78   A(21,26,46)           119.9349         estimate D2E/DX2                !
 ! A79   A(24,27,28)           118.4671         estimate D2E/DX2                !
 ! A80   A(24,27,29)           122.7336         estimate D2E/DX2                !
 ! A81   A(28,27,29)           118.7992         estimate D2E/DX2                !
 ! A82   A(25,28,27)           119.2227         estimate D2E/DX2                !
 ! A83   A(25,28,30)           122.086          estimate D2E/DX2                !
 ! A84   A(27,28,30)           118.6913         estimate D2E/DX2                !
 ! A85   A(27,29,31)           120.8061         estimate D2E/DX2                !
 ! A86   A(27,29,47)           118.5918         estimate D2E/DX2                !
 ! A87   A(31,29,47)           120.6021         estimate D2E/DX2                !
 ! A88   A(28,30,32)           120.9034         estimate D2E/DX2                !
 ! A89   A(28,30,48)           118.612          estimate D2E/DX2                !
 ! A90   A(32,30,48)           120.4846         estimate D2E/DX2                !
 ! A91   A(29,31,32)           120.4196         estimate D2E/DX2                !
 ! A92   A(29,31,49)           120.1208         estimate D2E/DX2                !
 ! A93   A(32,31,49)           119.4596         estimate D2E/DX2                !
 ! A94   A(30,32,31)           120.3803         estimate D2E/DX2                !
 ! A95   A(30,32,50)           120.1355         estimate D2E/DX2                !
 ! A96   A(31,32,50)           119.4842         estimate D2E/DX2                !
 ! D1    D(3,1,2,5)             -0.0136         estimate D2E/DX2                !
 ! D2    D(3,1,2,6)            179.9994         estimate D2E/DX2                !
 ! D3    D(4,1,2,5)            179.9558         estimate D2E/DX2                !
 ! D4    D(4,1,2,6)             -0.0312         estimate D2E/DX2                !
 ! D5    D(2,1,3,8)              0.0249         estimate D2E/DX2                !
 ! D6    D(2,1,3,33)           179.9916         estimate D2E/DX2                !
 ! D7    D(4,1,3,8)           -179.9432         estimate D2E/DX2                !
 ! D8    D(4,1,3,33)             0.0236         estimate D2E/DX2                !
 ! D9    D(2,1,4,9)             -0.0234         estimate D2E/DX2                !
 ! D10   D(2,1,4,34)          -179.9555         estimate D2E/DX2                !
 ! D11   D(3,1,4,9)            179.9448         estimate D2E/DX2                !
 ! D12   D(3,1,4,34)             0.0127         estimate D2E/DX2                !
 ! D13   D(1,2,5,7)             -0.0109         estimate D2E/DX2                !
 ! D14   D(1,2,5,35)          -179.9922         estimate D2E/DX2                !
 ! D15   D(6,2,5,7)            179.9758         estimate D2E/DX2                !
 ! D16   D(6,2,5,35)            -0.0055         estimate D2E/DX2                !
 ! D17   D(1,2,6,10)             0.0505         estimate D2E/DX2                !
 ! D18   D(1,2,6,36)          -179.9766         estimate D2E/DX2                !
 ! D19   D(5,2,6,10)          -179.9361         estimate D2E/DX2                !
 ! D20   D(5,2,6,36)             0.0368         estimate D2E/DX2                !
 ! D21   D(1,3,8,7)             -0.0118         estimate D2E/DX2                !
 ! D22   D(1,3,8,38)           179.974          estimate D2E/DX2                !
 ! D23   D(33,3,8,7)          -179.9778         estimate D2E/DX2                !
 ! D24   D(33,3,8,38)            0.0079         estimate D2E/DX2                !
 ! D25   D(1,4,9,10)             0.0596         estimate D2E/DX2                !
 ! D26   D(1,4,9,11)          -179.8804         estimate D2E/DX2                !
 ! D27   D(34,4,9,10)          179.9919         estimate D2E/DX2                !
 ! D28   D(34,4,9,11)            0.0519         estimate D2E/DX2                !
 ! D29   D(2,5,7,8)              0.0246         estimate D2E/DX2                !
 ! D30   D(2,5,7,37)          -179.9893         estimate D2E/DX2                !
 ! D31   D(35,5,7,8)          -179.9945         estimate D2E/DX2                !
 ! D32   D(35,5,7,37)           -0.0083         estimate D2E/DX2                !
 ! D33   D(2,6,10,9)            -0.0147         estimate D2E/DX2                !
 ! D34   D(2,6,10,12)          179.9248         estimate D2E/DX2                !
 ! D35   D(36,6,10,9)         -179.9868         estimate D2E/DX2                !
 ! D36   D(36,6,10,12)          -0.0473         estimate D2E/DX2                !
 ! D37   D(5,7,8,3)             -0.0133         estimate D2E/DX2                !
 ! D38   D(5,7,8,38)          -179.9992         estimate D2E/DX2                !
 ! D39   D(37,7,8,3)          -179.9996         estimate D2E/DX2                !
 ! D40   D(37,7,8,38)            0.0146         estimate D2E/DX2                !
 ! D41   D(4,9,10,6)            -0.0401         estimate D2E/DX2                !
 ! D42   D(4,9,10,12)         -179.9824         estimate D2E/DX2                !
 ! D43   D(11,9,10,6)          179.901          estimate D2E/DX2                !
 ! D44   D(11,9,10,12)          -0.0413         estimate D2E/DX2                !
 ! D45   D(4,9,11,13)          179.8734         estimate D2E/DX2                !
 ! D46   D(4,9,11,39)           -0.0337         estimate D2E/DX2                !
 ! D47   D(10,9,11,13)          -0.0669         estimate D2E/DX2                !
 ! D48   D(10,9,11,39)        -179.974          estimate D2E/DX2                !
 ! D49   D(6,10,12,14)        -179.8134         estimate D2E/DX2                !
 ! D50   D(6,10,12,17)           0.1651         estimate D2E/DX2                !
 ! D51   D(9,10,12,14)           0.1257         estimate D2E/DX2                !
 ! D52   D(9,10,12,17)        -179.8958         estimate D2E/DX2                !
 ! D53   D(9,11,13,14)           0.0893         estimate D2E/DX2                !
 ! D54   D(9,11,13,15)        -179.8745         estimate D2E/DX2                !
 ! D55   D(39,11,13,14)        179.9954         estimate D2E/DX2                !
 ! D56   D(39,11,13,15)          0.0316         estimate D2E/DX2                !
 ! D57   D(10,12,14,13)         -0.1055         estimate D2E/DX2                !
 ! D58   D(10,12,14,16)        179.8742         estimate D2E/DX2                !
 ! D59   D(17,12,14,13)        179.915          estimate D2E/DX2                !
 ! D60   D(17,12,14,16)         -0.1053         estimate D2E/DX2                !
 ! D61   D(10,12,17,26)       -179.9388         estimate D2E/DX2                !
 ! D62   D(10,12,17,41)          0.0639         estimate D2E/DX2                !
 ! D63   D(14,12,17,26)          0.0402         estimate D2E/DX2                !
 ! D64   D(14,12,17,41)       -179.9571         estimate D2E/DX2                !
 ! D65   D(11,13,14,12)         -0.0013         estimate D2E/DX2                !
 ! D66   D(11,13,14,16)       -179.9812         estimate D2E/DX2                !
 ! D67   D(15,13,14,12)        179.9634         estimate D2E/DX2                !
 ! D68   D(15,13,14,16)         -0.0165         estimate D2E/DX2                !
 ! D69   D(11,13,15,18)        179.9036         estimate D2E/DX2                !
 ! D70   D(11,13,15,40)         -0.0433         estimate D2E/DX2                !
 ! D71   D(14,13,15,18)         -0.0606         estimate D2E/DX2                !
 ! D72   D(14,13,15,40)        179.9926         estimate D2E/DX2                !
 ! D73   D(12,14,16,19)       -179.8761         estimate D2E/DX2                !
 ! D74   D(12,14,16,21)          0.0895         estimate D2E/DX2                !
 ! D75   D(13,14,16,19)          0.1037         estimate D2E/DX2                !
 ! D76   D(13,14,16,21)       -179.9308         estimate D2E/DX2                !
 ! D77   D(13,15,18,19)          0.0472         estimate D2E/DX2                !
 ! D78   D(13,15,18,42)       -179.9505         estimate D2E/DX2                !
 ! D79   D(40,15,18,19)        179.9926         estimate D2E/DX2                !
 ! D80   D(40,15,18,42)         -0.0051         estimate D2E/DX2                !
 ! D81   D(14,16,19,18)         -0.1172         estimate D2E/DX2                !
 ! D82   D(14,16,19,20)        179.8726         estimate D2E/DX2                !
 ! D83   D(21,16,19,18)        179.917          estimate D2E/DX2                !
 ! D84   D(21,16,19,20)         -0.0932         estimate D2E/DX2                !
 ! D85   D(14,16,21,23)       -179.9857         estimate D2E/DX2                !
 ! D86   D(14,16,21,26)         -0.0056         estimate D2E/DX2                !
 ! D87   D(19,16,21,23)         -0.0203         estimate D2E/DX2                !
 ! D88   D(19,16,21,26)        179.9599         estimate D2E/DX2                !
 ! D89   D(12,17,26,21)          0.0441         estimate D2E/DX2                !
 ! D90   D(12,17,26,46)       -179.9848         estimate D2E/DX2                !
 ! D91   D(41,17,26,21)       -179.9586         estimate D2E/DX2                !
 ! D92   D(41,17,26,46)          0.0125         estimate D2E/DX2                !
 ! D93   D(15,18,19,16)          0.0421         estimate D2E/DX2                !
 ! D94   D(15,18,19,20)       -179.9475         estimate D2E/DX2                !
 ! D95   D(42,18,19,16)       -179.9602         estimate D2E/DX2                !
 ! D96   D(42,18,19,20)          0.0502         estimate D2E/DX2                !
 ! D97   D(16,19,20,22)          0.0844         estimate D2E/DX2                !
 ! D98   D(16,19,20,43)       -179.9426         estimate D2E/DX2                !
 ! D99   D(18,19,20,22)       -179.9261         estimate D2E/DX2                !
 ! D100  D(18,19,20,43)          0.047          estimate D2E/DX2                !
 ! D101  D(19,20,22,23)          0.039          estimate D2E/DX2                !
 ! D102  D(19,20,22,24)        179.9912         estimate D2E/DX2                !
 ! D103  D(43,20,22,23)       -179.9344         estimate D2E/DX2                !
 ! D104  D(43,20,22,24)          0.0179         estimate D2E/DX2                !
 ! D105  D(16,21,23,22)          0.1403         estimate D2E/DX2                !
 ! D106  D(16,21,23,25)       -179.8653         estimate D2E/DX2                !
 ! D107  D(26,21,23,22)       -179.8389         estimate D2E/DX2                !
 ! D108  D(26,21,23,25)          0.1555         estimate D2E/DX2                !
 ! D109  D(16,21,26,17)         -0.0609         estimate D2E/DX2                !
 ! D110  D(16,21,26,46)        179.9685         estimate D2E/DX2                !
 ! D111  D(23,21,26,17)        179.9188         estimate D2E/DX2                !
 ! D112  D(23,21,26,46)         -0.0519         estimate D2E/DX2                !
 ! D113  D(20,22,23,21)         -0.15           estimate D2E/DX2                !
 ! D114  D(20,22,23,25)        179.8553         estimate D2E/DX2                !
 ! D115  D(24,22,23,21)        179.8972         estimate D2E/DX2                !
 ! D116  D(24,22,23,25)         -0.0975         estimate D2E/DX2                !
 ! D117  D(20,22,24,27)       -179.9043         estimate D2E/DX2                !
 ! D118  D(20,22,24,44)          0.0664         estimate D2E/DX2                !
 ! D119  D(23,22,24,27)          0.0477         estimate D2E/DX2                !
 ! D120  D(23,22,24,44)       -179.9816         estimate D2E/DX2                !
 ! D121  D(21,23,25,28)       -179.9341         estimate D2E/DX2                !
 ! D122  D(21,23,25,45)          0.0493         estimate D2E/DX2                !
 ! D123  D(22,23,25,28)          0.0604         estimate D2E/DX2                !
 ! D124  D(22,23,25,45)       -179.9562         estimate D2E/DX2                !
 ! D125  D(22,24,27,28)          0.0405         estimate D2E/DX2                !
 ! D126  D(22,24,27,29)       -179.988          estimate D2E/DX2                !
 ! D127  D(44,24,27,28)       -179.9301         estimate D2E/DX2                !
 ! D128  D(44,24,27,29)          0.0414         estimate D2E/DX2                !
 ! D129  D(23,25,28,27)          0.027          estimate D2E/DX2                !
 ! D130  D(23,25,28,30)       -179.9957         estimate D2E/DX2                !
 ! D131  D(45,25,28,27)       -179.9569         estimate D2E/DX2                !
 ! D132  D(45,25,28,30)          0.0204         estimate D2E/DX2                !
 ! D133  D(24,27,28,25)         -0.0779         estimate D2E/DX2                !
 ! D134  D(24,27,28,30)        179.9441         estimate D2E/DX2                !
 ! D135  D(29,27,28,25)        179.9495         estimate D2E/DX2                !
 ! D136  D(29,27,28,30)         -0.0286         estimate D2E/DX2                !
 ! D137  D(24,27,29,31)       -179.9629         estimate D2E/DX2                !
 ! D138  D(24,27,29,47)          0.0327         estimate D2E/DX2                !
 ! D139  D(28,27,29,31)          0.0085         estimate D2E/DX2                !
 ! D140  D(28,27,29,47)       -179.9959         estimate D2E/DX2                !
 ! D141  D(25,28,30,32)       -179.9531         estimate D2E/DX2                !
 ! D142  D(25,28,30,48)          0.0414         estimate D2E/DX2                !
 ! D143  D(27,28,30,32)          0.0243         estimate D2E/DX2                !
 ! D144  D(27,28,30,48)       -179.9812         estimate D2E/DX2                !
 ! D145  D(27,29,31,32)          0.0165         estimate D2E/DX2                !
 ! D146  D(27,29,31,49)        179.9971         estimate D2E/DX2                !
 ! D147  D(47,29,31,32)       -179.979          estimate D2E/DX2                !
 ! D148  D(47,29,31,49)          0.0016         estimate D2E/DX2                !
 ! D149  D(28,30,32,31)          0.0004         estimate D2E/DX2                !
 ! D150  D(28,30,32,50)       -179.9974         estimate D2E/DX2                !
 ! D151  D(48,30,32,31)       -179.9939         estimate D2E/DX2                !
 ! D152  D(48,30,32,50)          0.0082         estimate D2E/DX2                !
 ! D153  D(29,31,32,30)         -0.0213         estimate D2E/DX2                !
 ! D154  D(29,31,32,50)        179.9765         estimate D2E/DX2                !
 ! D155  D(49,31,32,30)        179.9979         estimate D2E/DX2                !
 ! D156  D(49,31,32,50)         -0.0042         estimate D2E/DX2                !
 --------------------------------------------------------------------------------
 Trust Radius=3.00D-01 FncErr=1.00D-07 GrdErr=1.00D-06
 Number of steps in this run=    300 maximum allowed number of steps=    300.
 GradGradGradGradGradGradGradGradGradGradGradGradGradGradGradGradGradGrad

 Leave Link  103 at Sat Jul 27 14:28:46 2019, MaxMem=  4194304000 cpu:         0.1
 (Enter /home/minenky/programs//g09/l202.exe)
                          Input orientation:                          
 ---------------------------------------------------------------------
 Center     Atomic      Atomic             Coordinates (Angstroms)
 Number     Number       Type             X           Y           Z
 ---------------------------------------------------------------------
      1          6           0        2.770900    2.325600    7.228900
      2          6           0        2.799200    3.758100    7.087900
      3          6           0        1.698900    1.727200    7.957500
      4          6           0        3.800100    1.576200    6.642400
      5          6           0        1.753900    4.525400    7.681900
      6          6           0        3.851500    4.357200    6.371700
      7          6           0        0.738400    3.915500    8.375200
      8          6           0        0.711000    2.499000    8.514600
      9          6           0        4.842900    2.178100    5.930600
     10          6           0        4.876700    3.614700    5.786700
     11          6           0        5.877700    1.394300    5.340500
     12          6           0        5.975900    4.217900    5.038600
     13          6           0        6.913900    1.955100    4.633300
     14          6           0        6.980500    3.396700    4.468700
     15          6           0        7.949000    1.137700    4.042700
     16          6           0        8.059100    3.974300    3.732600
     17          6           0        6.087700    5.616300    4.851100
     18          6           0        8.969900    1.684700    3.344100
     19          6           0        9.076300    3.113500    3.154800
     20          6           0       10.114900    3.664200    2.443300
     21          6           0        8.144100    5.378500    3.561200
     22          6           0       10.243600    5.070300    2.243500
     23          6           0        9.251800    5.956900    2.806100
     24          6           0       11.313300    5.599300    1.514100
     25          6           0        9.403200    7.327400    2.598400
     26          6           0        7.127400    6.172600    4.143200
     27          6           0       11.461800    6.977600    1.306300
     28          6           0       10.477100    7.866100    1.866500
     29          6           0       12.547200    7.533900    0.564300
     30          6           0       10.624200    9.269600    1.659000
     31          6           0       12.654300    8.889900    0.385800
     32          6           0       11.681300    9.768900    0.939900
     33          1           0        1.680800    0.644800    8.061800
     34          1           0        3.789100    0.492600    6.741600
     35          1           0        1.776600    5.607500    7.574400
     36          1           0        3.840700    5.439100    6.286000
     37          1           0       -0.051800    4.512200    8.822600
     38          1           0       -0.100100    2.032000    9.066600
     39          1           0        5.835800    0.313500    5.458700
     40          1           0        7.883600    0.060600    4.175800
     41          1           0        5.340500    6.280100    5.271400
     42          1           0        9.740400    1.055400    2.905300
     43          1           0       10.872000    3.011900    2.013100
     44          1           0       12.051900    4.918000    1.096500
     45          1           0        8.679700    8.026800    3.005400
     46          1           0        7.155300    7.251200    4.036000
     47          1           0       13.289000    6.859700    0.142600
     48          1           0        9.879800    9.939600    2.083000
     49          1           0       13.485200    9.301400   -0.181000
     50          1           0       11.781200   10.840400    0.789500
 ---------------------------------------------------------------------
                    Distance matrix (angstroms):
                    1          2          3          4          5
     1  C    0.000000
     2  C    1.439701   0.000000
     3  C    1.427629   2.468080   0.000000
     4  C    1.401726   2.441507   2.483411   0.000000
     5  C    2.465485   1.426267   2.812277   3.737014   0.000000
     6  C    2.455583   1.406840   3.750380   2.794617   2.478879
     7  C    2.823622   2.434915   2.426044   4.224799   1.372546
     8  C    2.434395   2.825134   1.371854   3.728167   2.426381
     9  C    2.449597   2.830628   3.767807   1.398705   4.256617
    10  C    2.859390   2.455543   4.286425   2.459019   3.764709
    11  C    3.753076   4.256538   4.941850   2.458547   5.682576
    12  C    4.318592   3.808211   5.745981   3.779532   4.990679
    13  C    4.902944   5.119241   6.188576   3.725023   6.521197
    14  C    5.146522   4.947129   6.546316   4.260767   6.238266
    15  C    6.194812   6.531476   7.398440   4.915699   7.943523
    16  C    6.550373   6.242702   7.959358   5.688313   7.460310
    17  C    5.242500   4.389808   6.635992   4.976372   5.290115
    18  C    7.343706   7.509498   8.611197   6.133301   8.885761
    19  C    7.548321   7.435507   8.911441   6.508835   8.723855
    20  C    8.867252   8.666060  10.246337   7.865678   9.904086
    21  C    7.186341   6.605397   8.613945   6.543823   7.651314
    22  C    9.393021   8.978261  10.809163   8.548552  10.096936
    23  C    8.645783   8.050129  10.073410   7.976764   9.057655
    24  C   10.786503  10.341526  12.204395   9.946505  11.427036
    25  C    9.510359   8.746904  10.928789   8.990271   9.602342
    26  C    6.580277   5.764927   7.986180   6.200308   6.641549
    27  C   11.500002  10.901042  12.927466  10.786600  11.870336
    28  C   10.901284  10.153267  12.322466  10.341876  11.003335
    29  C   12.927464  12.322237  14.354887  12.204477  13.274284
    30  C   11.870857  11.003645  13.274784  11.427643  11.724546
    31  C   13.696702  12.975998  15.121366  13.077924  13.823916
    32  C   13.204146  12.362011  14.613828  12.718182  13.095882
    33  H    2.169592   3.448469   1.087564   2.715444   3.899836
    34  H    2.152692   3.429769   2.715066   1.088187   4.614074
    35  H    3.446574   2.168565   3.899940   4.605926   1.087664
    36  H    3.424531   2.133899   4.599937   3.879519   2.671726
    37  H    3.910081   3.421411   3.401408   5.311356   2.135866
    38  H    3.421401   3.911600   2.135277   4.614765   3.401728
    39  H    4.071335   4.872423   5.035523   2.672009   6.272530
    40  H    6.371134   6.928417   7.438368   5.005610   8.354663
    41  H    5.106145   4.014768   6.419134   5.136064   4.664031
    42  H    8.299449   8.542774   9.520597   7.037351   9.931817
    43  H    9.659368   9.564544  11.006003   8.573414  10.842773
    44  H   11.422076  11.083984  12.823382  10.488891  12.229899
    45  H    9.233393   8.334800  10.627315   8.868399   9.060693
    46  H    7.326603   6.363289   8.698565   7.089169   7.063830
    47  H   13.468635  12.957354  14.891126  12.657093  13.976714
    48  H   11.618509  10.648702  12.995399  11.300325  11.255732
    49  H   14.777166  14.062563  16.202486  14.143503  14.908346
    50  H   13.969724  13.057762  15.365006  13.556541  13.708798
                    6          7          8          9         10
     6  C    0.000000
     7  C    3.728338   0.000000
     8  C    4.231745   1.423606   0.000000
     9  C    2.434321   5.083458   4.883915   0.000000
    10  C    1.394477   4.890433   5.102870   1.444185   0.000000
    11  C    3.734653   6.479063   6.163608   1.425963   2.476140
    12  C    2.511899   6.217375   6.538835   2.498027   1.460049
    13  C    4.262677   7.482098   7.337321   2.453927   2.869632
    14  C    3.786108   7.381985   7.515438   2.862075   2.492112
    15  C    5.707795   8.858865   8.616245   3.780801   4.314637
    16  C    4.981502   8.668901   8.890366   4.289695   3.804774
    17  C    2.982976   6.627746   7.214409   3.812619   2.519578
    18  C    6.519711   9.901819   9.777862   4.895463   5.142517
    19  C    6.260493   9.869972   9.954060   5.147982   4.981439
    20  C    7.425817  11.098168  11.253964   6.493361   6.214460
    21  C    5.231480   8.953176   9.385024   5.172479   4.328943
    22  C    7.642610  11.370142  11.696527   7.150321   6.593683
    23  C    6.666017  10.375942  10.839249   6.593954   5.788901
    24  C    8.989858  12.717641  13.077753   8.548459   7.976438
    25  C    7.340385  10.958615  11.570186   7.642983   6.666228
    26  C    4.358143   7.988970   8.589218   4.936575   3.782803
    27  C    9.510070  13.203678  13.696611   9.393039   8.645613
    28  C    8.746873  12.361743  12.976121   8.978556   8.050270
    29  C   10.928518  14.613375  15.121280  10.809163  10.073240
    30  C    9.602639  13.095907  13.824320  10.097493   9.058121
    31  C   11.570033  15.184329  15.797576  11.696625  10.839212
    32  C   10.958865  14.466964  15.184697  11.370622  10.376330
    33  H    4.620637   3.418160   2.140934   4.109976   4.920382
    34  H    3.882764   4.867408   4.079690   2.146887   3.441252
    35  H    2.704616   2.140562   3.417931   4.885188   4.096064
    36  H    1.085343   4.038611   4.837961   3.429991   2.156625
    37  H    4.611582   1.086570   2.174788   6.145712   5.857671
    38  H    5.318288   2.174555   1.086589   5.855689   6.166946
    39  H    4.595925   6.889402   6.354409   2.164549   3.453314
    40  H    6.288130   9.140520   8.730245   4.099876   4.926264
    41  H    2.669331   6.033592   6.800539   4.184322   2.754088
    42  H    7.589266  10.914943  10.727455   5.865015   6.205486
    43  H    8.372255  11.999277  12.073876   7.238237   7.109645
    44  H    9.766719  13.489987  13.765747   9.101937   8.670644
    45  H    6.936098  10.430809  11.153835   7.581894   6.454848
    46  H    4.974518   8.433988   9.174435   5.888382   4.634771
    47  H   11.581477  15.295803  15.726162  11.258549  10.637325
    48  H    9.268039  12.627223  13.445999  10.020742   8.874275
    49  H   12.656665  16.269523  16.883906  12.758621  11.918820
    50  H   11.665032  15.081131  15.868379  12.231368  11.173848
                   11         12         13         14         15
    11  C    0.000000
    12  C    2.841391   0.000000
    13  C    1.374168   2.482816   0.000000
    14  C    2.446591   1.417172   1.452494   0.000000
    15  C    2.457725   3.791118   1.445124   2.494504   0.000000
    16  C    3.741691   2.470769   2.489962   1.427881   2.855623
    17  C    4.255455   1.415337   3.759578   2.422797   4.916890
    18  C    3.692106   4.272291   2.441780   2.855413   1.352586
    19  C    4.238393   3.792213   2.864232   2.489762   2.441917
    20  C    5.612493   4.916654   4.238340   3.741425   3.692209
    21  C    4.916943   2.868936   3.792421   2.470840   4.272504
    22  C    6.493494   5.172275   5.148060   4.289554   4.895677
    23  C    6.214906   4.328937   4.981851   3.804953   5.143069
    24  C    7.865692   6.543562   6.508788   5.688081   6.133368
    25  C    7.426300   5.231630   6.260914   4.981757   6.520206
    26  C    5.082069   2.438964   4.251245   2.798777   5.102484
    27  C    8.867366   7.186175   7.548366   6.550242   7.343846
    28  C    8.666450   6.605481   7.435825   6.242851   7.509894
    29  C   10.246414   8.613780   8.911444   7.959203   8.611277
    30  C    9.904699   7.651671   8.724374   7.460692   8.886311
    31  C   11.254127   9.384943   9.954140   8.890294   9.778004
    32  C   11.098693   8.953465   9.870399   8.669192   9.902275
    33  H    5.057785   6.352532   6.391935   6.969228   7.462335
    34  H    2.671777   4.643292   4.043292   4.876977   5.000498
    35  H    6.289705   5.098567   6.955713   6.450859   8.399437
    36  H    4.626418   2.757973   4.930946   4.163210   6.357088
    37  H    7.550185   7.123092   8.521148   8.345899   9.911987
    38  H    7.072805   7.610566   8.297967   8.552075   9.530339
    39  H    1.088051   3.929434   2.130360   3.434612   2.673944
    40  H    2.675615   4.654770   2.176868   3.468565   1.087261
    41  H    4.915730   2.170391   4.646330   3.412905   5.895613
    42  H    4.578810   5.359462   3.432863   3.942455   2.123574
    43  H    6.215404   5.880466   4.863006   4.617555   4.021919
    44  H    8.279417   7.276542   6.905561   6.277355   6.309085
    45  H    7.569277   5.094326   6.529445   5.144546   7.004971
    46  H    6.134921   3.405452   5.335140   3.882648   6.164810
    47  H   10.574315   9.188654   9.212133   8.396707   8.744579
    48  H    9.982498   7.530860   8.891166   7.543676   9.221814
    49  H   12.283454  10.463068  10.969393   9.939634  10.730105
    50  H   12.032943   9.778234  10.835772   9.591241  10.927555
                   16         17         18         19         20
    16  C    0.000000
    17  C    2.798861   0.000000
    18  C    2.494545   5.102510   0.000000
    19  C    1.452421   4.251255   1.445208   0.000000
    20  C    2.446379   5.081981   2.457821   1.374115   0.000000
    21  C    1.417173   2.439092   3.791205   2.482818   2.841228
    22  C    2.861936   4.936517   3.780995   2.454001   1.426044
    23  C    2.492316   3.782798   4.315160   2.870072   2.476497
    24  C    4.260538   6.200222   4.915742   3.724952   2.458493
    25  C    3.786330   4.358332   5.708229   4.263027   3.734917
    26  C    2.422639   1.375343   4.916769   3.759420   4.255219
    27  C    5.146369   6.580250   6.194916   4.902941   3.753069
    28  C    4.947238   5.765091   6.531819   5.119489   4.256742
    29  C    6.546138   7.986175   7.398480   6.188519   4.941791
    30  C    6.238570   6.641983   7.943990   6.521578   5.682871
    31  C    7.515321   8.589272   8.616336   7.337318   6.163587
    32  C    7.382201   7.989364   8.859241   7.482390   6.479289
    33  H    8.397038   7.378697   8.744659   9.212304  10.574420
    34  H    6.277676   5.925357   6.309104   6.905703   8.279503
    35  H    7.542982   5.099218   9.221028   8.890361   9.981575
    36  H    5.143966   2.671956   7.004212   6.528732   7.568500
    37  H    9.590836   7.394952  10.927021  10.835245  12.032305
    38  H    9.939649   8.300995  10.729982  10.969291  12.283257
    39  H    4.617785   5.343437   4.021729   4.863003   6.215346
    40  H    3.942623   5.877677   2.123552   3.432954   4.578885
    41  H    3.882706   1.084246   6.164798   5.335124   6.134817
    42  H    3.468598   6.158747   1.087306   2.176937   2.675730
    43  H    3.434429   6.142204   2.674136   2.130338   1.088011
    44  H    4.876684   7.082113   5.000466   4.043144   2.671676
    45  H    4.163739   3.991940   6.357764   4.931544   4.626882
    46  H    3.412767   2.115905   5.895542   4.646215   4.915536
    47  H    6.968894   8.693373   7.462228   6.391729   5.057603
    48  H    6.451429   6.382266   8.400099   6.956293   6.290130
    49  H    8.552007   9.676001   9.530393   8.297956   7.072757
    50  H    8.346208   8.729476   9.912428   8.521509   7.550461
                   21         22         23         24         25
    21  C    0.000000
    22  C    2.497843   0.000000
    23  C    1.460042   1.444384   0.000000
    24  C    3.779312   1.398615   2.459049   0.000000
    25  C    2.512076   2.434487   1.394393   2.794730   0.000000
    26  C    1.415273   3.812431   2.519412   4.976203   2.983159
    27  C    4.318429   2.449520   2.859253   1.401765   2.455548
    28  C    3.808287   2.830751   2.455454   2.441679   1.406818
    29  C    5.745820   3.767706   4.286287   2.483406   3.750325
    30  C    4.990984   4.256832   3.764745   3.737239   2.479003
    31  C    6.538731   4.883837   5.102680   3.728189   4.231626
    32  C    6.217605   5.083620   4.890452   4.225008   3.728443
    33  H    9.188991  11.258739  10.637708  12.657192  11.581940
    34  H    7.276880   9.102132   8.671091  10.488981   9.767227
    35  H    7.530157  10.019839   8.873409  11.299378   9.267344
    36  H    5.093865   7.581223   6.454287   8.867719   6.935811
    37  H    9.777811  12.230752  11.173290  13.555864  11.664606
    38  H   10.463046  12.758452  11.918756  14.143252  12.656681
    39  H    5.880730   7.238326   7.110085   8.573363   8.372721
    40  H    5.359632   5.865192   6.205997   7.037378   7.589714
    41  H    3.405560   5.888309   4.634698   7.089085   4.974666
    42  H    4.654844   4.100075   4.926791   5.005645   6.288551
    43  H    3.929230   2.164482   3.453538   2.671776   4.596030
    44  H    4.643028   2.146801   3.441309   1.088159   3.882850
    45  H    2.758491   3.430330   2.156735   3.879766   1.085478
    46  H    2.170292   4.184134   2.753757   5.135924   2.669373
    47  H    6.352226   4.109768   4.920189   2.715329   4.620513
    48  H    5.099153   4.885508   4.096237   4.606167   2.704880
    49  H    7.610555   5.855628   6.166857   4.614765   5.318314
    50  H    7.123424   6.145924   5.857740   5.311601   4.611743
                   26         27         28         29         30
    26  C    0.000000
    27  C    5.242428   0.000000
    28  C    4.389965   1.439754   0.000000
    29  C    6.635955   1.427630   2.468075   0.000000
    30  C    5.290583   2.465610   1.426361   2.812286   0.000000
    31  C    7.214458   2.434393   2.825038   1.371885   2.426214
    32  C    6.628160   2.823789   2.435022   2.426125   1.372540
    33  H    8.693529  13.468819  12.957770  14.891301  13.977390
    34  H    7.082255  11.422261  11.084424  12.823543  12.230582
    35  H    6.381499  11.617631  10.648009  12.994551  11.255352
    36  H    3.991492   9.232852   8.334513  10.626814   9.060780
    37  H    8.728953  13.969107  13.057324  15.364407  13.708647
    38  H    9.675804  14.776967  14.062550  16.202290  14.908588
    39  H    6.142298   9.659427   9.564901  11.006008  10.843349
    40  H    6.158689   8.299544   8.543122   9.520626   9.932314
    41  H    2.115987   7.326584   6.363442   8.698582   7.064278
    42  H    5.877576   6.371222   6.928742   7.438371   8.355085
    43  H    5.343162   4.071143   4.872442   5.035256   6.272607
    44  H    5.925125   2.152716   3.429896   2.715049   4.614234
    45  H    2.672505   3.424594   2.133908   4.599943   2.671783
    46  H    1.084273   5.106081   4.014871   6.419128   4.664476
    47  H    7.378497   2.169506   3.448399   1.087494   3.899775
    48  H    5.100041   3.446655   2.168650   3.899854   1.087569
    49  H    8.301188   3.421441   3.911650   2.135269   3.401754
    50  H    7.395506   3.910284   3.421559   3.401531   2.135905
                   31         32         33         34         35
    31  C    0.000000
    32  C    1.423516   0.000000
    33  H   15.726422  15.296426   0.000000
    34  H   13.765995  13.490600   2.492192   0.000000
    35  H   13.445240  12.626833   4.987497   5.559309   0.000000
    36  H   11.153471  10.430866   5.550130   4.967705   2.439025
    37  H   15.867855  15.080964   4.305520   5.936351   2.469966
    38  H   16.883773  16.269734   2.470941   4.785525   4.304981
    39  H   12.073976  11.999751   4.914256   2.422166   6.998552
    40  H   10.727545  10.915341   7.342821   4.851277   8.922669
    41  H    9.174520   8.434415   7.275737   6.169561   4.296229
    42  H    8.730297   9.140841   9.576807   7.102951  10.292921
    43  H    6.354178   6.889396  11.254692   8.881050  10.972306
    44  H    4.079702   4.867556  13.203612  10.941900  12.166363
    45  H    4.837839   4.038664  11.359829   9.728377   8.624475
    46  H    6.800610   6.034014   9.477433   8.020614   6.644730
    47  H    2.140958   3.418162  15.365189  13.203593  13.759906
    48  H    3.417632   2.140378  13.760921  12.167374  10.704411
    49  H    1.086733   2.174633  16.799534  14.816602  14.521792
    50  H    2.174794   1.086606  16.088962  14.365867  13.172324
                   36         37         38         39         40
    36  H    0.000000
    37  H    4.737620   0.000000
    38  H    5.905080   2.492641   0.000000
    39  H    5.562070   7.975509   7.155773   0.000000
    40  H    7.051684  10.216656   9.567957   2.429666   0.000000
    41  H    1.996521   6.694280   7.877184   5.990052   6.808074
    42  H    8.090267  11.952033  11.651215   4.723999   2.459980
    43  H    8.578354  12.959537  13.080483   6.672094   4.724191
    44  H    9.727603  14.365126  14.816295   8.880884   7.102897
    45  H    6.393313  11.064869  12.237674   8.579128   8.090980
    46  H    4.396906   9.075018  10.256111   7.203946   7.228741
    47  H   11.359130  16.088198  16.799180  11.254503   9.576681
    48  H    8.624989  13.172530  14.522369  10.973199  10.293652
    49  H   12.237476  16.948499  17.970049  13.080592  11.651267
    50  H   11.065130  15.639588  16.948852  12.960125  11.952506
                   41         42         43         44         45
    41  H    0.000000
    42  H    7.228765   0.000000
    43  H    7.203828   2.429904   0.000000
    44  H    8.020474   4.851234   2.421887   0.000000
    45  H    4.397269   7.052342   5.562379   4.967924   0.000000
    46  H    2.400572   6.808022   5.989795   6.169374   1.996869
    47  H    9.477298   7.342682   4.913881   2.492096   5.550080
    48  H    6.645531   8.923263   6.998741   5.559466   2.439235
    49  H   10.256367   9.567930   7.155466   4.785452   5.905132
    50  H    9.075593  10.217030   7.975541   5.936527   4.737706
                   46         47         48         49         50
    46  H    0.000000
    47  H    7.275583   0.000000
    48  H    4.297046   4.987342   0.000000
    49  H    7.877439   2.470852   4.304870   0.000000
    50  H    6.694854   4.305568   2.469799   2.492791   0.000000
 Stoichiometry    C32H18
 Framework group  C1[X(C32H18)]
 Deg. of freedom   144
 Full point group                 C1      NOp   1
 Largest Abelian subgroup         C1      NOp   1
 Largest concise Abelian subgroup C1      NOp   1
                         Standard orientation:                         
 ---------------------------------------------------------------------
 Center     Atomic      Atomic             Coordinates (Angstroms)
 Number     Number       Type             X           Y           Z
 ---------------------------------------------------------------------
      1          6           0       -5.750059   -0.060863    0.000352
      2          6           0       -5.076567   -1.333319    0.001751
      3          6           0       -7.177505   -0.038144    0.003087
      4          6           0       -4.973367    1.106002   -0.002994
      5          6           0       -5.862049   -2.523797    0.006118
      6          6           0       -3.670112   -1.366124   -0.000936
      7          6           0       -7.233268   -2.463540    0.009168
      8          6           0       -7.898784   -1.205072    0.007493
      9          6           0       -3.575225    1.066345   -0.004502
     10          6           0       -2.894424   -0.207303   -0.003897
     11          6           0       -2.806364    2.267270   -0.005359
     12          6           0       -1.434439   -0.220967   -0.005108
     13          6           0       -1.432207    2.261848   -0.004279
     14          6           0       -0.713934    0.999380   -0.004148
     15          6           0       -0.676454    3.493602   -0.002479
     16          6           0        0.713945    0.999334   -0.002617
     17          6           0       -0.687689   -1.423273   -0.006797
     18          6           0        0.676128    3.493591    0.000530
     19          6           0        1.432021    2.261824    0.001078
     20          6           0        2.806119    2.267214    0.005215
     21          6           0        1.434496   -0.220988   -0.003938
     22          6           0        3.575090    1.066262    0.004291
     23          6           0        2.894476   -0.207696   -0.002034
     24          6           0        4.973132    1.106079    0.008409
     25          6           0        3.670271   -1.366342   -0.005911
     26          6           0        0.687654   -1.423159   -0.006679
     27          6           0        5.749941   -0.060756    0.005612
     28          6           0        5.076699   -1.333378   -0.002627
     29          6           0        7.177381   -0.037858    0.009992
     30          6           0        5.862490   -2.523765   -0.006725
     31          6           0        7.898792   -1.204742    0.006265
     32          6           0        7.233691   -2.463297   -0.002420
     33          1           0       -7.682762    0.924929    0.002160
     34          1           0       -5.471117    2.073677   -0.003340
     35          1           0       -5.351789   -3.484341    0.007300
     36          1           0       -3.196477   -2.342668   -0.000172
     37          1           0       -7.819476   -3.378407    0.012660
     38          1           0       -8.984954   -1.175020    0.009969
     39          1           0       -3.336119    3.217647   -0.005372
     40          1           0       -1.230146    4.429317   -0.002728
     41          1           0       -1.200298   -2.378690   -0.008278
     42          1           0        1.229829    4.429350    0.002662
     43          1           0        3.335959    3.217489    0.008914
     44          1           0        5.470770    2.073767    0.013466
     45          1           0        3.196826   -2.343113   -0.011412
     46          1           0        1.200274   -2.378599   -0.008281
     47          1           0        7.682420    0.925231    0.016282
     48          1           0        5.352602   -3.484379   -0.013261
     49          1           0        8.985095   -1.174318    0.009616
     50          1           0        7.820101   -3.378079   -0.005662
 ---------------------------------------------------------------------
 Rotational constants (GHZ):      0.4092297      0.0591416      0.0516739
 Leave Link  202 at Sat Jul 27 14:28:47 2019, MaxMem=  4194304000 cpu:         0.5
 (Enter /home/minenky/programs//g09/l301.exe)
 Standard basis: def2TZVP (5D, 7F)
 ======================================================================================================
                                       Pseudopotential Parameters
 ======================================================================================================
  Center     Atomic      Valence      Angular      Power
  Number     Number     Electrons     Momentum     of R      Exponent        Coefficient   SO-Coeffient
 ======================================================================================================
    1          6
                                   No pseudopotential on this center.
    2          6
                                   No pseudopotential on this center.
    3          6
                                   No pseudopotential on this center.
    4          6
                                   No pseudopotential on this center.
    5          6
                                   No pseudopotential on this center.
    6          6
                                   No pseudopotential on this center.
    7          6
                                   No pseudopotential on this center.
    8          6
                                   No pseudopotential on this center.
    9          6
                                   No pseudopotential on this center.
   10          6
                                   No pseudopotential on this center.
   11          6
                                   No pseudopotential on this center.
   12          6
                                   No pseudopotential on this center.
   13          6
                                   No pseudopotential on this center.
   14          6
                                   No pseudopotential on this center.
   15          6
                                   No pseudopotential on this center.
   16          6
                                   No pseudopotential on this center.
   17          6
                                   No pseudopotential on this center.
   18          6
                                   No pseudopotential on this center.
   19          6
                                   No pseudopotential on this center.
   20          6
                                   No pseudopotential on this center.
   21          6
                                   No pseudopotential on this center.
   22          6
                                   No pseudopotential on this center.
   23          6
                                   No pseudopotential on this center.
   24          6
                                   No pseudopotential on this center.
   25          6
                                   No pseudopotential on this center.
   26          6
                                   No pseudopotential on this center.
   27          6
                                   No pseudopotential on this center.
   28          6
                                   No pseudopotential on this center.
   29          6
                                   No pseudopotential on this center.
   30          6
                                   No pseudopotential on this center.
   31          6
                                   No pseudopotential on this center.
   32          6
                                   No pseudopotential on this center.
   33          1
                                   No pseudopotential on this center.
   34          1
                                   No pseudopotential on this center.
   35          1
                                   No pseudopotential on this center.
   36          1
                                   No pseudopotential on this center.
   37          1
                                   No pseudopotential on this center.
   38          1
                                   No pseudopotential on this center.
   39          1
                                   No pseudopotential on this center.
   40          1
                                   No pseudopotential on this center.
   41          1
                                   No pseudopotential on this center.
   42          1
                                   No pseudopotential on this center.
   43          1
                                   No pseudopotential on this center.
   44          1
                                   No pseudopotential on this center.
   45          1
                                   No pseudopotential on this center.
   46          1
                                   No pseudopotential on this center.
   47          1
                                   No pseudopotential on this center.
   48          1
                                   No pseudopotential on this center.
   49          1
                                   No pseudopotential on this center.
   50          1
                                   No pseudopotential on this center.
 ======================================================================================================
 Ernie: Thresh=  0.10000D-02 Tol=  0.10000D-05 Strict=F.
 AO basis set (Overlap normalization):
 Atom C1       Shell     1 S   6     bf    1 -     1        -10.866037321184         -0.115014374523          0.000664501591
      0.1357534968D+05  0.6064550360D-03
      0.2035233368D+04  0.4697908888D-02
      0.4632256236D+03  0.2433247765D-01
      0.1312001960D+03  0.9739996831D-01
      0.4285301589D+02  0.3019558425D+00
      0.1558418577D+02  0.6623360914D+00
 Atom C1       Shell     2 S   2     bf    2 -     2        -10.866037321184         -0.115014374523          0.000664501591
      0.6206713851D+01  0.6559530854D+00
      0.2576489653D+01  0.3758563329D+00
 Atom C1       Shell     3 S   1     bf    3 -     3        -10.866037321184         -0.115014374523          0.000664501591
      0.5769633942D+00  0.1000000000D+01
 Atom C1       Shell     4 S   1     bf    4 -     4        -10.866037321184         -0.115014374523          0.000664501591
      0.2297283136D+00  0.1000000000D+01
 Atom C1       Shell     5 S   1     bf    5 -     5        -10.866037321184         -0.115014374523          0.000664501591
      0.9516444003D-01  0.1000000000D+01
 Atom C1       Shell     6 P   4     bf    6 -     8        -10.866037321184         -0.115014374523          0.000664501591
      0.3469723224D+02  0.1132722000D-01
      0.7958262283D+01  0.7616965920D-01
      0.2378082688D+01  0.3019225220D+00
      0.8143320818D+00  0.7278502735D+00
 Atom C1       Shell     7 P   1     bf    9 -    11        -10.866037321184         -0.115014374523          0.000664501591
      0.2888754725D+00  0.1000000000D+01
 Atom C1       Shell     8 P   1     bf   12 -    14        -10.866037321184         -0.115014374523          0.000664501591
      0.1005682367D+00  0.1000000000D+01
 Atom C1       Shell     9 D   1     bf   15 -    19        -10.866037321184         -0.115014374523          0.000664501591
      0.1097000000D+01  0.1000000000D+01
 Atom C1       Shell    10 D   1     bf   20 -    24        -10.866037321184         -0.115014374523          0.000664501591
      0.3180000000D+00  0.1000000000D+01
 Atom C1       Shell    11 F   1     bf   25 -    31        -10.866037321184         -0.115014374523          0.000664501591
      0.7610000000D+00  0.1000000000D+01
 Atom C2       Shell    12 S   6     bf   32 -    32         -9.593321873213         -2.519608046916          0.003308238565
      0.1357534968D+05  0.6064550360D-03
      0.2035233368D+04  0.4697908888D-02
      0.4632256236D+03  0.2433247765D-01
      0.1312001960D+03  0.9739996831D-01
      0.4285301589D+02  0.3019558425D+00
      0.1558418577D+02  0.6623360914D+00
 Atom C2       Shell    13 S   2     bf   33 -    33         -9.593321873213         -2.519608046916          0.003308238565
      0.6206713851D+01  0.6559530854D+00
      0.2576489653D+01  0.3758563329D+00
 Atom C2       Shell    14 S   1     bf   34 -    34         -9.593321873213         -2.519608046916          0.003308238565
      0.5769633942D+00  0.1000000000D+01
 Atom C2       Shell    15 S   1     bf   35 -    35         -9.593321873213         -2.519608046916          0.003308238565
      0.2297283136D+00  0.1000000000D+01
 Atom C2       Shell    16 S   1     bf   36 -    36         -9.593321873213         -2.519608046916          0.003308238565
      0.9516444003D-01  0.1000000000D+01
 Atom C2       Shell    17 P   4     bf   37 -    39         -9.593321873213         -2.519608046916          0.003308238565
      0.3469723224D+02  0.1132722000D-01
      0.7958262283D+01  0.7616965920D-01
      0.2378082688D+01  0.3019225220D+00
      0.8143320818D+00  0.7278502735D+00
 Atom C2       Shell    18 P   1     bf   40 -    42         -9.593321873213         -2.519608046916          0.003308238565
      0.2888754725D+00  0.1000000000D+01
 Atom C2       Shell    19 P   1     bf   43 -    45         -9.593321873213         -2.519608046916          0.003308238565
      0.1005682367D+00  0.1000000000D+01
 Atom C2       Shell    20 D   1     bf   46 -    50         -9.593321873213         -2.519608046916          0.003308238565
      0.1097000000D+01  0.1000000000D+01
 Atom C2       Shell    21 D   1     bf   51 -    55         -9.593321873213         -2.519608046916          0.003308238565
      0.3180000000D+00  0.1000000000D+01
 Atom C2       Shell    22 F   1     bf   56 -    62         -9.593321873213         -2.519608046916          0.003308238565
      0.7610000000D+00  0.1000000000D+01
 Atom C3       Shell    23 S   6     bf   63 -    63        -13.563518538317         -0.072081827394          0.005834396006
      0.1357534968D+05  0.6064550360D-03
      0.2035233368D+04  0.4697908888D-02
      0.4632256236D+03  0.2433247765D-01
      0.1312001960D+03  0.9739996831D-01
      0.4285301589D+02  0.3019558425D+00
      0.1558418577D+02  0.6623360914D+00
 Atom C3       Shell    24 S   2     bf   64 -    64        -13.563518538317         -0.072081827394          0.005834396006
      0.6206713851D+01  0.6559530854D+00
      0.2576489653D+01  0.3758563329D+00
 Atom C3       Shell    25 S   1     bf   65 -    65        -13.563518538317         -0.072081827394          0.005834396006
      0.5769633942D+00  0.1000000000D+01
 Atom C3       Shell    26 S   1     bf   66 -    66        -13.563518538317         -0.072081827394          0.005834396006
      0.2297283136D+00  0.1000000000D+01
 Atom C3       Shell    27 S   1     bf   67 -    67        -13.563518538317         -0.072081827394          0.005834396006
      0.9516444003D-01  0.1000000000D+01
 Atom C3       Shell    28 P   4     bf   68 -    70        -13.563518538317         -0.072081827394          0.005834396006
      0.3469723224D+02  0.1132722000D-01
      0.7958262283D+01  0.7616965920D-01
      0.2378082688D+01  0.3019225220D+00
      0.8143320818D+00  0.7278502735D+00
 Atom C3       Shell    29 P   1     bf   71 -    73        -13.563518538317         -0.072081827394          0.005834396006
      0.2888754725D+00  0.1000000000D+01
 Atom C3       Shell    30 P   1     bf   74 -    76        -13.563518538317         -0.072081827394          0.005834396006
      0.1005682367D+00  0.1000000000D+01
 Atom C3       Shell    31 D   1     bf   77 -    81        -13.563518538317         -0.072081827394          0.005834396006
      0.1097000000D+01  0.1000000000D+01
 Atom C3       Shell    32 D   1     bf   82 -    86        -13.563518538317         -0.072081827394          0.005834396006
      0.3180000000D+00  0.1000000000D+01
 Atom C3       Shell    33 F   1     bf   87 -    93        -13.563518538317         -0.072081827394          0.005834396006
      0.7610000000D+00  0.1000000000D+01
 Atom C4       Shell    34 S   6     bf   94 -    94         -9.398301442875          2.090040169457         -0.005656991945
      0.1357534968D+05  0.6064550360D-03
      0.2035233368D+04  0.4697908888D-02
      0.4632256236D+03  0.2433247765D-01
      0.1312001960D+03  0.9739996831D-01
      0.4285301589D+02  0.3019558425D+00
      0.1558418577D+02  0.6623360914D+00
 Atom C4       Shell    35 S   2     bf   95 -    95         -9.398301442875          2.090040169457         -0.005656991945
      0.6206713851D+01  0.6559530854D+00
      0.2576489653D+01  0.3758563329D+00
 Atom C4       Shell    36 S   1     bf   96 -    96         -9.398301442875          2.090040169457         -0.005656991945
      0.5769633942D+00  0.1000000000D+01
 Atom C4       Shell    37 S   1     bf   97 -    97         -9.398301442875          2.090040169457         -0.005656991945
      0.2297283136D+00  0.1000000000D+01
 Atom C4       Shell    38 S   1     bf   98 -    98         -9.398301442875          2.090040169457         -0.005656991945
      0.9516444003D-01  0.1000000000D+01
 Atom C4       Shell    39 P   4     bf   99 -   101         -9.398301442875          2.090040169457         -0.005656991945
      0.3469723224D+02  0.1132722000D-01
      0.7958262283D+01  0.7616965920D-01
      0.2378082688D+01  0.3019225220D+00
      0.8143320818D+00  0.7278502735D+00
 Atom C4       Shell    40 P   1     bf  102 -   104         -9.398301442875          2.090040169457         -0.005656991945
      0.2888754725D+00  0.1000000000D+01
 Atom C4       Shell    41 P   1     bf  105 -   107         -9.398301442875          2.090040169457         -0.005656991945
      0.1005682367D+00  0.1000000000D+01
 Atom C4       Shell    42 D   1     bf  108 -   112         -9.398301442875          2.090040169457         -0.005656991945
      0.1097000000D+01  0.1000000000D+01
 Atom C4       Shell    43 D   1     bf  113 -   117         -9.398301442875          2.090040169457         -0.005656991945
      0.3180000000D+00  0.1000000000D+01
 Atom C4       Shell    44 F   1     bf  118 -   124         -9.398301442875          2.090040169457         -0.005656991945
      0.7610000000D+00  0.1000000000D+01
 Atom C5       Shell    45 S   6     bf  125 -   125        -11.077666805044         -4.769284833205          0.011560494446
      0.1357534968D+05  0.6064550360D-03
      0.2035233368D+04  0.4697908888D-02
      0.4632256236D+03  0.2433247765D-01
      0.1312001960D+03  0.9739996831D-01
      0.4285301589D+02  0.3019558425D+00
      0.1558418577D+02  0.6623360914D+00
 Atom C5       Shell    46 S   2     bf  126 -   126        -11.077666805044         -4.769284833205          0.011560494446
      0.6206713851D+01  0.6559530854D+00
      0.2576489653D+01  0.3758563329D+00
[...]
 733,-0.00064978,-0.00035909,0.00037164,0.02351449,-0.01412685,-0.01340
 245,-0.00153508,-0.00497048,0.00217433,-0.00000027,0.00000151,0.000000
 09,-0.00000011,0.00000122,0.00000005,-0.00000047,-0.00000111,0.0000004
 5,-0.00000135,-0.00000040,0.00000096,0.00000123,-0.00000079,-0.0000006
 7,0.00000152,0.00000066,-0.00000099,0.00000067,0.00000089,-0.00000041,
 0.00000331,0.00000231,-0.00000180,0.00000230,-0.00000114,-0.00000097,-
 0.00000320,0.00000187,0.00000238,-0.00001141,-0.00001050,0.00000899,0.
 00039378,-0.00016586,-0.00021574,-0.00012990,-0.00006392,0.00010907,0.
 00000207,-0.00000950,-0.00000076,-0.12904068,0.17386301,0.00000065,0.0
 0000264,-0.00000134,-0.00000243,-0.00000048,0.00000242,-0.00000032,-0.
 00000227,0.00000006,0.00000154,-0.00000102,-0.00000113,0.00000026,0.00
 000163,-0.00000099,0.00000257,0.00000248,-0.00000432,0.00000013,0.0000
 0038,-0.00000075,0.00000176,0.00000094,-0.00000164,0.00000152,0.000001
 72,-0.00000156,-0.00000798,-0.00000294,0.00000739,0.00000173,0.0000049
 9,-0.00000287,0.00000408,0.00000764,-0.00001195,0.00000255,-0.00000855
 ,-0.00000083,-0.00000555,-0.00000018,0.00000289,0.00000545,0.00000145,
 -0.00000754,0.00002797,0.00001685,-0.00000926,-0.00000899,0.00001751,0
 .00000395,-0.00001463,-0.00001147,-0.00001801,0.00002345,0.00000050,-0
 .00000986,0.00007747,-0.00002910,0.00008055,-0.00003884,0.00003026,0.0
 0005316,-0.00018940,0.00019877,-0.00008942,-0.00010454,-0.00003073,-0.
 00004772,-0.00158947,-0.00115191,-0.00140775,0.00036512,-0.00079738,-0
 .00012676,0.00001905,-0.00001386,-0.00001065,0.01055630,-0.01114692,-0
 .00281464,0.00369590,0.00236665,0.00218660,0.08436694,-0.06512173,-0.0
 8467342,-0.00033694,0.00046356,-0.00067446,-0.00290022,0.00380758,0.00
 569352,0.00368125,0.00157497,0.00677087,0.00000031,0.00000083,0.000000
 21,0.00000088,0.00000122,0.00000032,-0.00000006,-0.00000017,0.00000075
 ,-0.00000093,0.00000060,0.00000126,0.00000075,-0.00000026,0.00000004,0
 .00000069,0.00000021,-0.00000007,0.00000146,0.00000195,0.,0.00000298,0
 .00000243,0.00000383,0.00000319,-0.00000121,0.00000270,0.00000130,0.00
 000507,0.00000476,0.00000357,0.00002557,0.00000567,0.00004701,0.000708
 61,0.00015408,0.00031526,0.00009687,0.00004182,-0.00001282,0.00001305,
 0.00000407,-0.09452216,0.06946320,0.07922023,-0.00000791,0.00000939,0.
 00000416,-0.00000542,-0.00000885,0.00000530,0.00000302,-0.00000610,-0.
 00000188,0.00001290,-0.00000768,-0.00000799,0.00000209,0.00000698,-0.0
 0000327,0.00001205,0.00000389,-0.00001180,0.00000266,-0.00000443,-0.00
 000221,0.00000181,0.00000293,-0.00000183,-0.00001719,0.00001363,0.0000
 0952,-0.00001798,-0.00000573,0.00001184,0.00001660,0.00000290,-0.00001
 120,0.00000891,0.00002858,-0.00000859,-0.00000452,-0.00000014,0.000002
 70,0.00001032,0.00000203,-0.00001075,-0.00000446,0.00001787,0.00000035
 ,-0.00003141,0.00005306,0.00001969,-0.00001124,-0.00002353,0.00000854,
 0.00001046,-0.00002068,-0.00000944,0.00004557,0.00000727,-0.00003236,0
 .00001785,-0.00007418,0.00001743,-0.00007331,-0.00000831,0.00012213,0.
 00024687,-0.00003594,-0.00023026,0.00000867,0.00043514,-0.00013707,-0.
 00003428,-0.00041645,0.00008728,0.00001792,-0.00146182,-0.00153613,0.0
 0004009,-0.00000457,-0.00004770,0.00203472,-0.00078336,0.00179260,0.00
 426348,-0.00281866,-0.00055613,-0.00016913,-0.00061804,-0.00038302,-0.
 18378902,0.11904499,0.08350781,0.00013200,-0.00275552,0.00602471,-0.01
 200630,0.01744116,0.00879887,-0.00000005,0.00000136,0.00000036,0.00000
 007,0.00000111,0.00000042,0.00000010,-0.00000179,0.00000151,-0.0000005
 4,-0.00000087,0.00000292,0.00000204,-0.00000062,-0.00000057,0.00000167
 ,0.00000065,-0.00000067,0.00000104,0.00000081,-0.00000009,0.00000280,0
 .00000178,-0.00000082,0.00000606,-0.00000085,0.00000031,-0.00000199,0.
 00000351,0.00000237,-0.00001219,0.00000565,0.00001047,0.00006114,-0.00
 002152,0.00011611,0.00014400,0.00035099,0.00003992,0.00000108,0.000007
 20,0.00002314,-0.00036309,0.00005295,-0.00054440,0.19111396,0.00000610
 ,-0.00000288,-0.00000365,-0.00000313,0.00000878,0.00000140,-0.00000180
 ,0.00000282,0.00000084,-0.00000781,0.00000855,0.00000419,0.00000024,-0
 .00000552,0.00000013,-0.00000277,-0.00000682,0.00000183,-0.00000339,0.
 00000354,0.00000173,0.00000019,0.00000008,-0.00000018,0.00001758,-0.00
 001187,-0.00001021,-0.00000412,0.00000769,0.00000196,-0.00001544,0.000
 01210,0.00000874,-0.00000394,-0.00000979,0.00000326,0.00001129,-0.0000
 2502,-0.00000509,-0.00001003,0.00001377,0.00000468,0.00001422,-0.00003
 349,-0.00000634,0.00005222,-0.00002149,-0.00003082,-0.00002337,0.00006
 531,0.00000927,-0.00002756,0.00004057,0.00001349,0.00000051,-0.0000754
 5,0.00000567,-0.00010762,0.00007644,0.00006494,0.00005283,-0.00001995,
 -0.00002197,0.00003868,0.00013136,-0.00004580,-0.00039392,0.00013277,0
 .00022659,0.00141359,-0.00039846,-0.00086082,0.00141128,0.00133414,-0.
 00122815,0.00001077,-0.00010909,-0.00000064,-0.00203442,-0.00463366,0.
 00208446,0.02241541,-0.01442501,-0.01277630,-0.00075457,-0.00044097,0.
 00044478,0.11970518,-0.16663829,-0.06511782,-0.00180901,0.00007387,0.0
 0192320,-0.00965383,0.01105537,0.00555365,0.00000038,0.00000005,-0.000
 00019,0.00000102,0.00000093,-0.00000065,-0.00000068,0.00000179,0.00000
 047,-0.00000239,0.00000297,0.00000160,-0.00000060,-0.00000001,0.000000
 47,-0.00000040,0.00000003,0.00000031,0.00000082,0.00000256,-0.00000065
 ,-0.00000382,0.00000163,0.00000244,-0.00000764,-0.00000356,0.00000570,
 0.00000198,-0.00000136,-0.00000096,0.00000341,0.00002623,-0.00000395,-
 0.00002313,-0.00050180,0.00007734,-0.00114295,-0.00018364,0.00076329,-
 0.00003109,0.00002006,0.00002131,0.00005750,0.00004325,-0.00014245,-0.
 12870596,0.17330455,0.00000443,-0.00000574,-0.00000245,0.00000482,0.00
 000503,-0.00000174,-0.00000224,0.00000358,0.00000037,-0.00000798,0.000
 00410,0.00000403,-0.00000270,-0.00000415,-0.00000006,-0.00001124,-0.00
 000241,0.00000134,-0.00000230,0.00000239,-0.00000015,-0.00000160,-0.00
 000193,0.00000049,0.00000919,-0.00000769,-0.00000559,0.00001170,0.0000
 0298,-0.00000780,-0.00000965,-0.00000292,0.00000575,-0.00000584,-0.000
 01741,0.00000438,0.00000174,0.00000218,-0.00000158,-0.00000973,-0.0000
 0298,0.00000012,0.00000066,-0.00000867,-0.00000123,0.00001976,-0.00003
 135,-0.00000330,0.00000853,0.00000937,-0.00000714,-0.00000886,0.000009
 12,-0.00000228,-0.00003179,0.00000137,0.00001571,0.00002025,0.00004369
 ,0.00001887,0.00011697,0.00001689,0.00004196,-0.00023654,0.00000163,0.
 00003003,-0.00006716,-0.00030034,-0.00008124,-0.00006705,0.00030231,0.
 00006489,-0.00177842,0.00059793,-0.00151299,-0.00004899,0.00000910,-0.
 00000520,0.00189813,0.00128932,0.00343601,-0.00268410,0.00326223,0.004
 44541,-0.00037152,0.00035798,-0.00064780,0.08345213,-0.06469827,-0.084
 19281,0.00594487,0.00252482,0.00525396,0.01108379,-0.01166757,-0.00190
 935,0.00000044,-0.00000081,0.00000048,0.00000043,-0.00000071,0.0000006
 7,0.00000141,0.00000117,0.00000124,0.00000305,0.00000064,0.00000195,-0
 .00000057,0.00000049,0.00000139,-0.00000058,-0.00000036,0.00000110,-0.
 00000009,-0.00000064,0.00000113,-0.00000035,-0.00000112,0.00000206,0.0
 0000089,0.00000138,0.00000576,0.00000249,-0.00000193,0.00000078,0.0000
 1066,-0.00000538,-0.00000128,0.00011624,0.00007632,0.00016065,0.000165
 90,-0.00018623,0.00016364,0.00002637,-0.00000303,0.00002194,-0.0005447
 8,-0.00013956,-0.00085456,-0.09470824,0.06929999,0.07937997,-0.0000002
 2,-0.00000199,0.00000029,-0.00000292,0.00000165,0.00000186,0.00000153,
 0.00000573,-0.00000170,-0.00000050,0.00000785,-0.00000058,0.00000221,-
 0.00000644,-0.00000124,-0.00000045,-0.00000455,-0.00000030,-0.00000603
 ,-0.00000054,0.00000351,-0.00000342,0.00000296,0.00000169,0.00000066,-
 0.00000748,0.00000029,-0.00000209,-0.00000051,0.00000115,0.00000218,-0
 .00000404,-0.00000160,-0.00000072,0.00001567,-0.00000121,-0.00000891,-
 0.00000761,0.00000753,0.00000859,0.00000553,-0.00001097,0.00000777,-0.
 00002099,-0.00000698,-0.00001651,0.00001367,0.00000376,-0.00001067,-0.
 00001037,0.00000910,-0.00001133,0.00002421,0.00001143,0.00006218,-0.00
 003245,0.00000839,-0.00006425,-0.00001121,-0.00000067,0.00001097,-0.00
 002527,0.00003823,-0.00010659,-0.00010283,-0.00046280,0.00003462,0.000
 14808,0.00002767,-0.00012128,-0.00007760,0.00019035,-0.00028860,-0.000
 20742,-0.00024955,0.00000091,-0.00000222,-0.00000911,0.00407540,0.0005
 8411,0.00378342,0.00016392,0.00053417,-0.00070396,0.00190462,0.0011205
 7,0.00107440,-0.00028021,0.00380858,0.00308591,-0.21940580,-0.08118652
 ,0.12253430,-0.01186202,-0.01068155,0.00977871,0.00000049,-0.00000167,
 0.00000008,0.00000043,-0.00000139,0.00000019,0.00000090,0.00000138,-0.
 00000024,0.00000240,0.00000038,-0.00000095,-0.00000134,0.00000079,0.00
 000107,-0.00000163,-0.00000066,0.00000132,-0.00000034,-0.00000098,0.00
 000080,-0.00000272,-0.00000201,0.00000165,-0.00000090,0.00000151,0.000
 00219,0.00000381,-0.00000328,-0.00000073,0.00000305,-0.00000839,-0.000
 00473,0.00007457,-0.00001116,0.00010617,0.00004711,0.00002222,0.000000
 86,0.00001066,-0.00000327,-0.00000487,-0.00094798,-0.00050577,-0.00281
 657,-0.00069838,-0.00048145,0.00052983,0.22750425,0.00001106,-0.000011
 30,-0.00000608,0.00000876,0.00000965,-0.00000636,-0.00000532,0.0000042
 9,0.00000299,-0.00001747,0.00000593,0.00001057,-0.00000457,-0.00000401
 ,0.00000319,-0.00001652,-0.00000069,0.00001043,-0.00000116,0.00000609,
 0.00000017,0.00000040,-0.00000488,0.00000013,0.00002359,-0.00001460,-0
 .00001375,0.00002211,0.00000591,-0.00001458,-0.00002573,-0.00000114,0.
 00001638,-0.00000591,-0.00003983,0.00000707,0.00001569,0.00000368,-0.0
 0001012,-0.00002559,-0.00000420,0.00001595,-0.00000328,-0.00002170,0.0
 0000341,0.00007640,-0.00007100,-0.00004331,0.00001626,0.00004525,-0.00
 001396,-0.00002119,0.00002874,0.00001187,-0.00008191,-0.00005776,0.000
 06293,-0.00009788,0.00013538,0.00004516,0.00010604,0.00005881,-0.00006
 664,-0.00027646,-0.00055095,0.00015064,0.00009140,-0.00037787,-0.00001
 798,-0.00108383,0.00056060,0.00065575,0.00018232,0.00051619,-0.0002191
 8,-0.00005409,-0.00000481,0.00003362,0.00116303,-0.00583555,0.00060511
 ,0.00002963,-0.00101398,-0.00000693,-0.02594650,-0.00689409,0.01738837
 ,0.00314831,-0.00216459,-0.00139007,-0.08028247,-0.10023486,0.05632640
 ,0.01586266,0.01139788,-0.01086570,0.00000022,-0.00000114,0.,0.0000000
 8,-0.00000093,0.00000007,0.00000033,0.00000103,-0.00000024,0.00000099,
 0.00000051,-0.00000059,-0.00000099,0.00000061,0.00000061,-0.00000116,-
 0.00000050,0.00000081,-0.00000070,-0.00000068,0.00000057,-0.00000382,-
 0.00000245,0.00000260,-0.00000245,0.00000076,0.00000172,0.00000335,-0.
 00000337,-0.00000166,0.00000909,-0.00000379,-0.00000592,0.00004998,-0.
 00003227,-0.00000880,-0.00006144,-0.00001109,0.00004432,0.00000152,0.0
 0000027,-0.00000077,0.00005262,0.00080872,-0.00056095,0.00081380,0.000
 34594,-0.00054039,0.08694256,0.10270869,-0.00000081,0.00000222,0.00000
 030,0.00000126,-0.00000184,-0.00000042,-0.00000077,-0.00000404,0.00000
 044,0.00000156,-0.00000552,-0.00000090,-0.00000140,0.00000438,-0.00000
 007,0.00000071,0.00000282,-0.00000221,0.00000357,-0.00000022,-0.000002
 82,0.00000190,-0.00000150,-0.00000146,-0.00000233,0.00000600,0.0000011
 0,-0.00000076,-0.00000020,0.00000015,0.00000023,0.00000259,-0.00000124
 ,0.00000061,-0.00000664,-0.00000037,0.00000556,0.00000469,-0.00000201,
 -0.00000835,-0.00000383,-0.00000231,-0.00000848,0.00001466,-0.00000185
 ,-0.00000153,-0.00000344,-0.00000753,0.00000686,0.00000297,-0.00000233
 ,0.00001526,-0.00001698,0.00000160,0.00001256,0.00003149,0.00006044,0.
 00000664,-0.00000992,-0.00007017,0.00002715,0.00001682,0.00004909,-0.0
 0044816,0.00004026,-0.00056693,0.00003245,-0.00005400,0.00008173,0.000
 27520,0.00001621,-0.00000836,-0.00028241,0.00002854,-0.00053166,-0.000
 00474,0.00000066,-0.00001076,0.00373458,0.00097305,0.00764981,-0.00066
 141,-0.00032761,-0.00042477,0.00335697,0.00018489,0.00159446,0.0031415
 8,-0.00180974,0.00323616,0.12245808,0.05690098,-0.12002032,0.00754024,
 0.00600550,-0.00319288,-0.00000008,0.00000119,0.00000034,0.00000007,0.
 00000101,0.00000041,-0.00000015,-0.00000090,0.00000087,-0.00000100,-0.
 00000020,0.00000161,0.00000122,-0.00000052,-0.00000028,0.00000136,0.00
 000049,-0.00000055,0.00000078,0.00000074,0.00000023,0.00000180,0.00000
 145,-0.00000166,0.00000253,-0.00000079,0.00000121,-0.00000129,0.000002
 56,0.00000283,-0.00000621,0.00000519,-0.00000200,0.00010101,0.00003007
 ,0.00017339,0.00000792,-0.00000885,0.00004713,-0.00000528,0.00000227,0
 .00000572,-0.00286365,-0.00020604,-0.00360904,0.00042061,0.00028285,-0
 .00021982,-0.13551859,-0.06174351,0.11716320,0.00000827,-0.00000852,-0
 .00000457,0.00000889,0.00000803,-0.00000593,-0.00000462,0.00000238,0.0
 0000245,-0.00001368,0.00000232,0.00000816,-0.00000475,-0.00000300,0.00
 000261,-0.00001476,-0.00000103,0.00000851,0.00000056,0.00000490,-0.000
 00134,0.00000016,-0.00000513,0.00000003,0.00001774,-0.00000898,-0.0000
 0927,0.00002094,0.00000544,-0.00001420,-0.00001914,-0.00000337,0.00001
 205,-0.00000717,-0.00003785,0.00000638,0.00001138,0.00000844,-0.000002
 70,-0.00001693,-0.00001791,0.00001388,-0.00000501,-0.00000430,0.000005
 11,0.00004019,-0.00006140,0.00002365,0.00002032,0.00003251,-0.00001592
 ,-0.00000569,0.00000916,-0.00000786,-0.00009000,0.00001380,0.00004461,
 0.00006372,0.00009158,-0.00001019,0.00011129,-0.00006731,-0.00011345,-
 0.00026216,0.00000806,0.00022328,-0.00050414,-0.00042224,-0.00015422,0
 .00011985,0.00031066,-0.00054160,0.00061822,-0.00081436,-0.00021855,-0
 .00004880,0.00000906,0.00002731,-0.00101314,-0.00037269,0.00011848,-0.
 00100963,-0.00057627,0.00707099,-0.00157507,0.00270026,0.00397872,0.00
 224955,-0.02584167,0.00306713,0.00582349,0.02201452,-0.00423627,-0.055
 83119,-0.02362761,0.01385229,0.00000014,-0.00000035,0.00000025,0.00000
 005,-0.00000033,0.00000032,0.00000044,0.00000088,0.00000032,0.00000087
 ,0.00000035,-0.00000006,-0.00000057,0.00000022,0.00000079,-0.00000029,
 -0.00000020,0.00000049,-0.00000207,-0.00000079,-0.00000131,0.00000035,
 -0.00000081,0.00000221,-0.00000294,-0.00000011,0.00000323,0.00000148,-
 0.00000254,0.00000033,0.00000240,-0.00001030,-0.00000015,0.00001883,-0
 .00006916,0.00002884,0.00006241,0.00004166,0.00012712,0.00000602,-0.00
 000519,-0.00000641,0.00012003,0.00110085,-0.00011683,-0.00097353,0.000
 04163,-0.00283236,-0.00007743,-0.00061174,-0.00134288,0.05215514,0.000
 00006,-0.00000527,0.00000040,0.00000062,0.00000422,-0.00000070,0.00000
 100,0.00000815,-0.00000136,-0.00000396,0.00000889,0.00000172,0.0000011
 8,-0.00000929,-0.00000005,-0.00000509,-0.00000996,0.00000395,-0.000005
 62,-0.00000030,0.00000352,-0.00000552,0.00000086,0.00000340,0.00000186
 ,-0.00000906,-0.00000025,0.00000679,0.00000771,-0.00000502,-0.00000296
 ,-0.00000585,0.00000233,-0.00000822,-0.00000076,0.00000511,-0.00000762
 ,0.00000005,0.00000554,0.00000867,0.00001136,-0.00000625,0.00000171,-0
 .00001635,0.00000050,-0.00003738,-0.00000606,0.00003011,-0.00000703,-0
 .00001163,0.00000542,-0.00000809,0.00002397,0.00000170,0.00000162,-0.0
 0000285,-0.00000230,-0.00001921,0.00001518,0.00001598,0.00003918,-0.00
 003475,-0.00002840,0.00004436,0.00006146,-0.00002577,-0.00023902,0.000
 02082,0.00008246,-0.00006782,-0.00005751,-0.00001032,0.00017102,-0.000
 55693,-0.00004771,-0.00001098,-0.00002296,0.00000853,0.00014123,0.0006
 7181,-0.00022030,-0.00116645,0.00147942,0.00146320,0.00336788,-0.00035
 051,-0.00168575,0.00125413,-0.00742257,0.00013634,-0.00456013,-0.01395
 243,0.00425029,-0.02451148,-0.33437903,0.04064222,0.00000030,-0.000002
 07,0.00000002,0.00000007,-0.00000200,0.00000017,0.00000091,0.00000206,
 -0.00000066,0.00000257,0.00000071,-0.00000162,-0.00000220,0.00000092,0
 .00000138,-0.00000198,-0.00000075,0.00000136,-0.00000126,-0.00000215,0
 .00000062,-0.00000242,-0.00000327,0.00000213,-0.00000595,0.00000119,0.
 00000386,0.00000323,-0.00000204,-0.00000174,0.00000537,-0.00000142,-0.
 00000322,0.00001438,0.00001871,-0.00000608,-0.00001167,0.00001512,0.00
 002874,0.00000975,-0.00000216,-0.00000641,-0.00020024,-0.00082084,0.00
 020343,-0.00052405,0.00083098,-0.00019442,0.00017001,0.00071908,-0.000
 36024,0.02616845,0.35378812,-0.00000530,0.00000585,0.00000281,-0.00000
 531,-0.00000541,0.00000445,0.00000256,-0.00000224,-0.00000189,0.000008
 69,-0.00000227,-0.00000586,0.00000226,0.00000260,-0.00000270,0.0000088
 6,0.00000136,-0.00000725,-0.00000046,-0.00000316,-0.00000035,0.0000000
 6,0.00000315,-0.00000078,-0.00001018,0.00000663,0.00000787,-0.00001432
 ,-0.00000416,0.00000877,0.00001202,0.00000259,-0.00000848,0.00000388,0
 .00002394,-0.00000664,-0.00000135,-0.00000467,0.00000950,0.00001164,0.
 00001064,-0.00000577,0.00000460,0.00000432,-0.00000083,0.00002163,0.00
 004538,0.00005168,-0.00001258,-0.00001971,0.00000925,-0.00000640,-0.00
 000927,-0.00001199,0.00004564,-0.00001005,-0.00004614,-0.00000084,-0.0
 0005444,0.00006497,-0.00012244,0.00003929,-0.00000164,0.00022022,-0.00
 000270,-0.00004953,-0.00016966,0.00019891,-0.00071174,-0.00050969,-0.0
 0025089,-0.00034596,-0.00030165,0.00057860,0.00030924,0.00002900,-0.00
 000421,-0.00002271,0.00007515,0.00010634,-0.00093292,0.00712076,0.0010
 8812,0.00542144,0.00392242,-0.00126142,0.00265643,0.00078215,0.0173580
 7,0.00168566,-0.00199528,-0.01264020,0.00441331,0.01392686,0.04008043,
 -0.04940319,0.00000020,0.00000044,0.00000033,0.00000029,0.00000042,0.0
 0000029,0.00000032,-0.00000065,0.00000092,-0.00000025,-0.00000021,0.00
 000099,0.00000099,-0.00000016,0.00000009,0.00000064,0.00000023,0.00000
 003,-0.00000127,0.00000033,-0.00000345,0.00000234,0.00000111,0.0000021
 3,0.00000372,0.00000015,-0.00000025,-0.00000015,0.00000193,0.00000160,
 -0.00000147,0.00000673,0.00000117,0.00002179,0.00004702,0.00003721,0.0
 0013162,-0.00000516,0.00018472,-0.00000767,0.00000308,-0.00000014,-0.0
 0000711,-0.00062353,0.00013938,-0.00278465,-0.00055395,-0.00360769,-0.
 00140881,0.00013663,-0.00138751,-0.01899348,-0.04429581,0.04155115\\0.
 00000042,-0.00000043,-0.00000022,0.00000049,0.,-0.00000032,-0.00000060
 ,0.00000007,0.00000036,-0.00000058,-0.00000023,0.00000035,-0.00000063,
 0.00000009,0.00000039,-0.00000064,0.00000011,0.00000037,0.00000027,0.0
 0000051,-0.00000019,0.00000027,-0.00000064,-0.00000014,0.00000068,0.00
 000043,-0.00000039,0.00000072,-0.00000021,-0.00000046,-0.00000020,-0.0
 0000009,0.00000012,-0.00000032,-0.00000068,0.00000027,0.00000073,0.000
 00061,-0.00000052,-0.00000034,-0.00000071,0.00000019,-0.00000020,0.,0.
 00000011,0.00000067,-0.00000015,-0.00000037,0.00000028,0.00000039,-0.0
 0000023,0.00000013,0.00000017,-0.00000007,-0.00000086,-0.00000026,0.00
 000056,0.00000018,0.00000008,-0.00000011,0.00000068,-0.00000018,-0.000
 00039,-0.00000063,-0.00000030,0.00000040,-0.00000035,-0.00000067,0.000
 00027,0.00000047,0.00000028,-0.00000031,0.00000029,0.00000053,-0.00000
 023,-0.00000046,-0.00000002,0.00000025,0.00000006,-0.00000057,0.000000
 01,-0.00000026,-0.00000037,0.00000019,0.00000030,0.00000050,-0.0000002
 2,0.00000030,0.00000054,-0.00000024,0.00000022,-0.00000058,-0.00000007
 ,-0.00000044,0.00000008,0.00000026,0.00000016,0.00000005,-0.00000007,0
 .00000003,0.00000013,-0.00000002,0.00000013,0.00000008,-0.00000012,-0.
 00000007,0.00000028,-0.00000014,-0.00000008,-0.00000014,0.00000005,-0.
 00000006,0.00000018,0.00000004,-0.00000012,0.00000012,0.00000014,-0.00
 000006,0.00000012,0.00000004,-0.00000017,0.00000005,0.00000027,-0.0000
 0005,0.00000014,0.,0.,0.00000021,-0.00000005,-0.00000010,0.00000007,0.
 00000005,-0.00000018,0.00000019,0.00000014,0.00000014,0.00000025,-0.00
 000009,-0.00000013,-0.00000010,0.00000007,-0.00000014,-0.00000006,0.00
 000011,-0.00000008,0.00000017,0.00000003,0.00000014,-0.00000002,-0.000
 00007\\\@


 READER, WHETHER YOU BE DILETTANTE OR PROFESSOR ... SHOW YOURSELF TO BE
 MORE HUMAN THAN CRITICAL, AND THEN YOUR PLEASURE WILL INCREASE.
                                           -- DOMENICO SCARLATTI (1738)
 Job cpu time:       5 days 15 hours 50 minutes 58.0 seconds.
 File lengths (MBytes):  RWF=   4673 Int=      0 D2E=      0 Chk=     87 Scr=      1
 Normal termination of Gaussian 09 at Sun Jul 28 04:46:08 2019.
