 Entering Gaussian System, Link 0=g09
 Initial command:
 /home/minenky/programs//g09/l1.exe "/local/scratch/minenky/m1_00_106-99-00_C4H6_wB97XD/Gau-116886.inp" -scrdir="/local/scratch/minenky/m1_00_106-99-00_C4H6_wB97XD/"
 Entering Link 1 = /home/minenky/programs//g09/l1.exe PID=    116887.
  
 Copyright (c) 1988,1990,1992,1993,1995,1998,2003,2009,2013,
            Gaussian, Inc.  All Rights Reserved.
  
 This is part of the Gaussian(R) 09 program.  It is based on
 the Gaussian(R) 03 system (copyright 2003, Gaussian, Inc.),
 the Gaussian(R) 98 system (copyright 1998, Gaussian, Inc.),
 the Gaussian(R) 94 system (copyright 1995, Gaussian, Inc.),
 the Gaussian 92(TM) system (copyright 1992, Gaussian, Inc.),
 the Gaussian 90(TM) system (copyright 1990, Gaussian, Inc.),
 the Gaussian 88(TM) system (copyright 1988, Gaussian, Inc.),
 the Gaussian 86(TM) system (copyright 1986, Carnegie Mellon
 University), and the Gaussian 82(TM) system (copyright 1983,
 Carnegie Mellon University). Gaussian is a federally registered
 trademark of Gaussian, Inc.
  
 This software contains proprietary and confidential information,
 including trade secrets, belonging to Gaussian, Inc.
  
 This software is provided under written license and may be
 used, copied, transmitted, or stored only in accord with that
 written license.
  
 The following legend is applicable only to US Government
 contracts under FAR:
  
                    RESTRICTED RIGHTS LEGEND
  
 Use, reproduction and disclosure by the US Government is
 subject to restrictions as set forth in subparagraphs (a)
 and (c) of the Commercial Computer Software - Restricted
 Rights clause in FAR 52.227-19.
  
 Gaussian, Inc.
 340 Quinnipiac St., Bldg. 40, Wallingford CT 06492
  
  
 ---------------------------------------------------------------
 Warning -- This program may not be used in any manner that
 competes with the business of Gaussian, Inc. or will provide
 assistance to any competitor of Gaussian, Inc.  The licensee
 of this program is prohibited from giving any competitor of
 Gaussian, Inc. access to this program.  By using this program,
 the user acknowledges that Gaussian, Inc. is engaged in the
 business of creating and licensing software in the field of
 computational chemistry and represents and warrants to the
 licensee that it is not a competitor of Gaussian, Inc. and that
 it will not use this program in any manner prohibited above.
 ---------------------------------------------------------------
  

 Cite this work as:
 Gaussian 09, Revision D.01,
 M. J. Frisch, G. W. Trucks, H. B. Schlegel, G. E. Scuseria, 
 M. A. Robb, J. R. Cheeseman, G. Scalmani, V. Barone, B. Mennucci, 
 G. A. Petersson, H. Nakatsuji, M. Caricato, X. Li, H. P. Hratchian, 
 A. F. Izmaylov, J. Bloino, G. Zheng, J. L. Sonnenberg, M. Hada, 
 M. Ehara, K. Toyota, R. Fukuda, J. Hasegawa, M. Ishida, T. Nakajima, 
 Y. Honda, O. Kitao, H. Nakai, T. Vreven, J. A. Montgomery, Jr., 
 J. E. Peralta, F. Ogliaro, M. Bearpark, J. J. Heyd, E. Brothers, 
 K. N. Kudin, V. N. Staroverov, T. Keith, R. Kobayashi, J. Normand, 
 K. Raghavachari, A. Rendell, J. C. Burant, S. S. Iyengar, J. Tomasi, 
 M. Cossi, N. Rega, J. M. Millam, M. Klene, J. E. Knox, J. B. Cross, 
 V. Bakken, C. Adamo, J. Jaramillo, R. Gomperts, R. E. Stratmann, 
 O. Yazyev, A. J. Austin, R. Cammi, C. Pomelli, J. W. Ochterski, 
 R. L. Martin, K. Morokuma, V. G. Zakrzewski, G. A. Voth, 
 P. Salvador, J. J. Dannenberg, S. Dapprich, A. D. Daniels, 
 O. Farkas, J. B. Foresman, J. V. Ortiz, J. Cioslowski, 
 and D. J. Fox, Gaussian, Inc., Wallingford CT, 2013.
 
 ******************************************
 Gaussian 09:  AM64L-G09RevD.01 24-Apr-2013
                 9-Jul-2021 
 ******************************************
 %Mem=32000MB
 %NProcShared=16
 Will use up to   16 processors via shared memory.
 %Chk=m1_00_106-99-00_C4H6_wB97XD
 ----------------------------------------------------------------------
 #P wB97XD/def2tzvp opt=(tight) freq integral(Grid=ultrafine) # SCF(Max
 Cycle=380) 5d 7f GFPrint
 ----------------------------------------------------------------------
 1/7=10,14=-1,18=20,19=15,26=4,38=1/1,3;
 2/9=110,12=2,17=6,18=5,40=1/2;
 3/5=44,7=101,8=11,11=2,16=1,24=100,25=1,30=1,71=1,74=-58,75=-5/1,2,3;
 4//1;
 5/5=2,7=380,38=5/2;
 6/7=2,8=2,9=2,10=2,28=1/1;
 7//1,2,3,16;
 1/7=10,14=-1,18=20,19=15,26=4/3(2);
 2/9=110/2;
 99//99;
 2/9=110/2;
 3/5=44,7=101,8=11,11=2,16=1,25=1,30=1,71=1,74=-58,75=-5/1,2,3;
 4/5=5,16=3,69=1/1;
 5/5=2,7=380,38=5/2;
 7//1,2,3,16;
 1/7=10,14=-1,18=20,19=15,26=4/3(-5);
 2/9=110/2;
 6/7=2,8=2,9=2,10=2,19=2,28=1/1;
 99/9=1/99;
 Leave Link    1 at Fri Jul  9 19:19:35 2021, MaxMem=  4194304000 cpu:         1.2
 (Enter /home/minenky/programs//g09/l101.exe)
 ---------------------------------------
 The PBEPBE optimization and frequencies
 ---------------------------------------
 Symbolic Z-matrix:
 Charge =  0 Multiplicity = 1
 C                     0.60015   1.7422    0. 
 C                     0.60015   0.40825   0. 
 C                    -0.60015  -0.40825   0. 
 H                     1.52021   2.31075   0. 
 H                    -0.32576   2.30571   0. 
 H                     1.54621  -0.12616   0. 
 C                    -0.60015  -1.7422    0. 
 H                    -1.52021  -2.31075   0. 
 H                     0.32576  -2.30571   0. 
 H                    -1.54621   0.12616   0. 
 
 NAtoms=     10 NQM=       10 NQMF=       0 NMMI=      0 NMMIF=      0
                NMic=       0 NMicF=      0.
                    Isotopes and Nuclear Properties:
 (Nuclear quadrupole moments (NQMom) in fm**2, nuclear magnetic moments (NMagM)
  in nuclear magnetons)

  Atom         1           2           3           4           5           6           7           8           9          10
 IAtWgt=          12          12          12           1           1           1          12           1           1           1
 AtmWgt=  12.0000000  12.0000000  12.0000000   1.0078250   1.0078250   1.0078250  12.0000000   1.0078250   1.0078250   1.0078250
 NucSpn=           0           0           0           1           1           1           0           1           1           1
 AtZEff=   0.0000000   0.0000000   0.0000000   0.0000000   0.0000000   0.0000000   0.0000000   0.0000000   0.0000000   0.0000000
 NQMom=    0.0000000   0.0000000   0.0000000   0.0000000   0.0000000   0.0000000   0.0000000   0.0000000   0.0000000   0.0000000
 NMagM=    0.0000000   0.0000000   0.0000000   2.7928460   2.7928460   2.7928460   0.0000000   2.7928460   2.7928460   2.7928460
 AtZNuc=   6.0000000   6.0000000   6.0000000   1.0000000   1.0000000   1.0000000   6.0000000   1.0000000   1.0000000   1.0000000
 Leave Link  101 at Fri Jul  9 19:19:35 2021, MaxMem=  4194304000 cpu:         2.3
 (Enter /home/minenky/programs//g09/l103.exe)

 GradGradGradGradGradGradGradGradGradGradGradGradGradGradGradGradGradGrad
 Berny optimization.
 Initialization pass.
                           ----------------------------
                           !    Initial Parameters    !
                           ! (Angstroms and Degrees)  !
 --------------------------                            --------------------------
 ! Name  Definition              Value          Derivative Info.                !
 --------------------------------------------------------------------------------
 ! R1    R(1,2)                  1.334          estimate D2E/DX2                !
 ! R2    R(1,4)                  1.0816         estimate D2E/DX2                !
 ! R3    R(1,5)                  1.0839         estimate D2E/DX2                !
 ! R4    R(2,3)                  1.4517         estimate D2E/DX2                !
 ! R5    R(2,6)                  1.0866         estimate D2E/DX2                !
 ! R6    R(3,7)                  1.334          estimate D2E/DX2                !
 ! R7    R(3,10)                 1.0866         estimate D2E/DX2                !
 ! R8    R(7,8)                  1.0816         estimate D2E/DX2                !
 ! R9    R(7,9)                  1.0839         estimate D2E/DX2                !
 ! A1    A(2,1,4)              121.7138         estimate D2E/DX2                !
 ! A2    A(2,1,5)              121.3246         estimate D2E/DX2                !
 ! A3    A(4,1,5)              116.9616         estimate D2E/DX2                !
 ! A4    A(1,2,3)              124.2255         estimate D2E/DX2                !
 ! A5    A(1,2,6)              119.4611         estimate D2E/DX2                !
 ! A6    A(3,2,6)              116.3134         estimate D2E/DX2                !
 ! A7    A(2,3,7)              124.2255         estimate D2E/DX2                !
 ! A8    A(2,3,10)             116.3134         estimate D2E/DX2                !
 ! A9    A(7,3,10)             119.4611         estimate D2E/DX2                !
 ! A10   A(3,7,8)              121.7138         estimate D2E/DX2                !
 ! A11   A(3,7,9)              121.3246         estimate D2E/DX2                !
 ! A12   A(8,7,9)              116.9616         estimate D2E/DX2                !
 ! D1    D(4,1,2,3)            180.0            estimate D2E/DX2                !
 ! D2    D(4,1,2,6)              0.0            estimate D2E/DX2                !
 ! D3    D(5,1,2,3)              0.0            estimate D2E/DX2                !
 ! D4    D(5,1,2,6)            180.0            estimate D2E/DX2                !
 ! D5    D(1,2,3,7)            180.0            estimate D2E/DX2                !
 ! D6    D(1,2,3,10)             0.0            estimate D2E/DX2                !
 ! D7    D(6,2,3,7)              0.0            estimate D2E/DX2                !
 ! D8    D(6,2,3,10)           180.0            estimate D2E/DX2                !
 ! D9    D(2,3,7,8)            180.0            estimate D2E/DX2                !
 ! D10   D(2,3,7,9)              0.0            estimate D2E/DX2                !
 ! D11   D(10,3,7,8)             0.0            estimate D2E/DX2                !
 ! D12   D(10,3,7,9)           180.0            estimate D2E/DX2                !
 --------------------------------------------------------------------------------
 Trust Radius=3.00D-01 FncErr=1.00D-07 GrdErr=1.00D-06
 Number of steps in this run=     43 maximum allowed number of steps=    100.
 GradGradGradGradGradGradGradGradGradGradGradGradGradGradGradGradGradGrad

 Leave Link  103 at Fri Jul  9 19:19:35 2021, MaxMem=  4194304000 cpu:         0.0
 (Enter /home/minenky/programs//g09/l202.exe)
                          Input orientation:                          
 ---------------------------------------------------------------------
 Center     Atomic      Atomic             Coordinates (Angstroms)
 Number     Number       Type             X           Y           Z
 ---------------------------------------------------------------------
      1          6           0        0.600146    1.742200    0.000000
      2          6           0        0.600146    0.408249    0.000000
      3          6           0       -0.600146   -0.408249    0.000000
      4          1           0        1.520210    2.310749    0.000000
      5          1           0       -0.325763    2.305706    0.000000
      6          1           0        1.546214   -0.126163    0.000000
      7          6           0       -0.600146   -1.742200    0.000000
      8          1           0       -1.520210   -2.310749    0.000000
      9          1           0        0.325763   -2.305706    0.000000
     10          1           0       -1.546214    0.126163    0.000000
 ---------------------------------------------------------------------
                    Distance matrix (angstroms):
                    1          2          3          4          5
     1  C    0.000000
     2  C    1.333951   0.000000
     3  C    2.462749   1.451678   0.000000
     4  H    1.081557   2.113297   3.448023   0.000000
     5  H    1.083903   2.111315   2.727790   1.845980   0.000000
     6  H    2.094236   1.086573   2.164817   2.437051   3.068922
     7  C    3.685342   2.462749   1.333951   4.574091   4.057195
     8  H    4.574091   3.448023   2.113297   5.531943   4.768476
     9  H    4.057195   2.727790   2.111315   4.768476   4.657210
    10  H    2.686715   2.164817   1.086573   3.765020   2.497981
                    6          7          8          9         10
     6  H    0.000000
     7  C    2.686715   0.000000
     8  H    3.765020   1.081557   0.000000
     9  H    2.497981   1.083903   1.845980   0.000000
    10  H    3.102705   2.094236   2.437051   3.068922   0.000000
 Stoichiometry    C4H6
 Framework group  C2H[SGH(C4H6)]
 Deg. of freedom     9
 Full point group                 C2H     NOp   4
 Largest Abelian subgroup         C2H     NOp   4
 Largest concise Abelian subgroup C2      NOp   2
                         Standard orientation:                         
 ---------------------------------------------------------------------
 Center     Atomic      Atomic             Coordinates (Angstroms)
 Number     Number       Type             X           Y           Z
 ---------------------------------------------------------------------
      1          6           0        0.600146    1.742200    0.000000
      2          6           0        0.600146    0.408249    0.000000
      3          6           0       -0.600146   -0.408249    0.000000
      4          1           0        1.520210    2.310749    0.000000
      5          1           0       -0.325763    2.305706    0.000000
      6          1           0        1.546214   -0.126163    0.000000
      7          6           0       -0.600146   -1.742200    0.000000
      8          1           0       -1.520210   -2.310749    0.000000
      9          1           0        0.325763   -2.305706    0.000000
     10          1           0       -1.546214    0.126163    0.000000
 ---------------------------------------------------------------------
 Rotational constants (GHZ):     42.5712985      4.4540528      4.0321827
 Leave Link  202 at Fri Jul  9 19:19:35 2021, MaxMem=  4194304000 cpu:         1.3
 (Enter /home/minenky/programs//g09/l301.exe)
 Standard basis: def2TZVP (5D, 7F)
 ======================================================================================================
                                       Pseudopotential Parameters
 ======================================================================================================
  Center     Atomic      Valence      Angular      Power
  Number     Number     Electrons     Momentum     of R      Exponent        Coefficient   SO-Coeffient
 ======================================================================================================
    1          6
                                   No pseudopotential on this center.
    2          6
                                   No pseudopotential on this center.
    3          6
                                   No pseudopotential on this center.
    4          1
                                   No pseudopotential on this center.
    5          1
                                   No pseudopotential on this center.
    6          1
                                   No pseudopotential on this center.
    7          6
                                   No pseudopotential on this center.
    8          1
                                   No pseudopotential on this center.
    9          1
                                   No pseudopotential on this center.
   10          1
                                   No pseudopotential on this center.
 ======================================================================================================
 Ernie: Thresh=  0.10000D-02 Tol=  0.10000D-05 Strict=F.
 AO basis set (Overlap normalization):
 Atom C1       Shell     1 S   6     bf    1 -     1          1.134111579747          3.292280868713          0.000000000000
      0.1357534968D+05  0.6064550360D-03
      0.2035233368D+04  0.4697908888D-02
      0.4632256236D+03  0.2433247765D-01
      0.1312001960D+03  0.9739996831D-01
      0.4285301589D+02  0.3019558425D+00
      0.1558418577D+02  0.6623360914D+00
 Atom C1       Shell     2 S   2     bf    2 -     2          1.134111579747          3.292280868713          0.000000000000
      0.6206713851D+01  0.6559530854D+00
      0.2576489653D+01  0.3758563329D+00
 Atom C1       Shell     3 S   1     bf    3 -     3          1.134111579747          3.292280868713          0.000000000000
      0.5769633942D+00  0.1000000000D+01
 Atom C1       Shell     4 S   1     bf    4 -     4          1.134111579747          3.292280868713          0.000000000000
      0.2297283136D+00  0.1000000000D+01
 Atom C1       Shell     5 S   1     bf    5 -     5          1.134111579747          3.292280868713          0.000000000000
      0.9516444003D-01  0.1000000000D+01
 Atom C1       Shell     6 P   4     bf    6 -     8          1.134111579747          3.292280868713          0.000000000000
      0.3469723224D+02  0.1132722000D-01
      0.7958262283D+01  0.7616965920D-01
      0.2378082688D+01  0.3019225220D+00
      0.8143320818D+00  0.7278502735D+00
 Atom C1       Shell     7 P   1     bf    9 -    11          1.134111579747          3.292280868713          0.000000000000
      0.2888754725D+00  0.1000000000D+01
 Atom C1       Shell     8 P   1     bf   12 -    14          1.134111579747          3.292280868713          0.000000000000
      0.1005682367D+00  0.1000000000D+01
 Atom C1       Shell     9 D   1     bf   15 -    19          1.134111579747          3.292280868713          0.000000000000
      0.1097000000D+01  0.1000000000D+01
 Atom C1       Shell    10 D   1     bf   20 -    24          1.134111579747          3.292280868713          0.000000000000
      0.3180000000D+00  0.1000000000D+01
 Atom C1       Shell    11 F   1     bf   25 -    31          1.134111579747          3.292280868713          0.000000000000
      0.7610000000D+00  0.1000000000D+01
 Atom C2       Shell    12 S   6     bf   32 -    32          1.134111579747          0.771478804024          0.000000000000
      0.1357534968D+05  0.6064550360D-03
      0.2035233368D+04  0.4697908888D-02
      0.4632256236D+03  0.2433247765D-01
      0.1312001960D+03  0.9739996831D-01
      0.4285301589D+02  0.3019558425D+00
      0.1558418577D+02  0.6623360914D+00
 Atom C2       Shell    13 S   2     bf   33 -    33          1.134111579747          0.771478804024          0.000000000000
      0.6206713851D+01  0.6559530854D+00
      0.2576489653D+01  0.3758563329D+00
 Atom C2       Shell    14 S   1     bf   34 -    34          1.134111579747          0.771478804024          0.000000000000
      0.5769633942D+00  0.1000000000D+01
 Atom C2       Shell    15 S   1     bf   35 -    35          1.134111579747          0.771478804024          0.000000000000
      0.2297283136D+00  0.1000000000D+01
 Atom C2       Shell    16 S   1     bf   36 -    36          1.134111579747          0.771478804024          0.000000000000
      0.9516444003D-01  0.1000000000D+01
 Atom C2       Shell    17 P   4     bf   37 -    39          1.134111579747          0.771478804024          0.000000000000
      0.3469723224D+02  0.1132722000D-01
      0.7958262283D+01  0.7616965920D-01
      0.2378082688D+01  0.3019225220D+00
      0.8143320818D+00  0.7278502735D+00
 Atom C2       Shell    18 P   1     bf   40 -    42          1.134111579747          0.771478804024          0.000000000000
      0.2888754725D+00  0.1000000000D+01
 Atom C2       Shell    19 P   1     bf   43 -    45          1.134111579747          0.771478804024          0.000000000000
      0.1005682367D+00  0.1000000000D+01
 Atom C2       Shell    20 D   1     bf   46 -    50          1.134111579747          0.771478804024          0.000000000000
      0.1097000000D+01  0.1000000000D+01
 Atom C2       Shell    21 D   1     bf   51 -    55          1.134111579747          0.771478804024          0.000000000000
      0.3180000000D+00  0.1000000000D+01
 Atom C2       Shell    22 F   1     bf   56 -    62          1.134111579747          0.771478804024          0.000000000000
      0.7610000000D+00  0.1000000000D+01
 Atom C3       Shell    23 S   6     bf   63 -    63         -1.134111579747         -0.771478804024          0.000000000000
      0.1357534968D+05  0.6064550360D-03
      0.2035233368D+04  0.4697908888D-02
      0.4632256236D+03  0.2433247765D-01
      0.1312001960D+03  0.9739996831D-01
      0.4285301589D+02  0.3019558425D+00
      0.1558418577D+02  0.6623360914D+00
 Atom C3       Shell    24 S   2     bf   64 -    64         -1.134111579747         -0.771478804024          0.000000000000
      0.6206713851D+01  0.6559530854D+00
      0.2576489653D+01  0.3758563329D+00
 Atom C3       Shell    25 S   1     bf   65 -    65         -1.134111579747         -0.771478804024          0.000000000000
      0.5769633942D+00  0.1000000000D+01
 Atom C3       Shell    26 S   1     bf   66 -    66         -1.134111579747         -0.771478804024          0.000000000000
      0.2297283136D+00  0.1000000000D+01
 Atom C3       Shell    27 S   1     bf   67 -    67         -1.134111579747         -0.771478804024          0.000000000000
      0.9516444003D-01  0.1000000000D+01
 Atom C3       Shell    28 P   4     bf   68 -    70         -1.134111579747         -0.771478804024          0.000000000000
      0.3469723224D+02  0.1132722000D-01
      0.7958262283D+01  0.7616965920D-01
      0.2378082688D+01  0.3019225220D+00
      0.8143320818D+00  0.7278502735D+00
 Atom C3       Shell    29 P   1     bf   71 -    73         -1.134111579747         -0.771478804024          0.000000000000
      0.2888754725D+00  0.1000000000D+01
 Atom C3       Shell    30 P   1     bf   74 -    76         -1.134111579747         -0.771478804024          0.000000000000
      0.1005682367D+00  0.1000000000D+01
 Atom C3       Shell    31 D   1     bf   77 -    81         -1.134111579747         -0.771478804024          0.000000000000
      0.1097000000D+01  0.1000000000D+01
 Atom C3       Shell    32 D   1     bf   82 -    86         -1.134111579747         -0.771478804024          0.000000000000
      0.3180000000D+00  0.1000000000D+01
 Atom C3       Shell    33 F   1     bf   87 -    93         -1.134111579747         -0.771478804024          0.000000000000
      0.7610000000D+00  0.1000000000D+01
 Atom H4       Shell    34 S   3     bf   94 -    94          2.872780564474          4.366682771839          0.000000000000
      0.3406134100D+02  0.2543930721D-01
      0.5123574600D+01  0.1900859489D+00
      0.1164662600D+01  0.8524411301D+00
 Atom H4       Shell    35 S   1     bf   95 -    95          2.872780564474          4.366682771839          0.000000000000
      0.3272304100D+00  0.1000000000D+01
 Atom H4       Shell    36 S   1     bf   96 -    96          2.872780564474          4.366682771839          0.000000000000
      0.1030724100D+00  0.1000000000D+01
 Atom H4       Shell    37 P   1     bf   97 -    99          2.872780564474          4.366682771839          0.000000000000
      0.8000000000D+00  0.1000000000D+01
 Atom H5       Shell    38 S   3     bf  100 -   100         -0.615602854227          4.357152882951          0.000000000000
      0.3406134100D+02  0.2543930721D-01
      0.5123574600D+01  0.1900859489D+00
      0.1164662600D+01  0.8524411301D+00
 Atom H5       Shell    39 S   1     bf  101 -   101         -0.615602854227          4.357152882951          0.000000000000
      0.3272304100D+00  0.1000000000D+01
 Atom H5       Shell    40 S   1     bf  102 -   102         -0.615602854227          4.357152882951          0.000000000000
      0.1030724100D+00  0.1000000000D+01
 Atom H5       Shell    41 P   1     bf  103 -   105         -0.615602854227          4.357152882951          0.000000000000
      0.8000000000D+00  0.1000000000D+01
 Atom H6       Shell    42 S   3     bf  106 -   106          2.921921002834         -0.238413518103          0.000000000000
      0.3406134100D+02  0.2543930721D-01
      0.5123574600D+01  0.1900859489D+00
      0.1164662600D+01  0.8524411301D+00
 Atom H6       Shell    43 S   1     bf  107 -   107          2.921921002834         -0.238413518103          0.000000000000
      0.3272304100D+00  0.1000000000D+01
 Atom H6       Shell    44 S   1     bf  108 -   108          2.921921002834         -0.238413518103          0.000000000000
      0.1030724100D+00  0.1000000000D+01
 Atom H6       Shell    45 P   1     bf  109 -   111          2.921921002834         -0.238413518103          0.000000000000
      0.8000000000D+00  0.1000000000D+01
 Atom C7       Shell    46 S   6     bf  112 -   112         -1.134111579747         -3.292280868713          0.000000000000
      0.1357534968D+05  0.6064550360D-03
      0.2035233368D+04  0.4697908888D-02
      0.4632256236D+03  0.2433247765D-01
      0.1312001960D+03  0.9739996831D-01
      0.4285301589D+02  0.3019558425D+00
      0.1558418577D+02  0.6623360914D+00
 Atom C7       Shell    47 S   2     bf  113 -   113         -1.134111579747         -3.292280868713          0.000000000000
      0.6206713851D+01  0.6559530854D+00
      0.2576489653D+01  0.3758563329D+00
 Atom C7       Shell    48 S   1     bf  114 -   114         -1.134111579747         -3.292280868713          0.000000000000
      0.5769633942D+00  0.1000000000D+01
 Atom C7       Shell    49 S   1     bf  115 -   115         -1.134111579747         -3.292280868713          0.000000000000
      0.2297283136D+00  0.1000000000D+01
 Atom C7       Shell    50 S   1     bf  116 -   116         -1.134111579747         -3.292280868713          0.000000000000
      0.9516444003D-01  0.1000000000D+01
 Atom C7       Shell    51 P   4     bf  117 -   119         -1.134111579747         -3.292280868713          0.000000000000
      0.3469723224D+02  0.1132722000D-01
      0.7958262283D+01  0.7616965920D-01
      0.2378082688D+01  0.3019225220D+00
      0.8143320818D+00  0.7278502735D+00
 Atom C7       Shell    52 P   1     bf  120 -   122         -1.134111579747         -3.292280868713          0.000000000000
      0.2888754725D+00  0.1000000000D+01
 Atom C7       Shell    53 P   1     bf  123 -   125         -1.134111579747         -3.292280868713          0.000000000000
      0.1005682367D+00  0.1000000000D+01
 Atom C7       Shell    54 D   1     bf  126 -   130         -1.134111579747         -3.292280868713          0.000000000000
      0.1097000000D+01  0.1000000000D+01
 Atom C7       Shell    55 D   1     bf  131 -   135         -1.134111579747         -3.292280868713          0.000000000000
      0.3180000000D+00  0.1000000000D+01
 Atom C7       Shell    56 F   1     bf  136 -   142         -1.134111579747         -3.292280868713          0.000000000000
      0.7610000000D+00  0.1000000000D+01
 Atom H8       Shell    57 S   3     bf  143 -   143         -2.872780564474         -4.366682771839          0.000000000000
      0.3406134100D+02  0.2543930721D-01
      0.5123574600D+01  0.1900859489D+00
      0.1164662600D+01  0.8524411301D+00
 Atom H8       Shell    58 S   1     bf  144 -   144         -2.872780564474         -4.366682771839          0.000000000000
      0.3272304100D+00  0.1000000000D+01
 Atom H8       Shell    59 S   1     bf  145 -   145         -2.872780564474         -4.366682771839          0.000000000000
      0.1030724100D+00  0.1000000000D+01
 Atom H8       Shell    60 P   1     bf  146 -   148         -2.872780564474         -4.366682771839          0.000000000000
      0.8000000000D+00  0.1000000000D+01
 Atom H9       Shell    61 S   3     bf  149 -   149          0.615602854227         -4.357152882951          0.000000000000
      0.3406134100D+02  0.2543930721D-01
      0.5123574600D+01  0.1900859489D+00
      0.1164662600D+01  0.8524411301D+00
 Atom H9       Shell    62 S   1     bf  150 -   150          0.615602854227         -4.357152882951          0.000000000000
      0.3272304100D+00  0.1000000000D+01
 Atom H9       Shell    63 S   1     bf  151 -   151          0.615602854227         -4.357152882951          0.000000000000
      0.1030724100D+00  0.1000000000D+01
 Atom H9       Shell    64 P   1     bf  152 -   154          0.615602854227         -4.357152882951          0.000000000000
      0.8000000000D+00  0.1000000000D+01
 Atom H10      Shell    65 S   3     bf  155 -   155         -2.921921002834          0.238413518103          0.000000000000
      0.3406134100D+02  0.2543930721D-01
      0.5123574600D+01  0.1900859489D+00
      0.1164662600D+01  0.8524411301D+00
 Atom H10      Shell    66 S   1     bf  156 -   156         -2.921921002834          0.238413518103          0.000000000000
      0.3272304100D+00  0.1000000000D+01
 Atom H10      Shell    67 S   1     bf  157 -   157         -2.921921002834          0.238413518103          0.000000000000
      0.1030724100D+00  0.1000000000D+01
 Atom H10      Shell    68 P   1     bf  158 -   160         -2.921921002834          0.238413518103          0.000000000000
      0.8000000000D+00  0.1000000000D+01
 There are    65 symmetry adapted cartesian basis functions of AG  symmetry.
 There are    25 symmetry adapted cartesian basis functions of BG  symmetry.
 There are    25 symmetry adapted cartesian basis functions of AU  symmetry.
 There are    65 symmetry adapted cartesian basis functions of BU  symmetry.
 There are    57 symmetry adapted basis functions of AG  symmetry.
 There are    23 symmetry adapted basis functions of BG  symmetry.
 There are    23 symmetry adapted basis functions of AU  symmetry.
 There are    57 symmetry adapted basis functions of BU  symmetry.
   160 basis functions,   252 primitive gaussians,   180 cartesian basis functions
    15 alpha electrons       15 beta electrons
       nuclear repulsion energy       104.0230736253 Hartrees.
 IExCor= 4639 DFT=T Ex+Corr=wB97XD ExCW=0 ScaHFX=  1.000000
 ScaDFX=  1.000000  1.000000  1.000000  1.000000 ScalE2=  1.000000  1.000000
 IRadAn=      5 IRanWt=     -1 IRanGd=            0 ICorTp=0 IEmpDi=121
  HFx wShort=  0.000000 wLong=  0.200000 cFull=  0.222036 cShort=  0.000000 cLong=  0.777964
  DFx wShort=  0.000000 wLong=  0.200000 cFull=  0.000000 cShort=  0.000000 cLong=  1.000000
 NAtoms=   10 NActive=   10 NUniq=    5 SFac= 4.00D+00 NAtFMM=   60 NAOKFM=F Big=F
 Integral buffers will be    131072 words long.
 Raffenetti 2 integral format.
 Two-electron integral symmetry is turned on.
 R6Disp:  Grimme-D2 Dispersion energy=       -0.0028454303 Hartrees.
 Nuclear repulsion after empirical dispersion term =      104.0202281950 Hartrees.
 Leave Link  301 at Fri Jul  9 19:19:36 2021, MaxMem=  4194304000 cpu:         0.2
 (Enter /home/minenky/programs//g09/l302.exe)
 NPDir=0 NMtPBC=     1 NCelOv=     1 NCel=       1 NClECP=     1 NCelD=      1
         NCelK=      1 NCelE2=     1 NClLst=     1 CellRange=     0.0.
 One-electron integrals computed using PRISM.
 One-electron integral symmetry used in STVInt
   4 Symmetry operations used in ECPInt.
 ECPInt:  NShTT=    2346 NPrTT=    6892 LenC2=    2333 LenP2D=    5893.
 LDataN:  DoStor=T MaxTD1= 6 Len=  172
 NBasis=   160 RedAO= T EigKep=  1.68D-04  NBF=    57    23    23    57
 NBsUse=   160 1.00D-06 EigRej= -1.00D+00 NBFU=    57    23    23    57
 Precomputing XC quadrature grid using
 IXCGrd= 4 IRadAn=           5 IRanWt=          -1 IRanGd=           0 AccXCQ= 0.00D+00.
 Generated NRdTot=       0 NPtTot=           0 NUsed=           0 NTot=          32
 NSgBfM=   180   180   180   180   180 MxSgAt=    10 MxSgA2=    10.
 Leave Link  302 at Fri Jul  9 19:19:41 2021, MaxMem=  4194304000 cpu:        60.6
 (Enter /home/minenky/programs//g09/l303.exe)
 DipDrv:  MaxL=1.
 Leave Link  303 at Fri Jul  9 19:19:41 2021, MaxMem=  4194304000 cpu:         1.2
 (Enter /home/minenky/programs//g09/l401.exe)
 ExpMin= 9.52D-02 ExpMax= 1.36D+04 ExpMxC= 4.63D+02 IAcc=3 IRadAn=         5 AccDes= 0.00D+00
 Harris functional with IExCor= 4639 and IRadAn=       5 diagonalized for initial guess.
 HarFok:  IExCor= 4639 AccDes= 0.00D+00 IRadAn=         5 IDoV= 1 UseB2=F ITyADJ=14
 ICtDFT=  3500011 ScaDFX=  1.000000  1.000000  1.000000  1.000000
 FoFCou: FMM=F IPFlag=           0 FMFlag=      100000 FMFlg1=           0
         NFxFlg=           0 DoJE=T BraDBF=F KetDBF=T FulRan=T
         wScrn=  0.000000 ICntrl=     500 IOpCl=  0 I1Cent=   200000004 NGrid=           0
         NMat0=    1 NMatS0=      1 NMatT0=    0 NMatD0=    1 NMtDS0=    0 NMtDT0=    0
 Petite list used in FoFCou.
 Harris En= -148.506855631912    
 JPrj=0 DoOrth=F DoCkMO=F.
 Initial guess orbital symmetries:
       Occupied  (BU) (AG) (AG) (BU) (AG) (BU) (AG) (BU) (BU) (AG)
                 (AG) (BU) (AG) (AU) (BG)
       Virtual   (AU) (BG) (BU) (AG) (BU) (AG) (AG) (BU) (BU) (AG)
                 (AU) (AG) (BU) (AG) (BG) (BU) (BG) (BU) (AU) (AG)
                 (BU) (BU) (AG) (AG) (BU) (BU) (AG) (BU) (AU) (BU)
                 (AG) (BG) (AG) (BU) (AG) (BG) (AU) (AU) (AG) (BU)
                 (AG) (AG) (BU) (BU) (BG) (AG) (BU) (AU) (BG) (BU)
                 (AG) (AG) (BU) (AU) (AG) (BG) (BU) (BU) (AG) (AU)
                 (BU) (AG) (BG) (BU) (AG) (BG) (BU) (AU) (AG) (BG)
                 (AU) (BU) (AG) (BU) (AG) (BG) (AU) (AG) (BU) (BU)
                 (AG) (BG) (AG) (BU) (AG) (BU) (AU) (BU) (AG) (AU)
                 (AG) (BU) (AG) (BG) (AU) (BU) (AG) (AG) (BU) (BG)
                 (AU) (AG) (BU) (BG) (AU) (BU) (BG) (AU) (BU) (BG)
                 (AG) (AU) (BG) (BU) (AG) (BU) (AG) (BU) (BG) (AU)
                 (AG) (BU) (AG) (AU) (AG) (BU) (AG) (BU) (AG) (BG)
                 (BG) (AU) (BU) (AG) (BU) (BU) (AG) (BU) (AG) (BU)
                 (AG) (AG) (BU) (AG) (BU)
 The electronic state of the initial guess is 1-AG.
 Leave Link  401 at Fri Jul  9 19:19:44 2021, MaxMem=  4194304000 cpu:        28.3
 (Enter /home/minenky/programs//g09/l502.exe)
 Closed shell SCF:
 Using DIIS extrapolation, IDIIS=  1040.
 Integral symmetry usage will be decided dynamically.
 Keep R1 ints in memory in symmetry-blocked form, NReq=209105946.
 IVT=      249610 IEndB=      249610 NGot=  4194304000 MDV=  4172565543
 LenX=  4172565543 LenY=  4172532702
 Requested convergence on RMS density matrix=1.00D-08 within 380 cycles.
 Requested convergence on MAX density matrix=1.00D-06.
 Requested convergence on             energy=1.00D-06.
 No special actions if energy rises.
 FoFCou: FMM=F IPFlag=           0 FMFlag=           0 FMFlg1=           0
         NFxFlg=           0 DoJE=F BraDBF=F KetDBF=F FulRan=T
         wScrn=  0.000000 ICntrl=     600 IOpCl=  0 I1Cent=           0 NGrid=           0
         NMat0=    1 NMatS0=  12880 NMatT0=    0 NMatD0=    1 NMtDS0=    0 NMtDT0=    0
 Petite list used in FoFCou.
 Integral accuracy reduced to 1.0D-05 until final iterations.

 Cycle   1  Pass 0  IDiag  1:
 E= -155.947098282468    
 DIIS: error= 4.50D-02 at cycle   1 NSaved=   1.
 NSaved= 1 IEnMin= 1 EnMin= -155.947098282468     IErMin= 1 ErrMin= 4.50D-02
 ErrMax= 4.50D-02  0.00D+00 EMaxC= 1.00D-01 BMatC= 3.30D-01 BMatP= 3.30D-01
 IDIUse=3 WtCom= 5.50D-01 WtEn= 4.50D-01
 Coeff-Com:  0.100D+01
 Coeff-En:   0.100D+01
 Coeff:      0.100D+01
 Gap=     0.342 Goal=   None    Shift=    0.000
 GapD=    0.342 DampG=1.000 DampE=0.500 DampFc=0.5000 IDamp=-1.
 Damping current iteration by 5.00D-01
 RMSDP=1.25D-03 MaxDP=2.52D-02              OVMax= 4.68D-02

 Cycle   2  Pass 0  IDiag  1:
 E= -155.970251345280     Delta-E=       -0.023153062812 Rises=F Damp=T
 DIIS: error= 2.14D-02 at cycle   2 NSaved=   2.
 NSaved= 2 IEnMin= 2 EnMin= -155.970251345280     IErMin= 2 ErrMin= 2.14D-02
 ErrMax= 2.14D-02  0.00D+00 EMaxC= 1.00D-01 BMatC= 7.46D-02 BMatP= 3.30D-01
 IDIUse=3 WtCom= 7.86D-01 WtEn= 2.14D-01
 Coeff-Com: -0.868D+00 0.187D+01
 Coeff-En:   0.000D+00 0.100D+01
 Coeff:     -0.682D+00 0.168D+01
 Gap=     0.349 Goal=   None    Shift=    0.000
 RMSDP=7.64D-04 MaxDP=1.74D-02 DE=-2.32D-02 OVMax= 2.28D-02

 Cycle   3  Pass 0  IDiag  1:
 E= -155.991112370206     Delta-E=       -0.020861024925 Rises=F Damp=F
 DIIS: error= 3.17D-03 at cycle   3 NSaved=   3.
 NSaved= 3 IEnMin= 3 EnMin= -155.991112370206     IErMin= 3 ErrMin= 3.17D-03
 ErrMax= 3.17D-03  0.00D+00 EMaxC= 1.00D-01 BMatC= 1.02D-03 BMatP= 7.46D-02
 IDIUse=3 WtCom= 9.68D-01 WtEn= 3.17D-02
 Coeff-Com: -0.281D+00 0.605D+00 0.676D+00
 Coeff-En:   0.000D+00 0.000D+00 0.100D+01
 Coeff:     -0.272D+00 0.586D+00 0.687D+00
 Gap=     0.348 Goal=   None    Shift=    0.000
 RMSDP=1.23D-04 MaxDP=3.44D-03 DE=-2.09D-02 OVMax= 7.79D-03

 Cycle   4  Pass 0  IDiag  1:
 E= -155.992019312869     Delta-E=       -0.000906942664 Rises=F Damp=F
 DIIS: error= 5.78D-04 at cycle   4 NSaved=   4.
 NSaved= 4 IEnMin= 4 EnMin= -155.992019312869     IErMin= 4 ErrMin= 5.78D-04
 ErrMax= 5.78D-04  0.00D+00 EMaxC= 1.00D-01 BMatC= 1.22D-05 BMatP= 1.02D-03
 IDIUse=3 WtCom= 9.94D-01 WtEn= 5.78D-03
 Coeff-Com: -0.230D-01 0.495D-01 0.971D-01 0.876D+00
 Coeff-En:   0.000D+00 0.000D+00 0.000D+00 0.100D+01
 Coeff:     -0.228D-01 0.492D-01 0.966D-01 0.877D+00
 Gap=     0.348 Goal=   None    Shift=    0.000
 RMSDP=3.28D-05 MaxDP=5.44D-04 DE=-9.07D-04 OVMax= 2.97D-03

 Cycle   5  Pass 0  IDiag  1:
 E= -155.992030612588     Delta-E=       -0.000011299718 Rises=F Damp=F
 DIIS: error= 3.66D-04 at cycle   5 NSaved=   5.
 NSaved= 5 IEnMin= 5 EnMin= -155.992030612588     IErMin= 5 ErrMin= 3.66D-04
 ErrMax= 3.66D-04  0.00D+00 EMaxC= 1.00D-01 BMatC= 6.41D-06 BMatP= 1.22D-05
 IDIUse=3 WtCom= 9.96D-01 WtEn= 3.66D-03
 Coeff-Com:  0.307D-01-0.663D-01-0.552D-01 0.456D+00 0.635D+00
 Coeff-En:   0.000D+00 0.000D+00 0.000D+00 0.710D-01 0.929D+00
 Coeff:      0.305D-01-0.660D-01-0.550D-01 0.454D+00 0.636D+00
 Gap=     0.348 Goal=   None    Shift=    0.000
 RMSDP=1.66D-05 MaxDP=2.73D-04 DE=-1.13D-05 OVMax= 1.43D-03

 Cycle   6  Pass 0  IDiag  1:
 E= -155.992037884695     Delta-E=       -0.000007272107 Rises=F Damp=F
 DIIS: error= 6.85D-05 at cycle   6 NSaved=   6.
 NSaved= 6 IEnMin= 6 EnMin= -155.992037884695     IErMin= 6 ErrMin= 6.85D-05
 ErrMax= 6.85D-05  0.00D+00 EMaxC= 1.00D-01 BMatC= 6.72D-08 BMatP= 6.41D-06
 IDIUse=1 WtCom= 1.00D+00 WtEn= 0.00D+00
 Coeff-Com:  0.667D-03-0.138D-02-0.546D-02-0.663D-01-0.103D-01 0.108D+01
 Coeff:      0.667D-03-0.138D-02-0.546D-02-0.663D-01-0.103D-01 0.108D+01
 Gap=     0.348 Goal=   None    Shift=    0.000
 RMSDP=4.51D-06 MaxDP=7.78D-05 DE=-7.27D-06 OVMax= 3.65D-04

 Initial convergence to 1.0D-05 achieved.  Increase integral accuracy.
 Cycle   7  Pass 1  IDiag  1:
 E= -155.992073398286     Delta-E=       -0.000035513592 Rises=F Damp=F
 DIIS: error= 5.33D-05 at cycle   1 NSaved=   1.
 NSaved= 1 IEnMin= 1 EnMin= -155.992073398286     IErMin= 1 ErrMin= 5.33D-05
 ErrMax= 5.33D-05  0.00D+00 EMaxC= 1.00D-01 BMatC= 3.09D-07 BMatP= 3.09D-07
 IDIUse=1 WtCom= 1.00D+00 WtEn= 0.00D+00
 Coeff-Com:  0.100D+01
 Coeff:      0.100D+01
 Gap=     0.348 Goal=   None    Shift=    0.000
 RMSDP=4.51D-06 MaxDP=7.78D-05 DE=-3.55D-05 OVMax= 7.93D-05

 Cycle   8  Pass 1  IDiag  1:
 E= -155.992073591101     Delta-E=       -0.000000192815 Rises=F Damp=F
 DIIS: error= 4.53D-06 at cycle   2 NSaved=   2.
 NSaved= 2 IEnMin= 2 EnMin= -155.992073591101     IErMin= 2 ErrMin= 4.53D-06
 ErrMax= 4.53D-06  0.00D+00 EMaxC= 1.00D-01 BMatC= 2.58D-09 BMatP= 3.09D-07
 IDIUse=1 WtCom= 1.00D+00 WtEn= 0.00D+00
 Coeff-Com: -0.722D-01 0.107D+01
 Coeff:     -0.722D-01 0.107D+01
 Gap=     0.348 Goal=   None    Shift=    0.000
 RMSDP=5.78D-07 MaxDP=1.18D-05 DE=-1.93D-07 OVMax= 2.72D-05

 Cycle   9  Pass 1  IDiag  1:
 E= -155.992073594110     Delta-E=       -0.000000003009 Rises=F Damp=F
 DIIS: error= 3.16D-06 at cycle   3 NSaved=   3.
 NSaved= 3 IEnMin= 3 EnMin= -155.992073594110     IErMin= 3 ErrMin= 3.16D-06
 ErrMax= 3.16D-06  0.00D+00 EMaxC= 1.00D-01 BMatC= 3.94D-10 BMatP= 2.58D-09
 IDIUse=1 WtCom= 1.00D+00 WtEn= 0.00D+00
 Coeff-Com: -0.255D-01 0.333D+00 0.693D+00
 Coeff:     -0.255D-01 0.333D+00 0.693D+00
 Gap=     0.348 Goal=   None    Shift=    0.000
 RMSDP=1.28D-07 MaxDP=2.74D-06 DE=-3.01D-09 OVMax= 1.39D-05

 Cycle  10  Pass 1  IDiag  1:
 E= -155.992073594502     Delta-E=       -0.000000000392 Rises=F Damp=F
 DIIS: error= 1.68D-06 at cycle   4 NSaved=   4.
 NSaved= 4 IEnMin= 4 EnMin= -155.992073594502     IErMin= 4 ErrMin= 1.68D-06
 ErrMax= 1.68D-06  0.00D+00 EMaxC= 1.00D-01 BMatC= 1.01D-10 BMatP= 3.94D-10
 IDIUse=1 WtCom= 1.00D+00 WtEn= 0.00D+00
 Coeff-Com:  0.127D-02-0.413D-01 0.310D+00 0.730D+00
 Coeff:      0.127D-02-0.413D-01 0.310D+00 0.730D+00
 Gap=     0.348 Goal=   None    Shift=    0.000
 RMSDP=6.85D-08 MaxDP=1.00D-06 DE=-3.92D-10 OVMax= 6.07D-06

 Cycle  11  Pass 1  IDiag  1:
 E= -155.992073594632     Delta-E=       -0.000000000130 Rises=F Damp=F
 DIIS: error= 2.44D-07 at cycle   5 NSaved=   5.
 NSaved= 5 IEnMin= 5 EnMin= -155.992073594632     IErMin= 5 ErrMin= 2.44D-07
 ErrMax= 2.44D-07  0.00D+00 EMaxC= 1.00D-01 BMatC= 2.62D-12 BMatP= 1.01D-10
 IDIUse=1 WtCom= 1.00D+00 WtEn= 0.00D+00
 Coeff-Com:  0.296D-02-0.394D-01-0.273D-01 0.580D-01 0.101D+01
 Coeff:      0.296D-02-0.394D-01-0.273D-01 0.580D-01 0.101D+01
 Gap=     0.348 Goal=   None    Shift=    0.000
 RMSDP=2.88D-08 MaxDP=5.36D-07 DE=-1.30D-10 OVMax= 2.52D-06

 Cycle  12  Pass 1  IDiag  1:
 E= -155.992073594640     Delta-E=       -0.000000000008 Rises=F Damp=F
 DIIS: error= 8.19D-08 at cycle   6 NSaved=   6.
 NSaved= 6 IEnMin= 6 EnMin= -155.992073594640     IErMin= 6 ErrMin= 8.19D-08
 ErrMax= 8.19D-08  0.00D+00 EMaxC= 1.00D-01 BMatC= 2.12D-13 BMatP= 2.62D-12
 IDIUse=1 WtCom= 1.00D+00 WtEn= 0.00D+00
 Coeff-Com:  0.330D-03-0.308D-02-0.202D-01-0.392D-01 0.118D+00 0.944D+00
 Coeff:      0.330D-03-0.308D-02-0.202D-01-0.392D-01 0.118D+00 0.944D+00
 Gap=     0.348 Goal=   None    Shift=    0.000
 RMSDP=6.67D-09 MaxDP=1.45D-07 DE=-7.73D-12 OVMax= 6.45D-07

 SCF Done:  E(RwB97XD) =  -155.992073595     A.U. after   12 cycles
            NFock= 12  Conv=0.67D-08     -V/T= 2.0054
 KE= 1.551603969001D+02 PE=-5.692246820260D+02 EE= 1.540519833362D+02
 Leave Link  502 at Fri Jul  9 19:20:21 2021, MaxMem=  4194304000 cpu:       545.0
 (Enter /home/minenky/programs//g09/l601.exe)
 Copying SCF densities to generalized density rwf, IOpCl= 0 IROHF=0.

 **********************************************************************

            Population analysis using the SCF density.

 **********************************************************************

 Orbital symmetries:
       Occupied  (AG) (BU) (BU) (AG) (AG) (BU) (AG) (BU) (BU) (AG)
                 (AG) (BU) (AG) (AU) (BG)
       Virtual   (AU) (BG) (BU) (AG) (BU) (AG) (AG) (BU) (AG) (BU)
                 (AU) (AG) (BU) (AG) (BG) (BU) (BG) (BU) (AU) (AG)
                 (BU) (BU) (AG) (AG) (BU) (BU) (AG) (BU) (AU) (BU)
                 (AG) (BG) (AG) (BU) (AG) (BG) (AU) (AU) (AG) (BU)
                 (AG) (AG) (BU) (BU) (BG) (AG) (BU) (AU) (BG) (BU)
                 (AG) (AG) (BU) (AU) (AG) (BU) (BG) (BU) (AG) (AU)
                 (BU) (AG) (BG) (BU) (AG) (BG) (AU) (BU) (BG) (AG)
                 (AU) (BU) (AG) (AU) (BG) (AG) (BU) (AG) (BU) (BU)
                 (AG) (BG) (AG) (BU) (AG) (BU) (AU) (BU) (AG) (AG)
                 (AU) (BU) (AG) (BG) (AU) (BU) (AG) (AG) (BU) (BG)
                 (AU) (AG) (BU) (BG) (AU) (BU) (BG) (AU) (BU) (BG)
                 (AG) (AU) (BG) (BU) (AG) (BU) (AG) (BU) (BG) (AU)
                 (AG) (BU) (AG) (AU) (AG) (BU) (AG) (BU) (AG) (BG)
                 (BG) (AU) (BU) (AG) (BU) (BU) (AG) (BU) (AG) (BU)
                 (AG) (AG) (BU) (AG) (BU)
 The electronic state is 1-AG.
 Alpha  occ. eigenvalues --  -10.29324 -10.29288 -10.28321 -10.28320  -0.91140
 Alpha  occ. eigenvalues --   -0.83638  -0.70250  -0.64802  -0.55898  -0.55448
 Alpha  occ. eigenvalues --   -0.48143  -0.47275  -0.42972  -0.41713  -0.31529
 Alpha virt. eigenvalues --    0.03294   0.12980   0.14016   0.14913   0.15543
 Alpha virt. eigenvalues --    0.19838   0.20272   0.21578   0.24934   0.25026
 Alpha virt. eigenvalues --    0.28395   0.29830   0.30789   0.32699   0.33918
 Alpha virt. eigenvalues --    0.37949   0.38737   0.39403   0.41308   0.41949
 Alpha virt. eigenvalues --    0.44941   0.50388   0.51575   0.53621   0.54230
 Alpha virt. eigenvalues --    0.54854   0.55633   0.62234   0.63817   0.64513
 Alpha virt. eigenvalues --    0.66949   0.67625   0.71187   0.74284   0.74757
 Alpha virt. eigenvalues --    0.79273   0.88557   0.91077   0.94611   0.95045
 Alpha virt. eigenvalues --    0.99366   1.04488   1.06060   1.09587   1.11167
 Alpha virt. eigenvalues --    1.18939   1.25611   1.26462   1.29882   1.30122
 Alpha virt. eigenvalues --    1.31360   1.35015   1.40677   1.50258   1.54081
 Alpha virt. eigenvalues --    1.59169   1.59294   1.62381   1.65574   1.69096
 Alpha virt. eigenvalues --    1.70235   1.71083   1.73316   1.79321   1.80562
 Alpha virt. eigenvalues --    1.86635   1.90109   1.90936   1.92088   1.92444
 Alpha virt. eigenvalues --    1.94268   2.01604   2.06952   2.26261   2.26277
 Alpha virt. eigenvalues --    2.27268   2.27279   2.37881   2.40916   2.43439
 Alpha virt. eigenvalues --    2.47084   2.59131   2.59751   2.61437   2.62733
 Alpha virt. eigenvalues --    2.63478   2.65647   2.70335   2.75182   2.77156
 Alpha virt. eigenvalues --    2.77302   2.78641   2.86079   2.89302   2.90772
 Alpha virt. eigenvalues --    3.02352   3.02926   3.04451   3.08385   3.10202
 Alpha virt. eigenvalues --    3.11405   3.11465   3.14237   3.14485   3.17882
 Alpha virt. eigenvalues --    3.22609   3.24215   3.25140   3.31133   3.35898
 Alpha virt. eigenvalues --    3.36403   3.38608   3.40516   3.42048   3.43672
 Alpha virt. eigenvalues --    3.50849   3.51716   3.63901   3.67186   3.69087
 Alpha virt. eigenvalues --    3.69698   3.71580   3.88422   3.89524   3.97060
 Alpha virt. eigenvalues --    4.09551   4.19858   4.22137   4.28017   4.37256
 Alpha virt. eigenvalues --    4.47762   4.53670   4.54596   4.60767   4.68135
 Alpha virt. eigenvalues --    4.80495   4.82853   4.89383   4.97874   5.21233
 Alpha virt. eigenvalues --    5.30014  22.16468  22.34257  22.72087  22.92748
          Condensed to atoms (all electrons):
               1          2          3          4          5          6
     1  C    4.912413   0.612810  -0.043388   0.419835   0.417843  -0.026960
     2  C    0.612810   4.873304   0.367023  -0.039806  -0.049336   0.405221
     3  C   -0.043388   0.367023   4.873304   0.005492  -0.003650  -0.049736
     4  H    0.419835  -0.039806   0.005492   0.516172  -0.025931  -0.007341
     5  H    0.417843  -0.049336  -0.003650  -0.025931   0.526433   0.005168
     6  H   -0.026960   0.405221  -0.049736  -0.007341   0.005168   0.547843
     7  C   -0.002692  -0.043388   0.612810  -0.000350   0.000675   0.002630
     8  H   -0.000350   0.005492  -0.039806   0.000009  -0.000022  -0.000130
     9  H    0.000675  -0.003650  -0.049336  -0.000022   0.000057   0.004320
    10  H    0.002630  -0.049736   0.405221  -0.000130   0.004320   0.004750
               7          8          9         10
     1  C   -0.002692  -0.000350   0.000675   0.002630
     2  C   -0.043388   0.005492  -0.003650  -0.049736
     3  C    0.612810  -0.039806  -0.049336   0.405221
     4  H   -0.000350   0.000009  -0.000022  -0.000130
     5  H    0.000675  -0.000022   0.000057   0.004320
     6  H    0.002630  -0.000130   0.004320   0.004750
     7  C    4.912413   0.419835   0.417843  -0.026960
     8  H    0.419835   0.516172  -0.025931  -0.007341
     9  H    0.417843  -0.025931   0.526433   0.005168
    10  H   -0.026960  -0.007341   0.005168   0.547843
 Mulliken charges:
               1
     1  C   -0.292816
     2  C   -0.077935
     3  C   -0.077935
     4  H    0.132071
     5  H    0.124444
     6  H    0.114236
     7  C   -0.292816
     8  H    0.132071
     9  H    0.124444
    10  H    0.114236
 Sum of Mulliken charges =   0.00000
 Mulliken charges with hydrogens summed into heavy atoms:
               1
     1  C   -0.036301
     2  C    0.036301
     3  C    0.036301
     7  C   -0.036301
 Electronic spatial extent (au):  <R**2>=            334.1394
 Charge=              0.0000 electrons
 Dipole moment (field-independent basis, Debye):
    X=              0.0000    Y=              0.0000    Z=              0.0000  Tot=              0.0000
 Quadrupole moment (field-independent basis, Debye-Ang):
   XX=            -22.8345   YY=            -22.9198   ZZ=            -28.8963
   XY=             -0.1475   XZ=              0.0000   YZ=              0.0000
 Traceless Quadrupole moment (field-independent basis, Debye-Ang):
   XX=              2.0491   YY=              1.9638   ZZ=             -4.0128
   XY=             -0.1475   XZ=              0.0000   YZ=              0.0000
 Octapole moment (field-independent basis, Debye-Ang**2):
  XXX=              0.0000  YYY=              0.0000  ZZZ=              0.0000  XYY=              0.0000
  XXY=              0.0000  XXZ=              0.0000  XZZ=              0.0000  YZZ=              0.0000
  YYZ=              0.0000  XYZ=              0.0000
 Hexadecapole moment (field-independent basis, Debye-Ang**3):
 XXXX=           -104.3802 YYYY=           -305.6569 ZZZZ=            -34.8735 XXXY=            -46.6599
 XXXZ=              0.0000 YYYX=            -46.7396 YYYZ=              0.0000 ZZZX=              0.0000
 ZZZY=              0.0000 XXYY=            -62.5697 XXZZ=            -27.0877 YYZZ=            -67.0765
 XXYZ=              0.0000 YYXZ=              0.0000 ZZXY=            -20.3165
 N-N= 1.040202281950D+02 E-N=-5.692246873234D+02  KE= 1.551603969001D+02
 Symmetry AG   KE= 7.709776416597D+01
 Symmetry BG   KE= 2.213669775452D+00
 Symmetry AU   KE= 1.963868173809D+00
 Symmetry BU   KE= 7.388509478489D+01
 No NMR shielding tensors so no spin-rotation constants.
 Leave Link  601 at Fri Jul  9 19:20:24 2021, MaxMem=  4194304000 cpu:        31.7
 (Enter /home/minenky/programs//g09/l701.exe)
 Compute integral first derivatives.
 ... and contract with generalized density number  0.
 R6Disp: Adding Grimme-D2 dispersion energy 1st derivatives to the gradient.
   4 Symmetry operations used in ECPInt.
 ECPInt:  NShTT=    2346 NPrTT=    6892 LenC2=    2333 LenP2D=    5893.
 LDataN:  DoStor=T MaxTD1= 7 Len=  274
 Leave Link  701 at Fri Jul  9 19:20:26 2021, MaxMem=  4194304000 cpu:        31.3
 (Enter /home/minenky/programs//g09/l702.exe)
 L702 exits ... SP integral derivatives will be done elsewhere.
 Leave Link  702 at Fri Jul  9 19:20:26 2021, MaxMem=  4194304000 cpu:         0.1
 (Enter /home/minenky/programs//g09/l703.exe)
 Compute integral first derivatives, UseDBF=F ICtDFT=           0.
 Integral derivatives from FoFJK, PRISM(SPDF).
 Calling FoFJK, ICntrl=      2127 FMM=F ISym2X=1 I1Cent= 0 IOpClX= 0 NMat=1 NMatS=1 NMatT=0.
 FoFJK:  IHMeth= 1 ICntrl=    2127 DoSepK=T KAlg= 0 I1Cent=   0 FoldK=F
 IRaf=         1 NMat=   1 IRICut=       1 DoRegI=T DoRafI=F ISym2E= 1.
 FoFCou: FMM=F IPFlag=           0 FMFlag=      100000 FMFlg1=         800
         NFxFlg=           0 DoJE=F BraDBF=F KetDBF=F FulRan=T
         wScrn=  0.000000 ICntrl=    2527 IOpCl=  0 I1Cent=           0 NGrid=           0
         NMat0=    1 NMatS0=      1 NMatT0=    0 NMatD0=    1 NMtDS0=    0 NMtDT0=    0
 Petite list used in FoFCou.
 Leave Link  703 at Fri Jul  9 19:20:29 2021, MaxMem=  4194304000 cpu:        38.4
 (Enter /home/minenky/programs//g09/l716.exe)
 Dipole        = 1.77635684D-15 5.27355937D-16 0.00000000D+00
 ***** Axes restored to original set *****
 -------------------------------------------------------------------
 Center     Atomic                   Forces (Hartrees/Bohr)
 Number     Number              X              Y              Z
 -------------------------------------------------------------------
      1        6          -0.000425482   -0.005557262    0.000000000
      2        6           0.002939084    0.006244063    0.000000000
      3        6          -0.002939084   -0.006244063    0.000000000
      4        1           0.000463202   -0.000181344    0.000000000
      5        1          -0.000474744   -0.000029707    0.000000000
      6        1           0.000232808    0.000167221    0.000000000
      7        6           0.000425482    0.005557262    0.000000000
      8        1          -0.000463202    0.000181344    0.000000000
      9        1           0.000474744    0.000029707    0.000000000
     10        1          -0.000232808   -0.000167221    0.000000000
 -------------------------------------------------------------------
 Cartesian Forces:  Max     0.006244063 RMS     0.002298501
 Leave Link  716 at Fri Jul  9 19:20:29 2021, MaxMem=  4194304000 cpu:         0.1
 (Enter /home/minenky/programs//g09/l103.exe)

 GradGradGradGradGradGradGradGradGradGradGradGradGradGradGradGradGradGrad
 Berny optimization.
 FormGI is forming the generalized inverse of G from B-inverse, IUseBI=4.
 Internal  Forces:  Max     0.005768293 RMS     0.001523229
 Search for a local minimum.
 Step number   1 out of a maximum of   43
 All quantities printed in internal units (Hartrees-Bohrs-Radians)
 RMS Force = .15232D-02 SwitMx=.10000D-02 MixMth= 1
 Mixed Optimization -- RFO/linear search
 Second derivative matrix not updated -- first step.
 ITU=  0
     Eigenvalues ---    0.01405   0.02206   0.02206   0.02962   0.02962
     Eigenvalues ---    0.02962   0.02962   0.16000   0.16000   0.16000
     Eigenvalues ---    0.16000   0.16000   0.16000   0.22000   0.22000
     Eigenvalues ---    0.35212   0.35212   0.35527   0.35527   0.35807
     Eigenvalues ---    0.35807   0.38026   0.58582   0.58582
 RFO step:  Lambda=-1.46695573D-04 EMin= 1.40515097D-02
 Linear search not attempted -- first point.
 Iteration  1 RMS(Cart)=  0.00523765 RMS(Int)=  0.00000433
 Iteration  2 RMS(Cart)=  0.00000569 RMS(Int)=  0.00000000
 Iteration  3 RMS(Cart)=  0.00000000 RMS(Int)=  0.00000000
 ITry= 1 IFail=0 DXMaxC= 1.35D-02 DCOld= 1.00D+10 DXMaxT= 3.00D-01 DXLimC= 3.00D+00 Rises=F
 ClnCor:  largest displacement from symmetrization is 3.59D-13 for atom     9.
 Variable       Old X    -DE/DX   Delta X   Delta X   Delta X     New X
                                 (Linear)    (Quad)   (Total)
    R1        2.52080  -0.00577   0.00000  -0.00984  -0.00984   2.51096
    R2        2.04385   0.00030   0.00000   0.00083   0.00083   2.04468
    R3        2.04828   0.00039   0.00000   0.00110   0.00110   2.04938
    R4        2.74327   0.00262   0.00000   0.00689   0.00689   2.75017
    R5        2.05333   0.00012   0.00000   0.00034   0.00034   2.05367
    R6        2.52080  -0.00577   0.00000  -0.00984  -0.00984   2.51096
    R7        2.05333   0.00012   0.00000   0.00034   0.00034   2.05367
    R8        2.04385   0.00030   0.00000   0.00083   0.00083   2.04468
    R9        2.04828   0.00039   0.00000   0.00110   0.00110   2.04938
    A1        2.12431  -0.00036   0.00000  -0.00222  -0.00222   2.12208
    A2        2.11751  -0.00010   0.00000  -0.00063  -0.00063   2.11688
    A3        2.04137   0.00046   0.00000   0.00285   0.00285   2.04422
    A4        2.16814  -0.00074   0.00000  -0.00337  -0.00337   2.16477
    A5        2.08499   0.00010   0.00000   0.00002   0.00002   2.08501
    A6        2.03005   0.00064   0.00000   0.00335   0.00335   2.03341
    A7        2.16814  -0.00074   0.00000  -0.00337  -0.00337   2.16477
    A8        2.03005   0.00064   0.00000   0.00335   0.00335   2.03341
    A9        2.08499   0.00010   0.00000   0.00002   0.00002   2.08501
   A10        2.12431  -0.00036   0.00000  -0.00222  -0.00222   2.12208
   A11        2.11751  -0.00010   0.00000  -0.00063  -0.00063   2.11688
   A12        2.04137   0.00046   0.00000   0.00285   0.00285   2.04422
    D1        3.14159   0.00000   0.00000   0.00000   0.00000   3.14159
    D2        0.00000   0.00000   0.00000   0.00000   0.00000   0.00000
    D3        0.00000   0.00000   0.00000   0.00000   0.00000   0.00000
    D4        3.14159   0.00000   0.00000   0.00000   0.00000   3.14159
    D5        3.14159   0.00000   0.00000   0.00000   0.00000   3.14159
    D6        0.00000   0.00000   0.00000   0.00000   0.00000   0.00000
    D7        0.00000   0.00000   0.00000   0.00000   0.00000   0.00000
    D8        3.14159   0.00000   0.00000   0.00000   0.00000   3.14159
    D9        3.14159   0.00000   0.00000   0.00000   0.00000   3.14159
   D10        0.00000   0.00000   0.00000   0.00000   0.00000   0.00000
   D11        0.00000   0.00000   0.00000   0.00000   0.00000   0.00000
   D12        3.14159   0.00000   0.00000   0.00000   0.00000   3.14159
         Item               Value     Threshold  Converged?
 Maximum Force            0.005768     0.000015     NO 
 RMS     Force            0.001523     0.000010     NO 
 Maximum Displacement     0.013454     0.000060     NO 
 RMS     Displacement     0.005241     0.000040     NO 
 Predicted change in Energy=-7.337109D-05
 Lowest energy point so far.  Saving SCF results.
 GradGradGradGradGradGradGradGradGradGradGradGradGradGradGradGradGradGrad

 Leave Link  103 at Fri Jul  9 19:20:32 2021, MaxMem=  4194304000 cpu:        27.3
 (Enter /home/minenky/programs//g09/l202.exe)
                          Input orientation:                          
 ---------------------------------------------------------------------
 Center     Atomic      Atomic             Coordinates (Angstroms)
 Number     Number       Type             X           Y           Z
 ---------------------------------------------------------------------
      1          6           0        0.599705    1.737138    0.000000
      2          6           0        0.602250    0.408398    0.000000
      3          6           0       -0.602250   -0.408398    0.000000
      4          1           0        1.520319    2.305635    0.000000
      5          1           0       -0.328132    2.298587    0.000000
      6          1           0        1.549488   -0.124307    0.000000
      7          6           0       -0.599705   -1.737138    0.000000
      8          1           0       -1.520319   -2.305635    0.000000
      9          1           0        0.328132   -2.298587    0.000000
     10          1           0       -1.549488    0.124307    0.000000
 ---------------------------------------------------------------------
                    Distance matrix (angstroms):
                    1          2          3          4          5
     1  C    0.000000
     2  C    1.328742   0.000000
     3  C    2.459272   1.455327   0.000000
     4  H    1.081998   2.107690   3.445472   0.000000
     5  H    1.084484   2.106756   2.720828   1.848465   0.000000
     6  H    2.089752   1.086754   2.170411   2.430117   3.065268
     7  C    3.675482   2.459272   1.328742   4.564922   4.044851
     8  H    4.564922   3.445472   2.107690   5.523522   4.756066
     9  H    4.044851   2.720828   2.106756   4.756066   4.643779
    10  H    2.687053   2.170411   1.086754   3.765887   2.493833
                    6          7          8          9         10
     6  H    0.000000
     7  C    2.687053   0.000000
     8  H    3.765887   1.081998   0.000000
     9  H    2.493833   1.084484   1.848465   0.000000
    10  H    3.108932   2.089752   2.430117   3.065268   0.000000
 Stoichiometry    C4H6
 Framework group  C2H[SGH(C4H6)]
 Deg. of freedom     9
 Full point group                 C2H     NOp   4
 RotChk:  IX=0 Diff= 2.71D-03
 Largest Abelian subgroup         C2H     NOp   4
 Largest concise Abelian subgroup C2      NOp   2
                         Standard orientation:                         
 ---------------------------------------------------------------------
 Center     Atomic      Atomic             Coordinates (Angstroms)
 Number     Number       Type             X           Y           Z
 ---------------------------------------------------------------------
      1          6           0        0.603031    1.735986    0.000000
      2          6           0        0.603031    0.407244    0.000000
      3          6           0       -0.603031   -0.407244    0.000000
      4          1           0        1.524733    2.302719    0.000000
      5          1           0       -0.323729    2.299211    0.000000
      6          1           0        1.549247   -0.127275    0.000000
      7          6           0       -0.603031   -1.735986    0.000000
      8          1           0       -1.524733   -2.302719    0.000000
      9          1           0        0.323729   -2.299211    0.000000
     10          1           0       -1.549247    0.127275    0.000000
 ---------------------------------------------------------------------
 Rotational constants (GHZ):     42.4201898      4.4739438      4.0471063
 Leave Link  202 at Fri Jul  9 19:20:32 2021, MaxMem=  4194304000 cpu:         0.5
 (Enter /home/minenky/programs//g09/l301.exe)
 Standard basis: def2TZVP (5D, 7F)
 Ernie: Thresh=  0.10000D-02 Tol=  0.10000D-05 Strict=F.
 There are    65 symmetry adapted cartesian basis functions of AG  symmetry.
 There are    25 symmetry adapted cartesian basis functions of BG  symmetry.
 There are    25 symmetry adapted cartesian basis functions of AU  symmetry.
 There are    65 symmetry adapted cartesian basis functions of BU  symmetry.
 There are    57 symmetry adapted basis functions of AG  symmetry.
 There are    23 symmetry adapted basis functions of BG  symmetry.
 There are    23 symmetry adapted basis functions of AU  symmetry.
 There are    57 symmetry adapted basis functions of BU  symmetry.
   160 basis functions,   252 primitive gaussians,   180 cartesian basis functions
    15 alpha electrons       15 beta electrons
       nuclear repulsion energy       104.1616488465 Hartrees.
 IExCor= 4639 DFT=T Ex+Corr=wB97XD ExCW=0 ScaHFX=  1.000000
 ScaDFX=  1.000000  1.000000  1.000000  1.000000 ScalE2=  1.000000  1.000000
 IRadAn=      5 IRanWt=     -1 IRanGd=            0 ICorTp=0 IEmpDi=121
  HFx wShort=  0.000000 wLong=  0.200000 cFull=  0.222036 cShort=  0.000000 cLong=  0.777964
  DFx wShort=  0.000000 wLong=  0.200000 cFull=  0.000000 cShort=  0.000000 cLong=  1.000000
 NAtoms=   10 NActive=   10 NUniq=    5 SFac= 4.00D+00 NAtFMM=   60 NAOKFM=F Big=F
 Integral buffers will be    131072 words long.
 Raffenetti 2 integral format.
 Two-electron integral symmetry is turned on.
 R6Disp:  Grimme-D2 Dispersion energy=       -0.0028490220 Hartrees.
 Nuclear repulsion after empirical dispersion term =      104.1587998245 Hartrees.
 Leave Link  301 at Fri Jul  9 19:20:32 2021, MaxMem=  4194304000 cpu:         0.2
 (Enter /home/minenky/programs//g09/l302.exe)
 NPDir=0 NMtPBC=     1 NCelOv=     1 NCel=       1 NClECP=     1 NCelD=      1
         NCelK=      1 NCelE2=     1 NClLst=     1 CellRange=     0.0.
 One-electron integrals computed using PRISM.
 One-electron integral symmetry used in STVInt
   4 Symmetry operations used in ECPInt.
 ECPInt:  NShTT=    2346 NPrTT=    6892 LenC2=    2333 LenP2D=    5893.
 LDataN:  DoStor=T MaxTD1= 6 Len=  172
 NBasis=   160 RedAO= T EigKep=  1.64D-04  NBF=    57    23    23    57
 NBsUse=   160 1.00D-06 EigRej= -1.00D+00 NBFU=    57    23    23    57
 Precomputing XC quadrature grid using
 IXCGrd= 4 IRadAn=           5 IRanWt=          -1 IRanGd=           0 AccXCQ= 0.00D+00.
 Generated NRdTot=       0 NPtTot=           0 NUsed=           0 NTot=          32
 NSgBfM=   180   180   180   180   180 MxSgAt=    10 MxSgA2=    10.
 Leave Link  302 at Fri Jul  9 19:20:37 2021, MaxMem=  4194304000 cpu:        63.3
 (Enter /home/minenky/programs//g09/l303.exe)
 DipDrv:  MaxL=1.
 Leave Link  303 at Fri Jul  9 19:20:37 2021, MaxMem=  4194304000 cpu:         3.3
 (Enter /home/minenky/programs//g09/l401.exe)
 Initial guess from the checkpoint file:  "m1_00_106-99-00_C4H6_wB97XD.chk"
 B after Tr=     0.000000    0.000000    0.000000
         Rot=    0.999999    0.000000    0.000000    0.001153 Ang=   0.13 deg.
 Guess basis will be translated and rotated to current coordinates.
 JPrj=2 DoOrth=T DoCkMO=T.
 Initial guess orbital symmetries:
       Occupied  (AG) (BU) (BU) (AG) (AG) (BU) (AG) (BU) (BU) (AG)
                 (AG) (BU) (AG) (AU) (BG)
       Virtual   (AG) (AG) (AG) (AG) (AG) (AG) (AG) (AG) (AG) (AG)
                 (AG) (AG) (AG) (AG) (AG) (AG) (AG) (AG) (AG) (AG)
                 (AG) (AG) (AG) (AG) (AG) (AG) (AG) (AG) (AG) (AG)
                 (AG) (AG) (AG) (AG) (AG) (AG) (AG) (AG) (AG) (AG)
                 (AG) (AG) (AG) (AG) (AG) (AG) (AG) (AG) (AG) (AG)
                 (BG) (BG) (BG) (BG) (BG) (BG) (BG) (BG) (BG) (BG)
                 (BG) (BG) (BG) (BG) (BG) (BG) (BG) (BG) (BG) (BG)
                 (BG) (BG) (AU) (AU) (AU) (AU) (AU) (AU) (AU) (AU)
                 (AU) (AU) (AU) (AU) (AU) (AU) (AU) (AU) (AU) (AU)
                 (AU) (AU) (AU) (AU) (BU) (BU) (BU) (BU) (BU) (BU)
                 (BU) (BU) (BU) (BU) (BU) (BU) (BU) (BU) (BU) (BU)
                 (BU) (BU) (BU) (BU) (BU) (BU) (BU) (BU) (BU) (BU)
                 (BU) (BU) (BU) (BU) (BU) (BU) (BU) (BU) (BU) (BU)
                 (BU) (BU) (BU) (BU) (BU) (BU) (BU) (BU) (BU) (BU)
                 (BU) (BU) (BU) (BU) (BU)
 The electronic state of the initial guess is 1-AG.
 Leave Link  401 at Fri Jul  9 19:20:39 2021, MaxMem=  4194304000 cpu:        17.0
 (Enter /home/minenky/programs//g09/l502.exe)
 Closed shell SCF:
 Using DIIS extrapolation, IDIIS=  1040.
 Integral symmetry usage will be decided dynamically.
 Keep R1 ints in memory in symmetry-blocked form, NReq=209105946.
 IVT=      249610 IEndB=      249610 NGot=  4194304000 MDV=  4172565543
 LenX=  4172565543 LenY=  4172532702
 Requested convergence on RMS density matrix=1.00D-08 within 380 cycles.
 Requested convergence on MAX density matrix=1.00D-06.
 Requested convergence on             energy=1.00D-06.
 No special actions if energy rises.
 FoFCou: FMM=F IPFlag=           0 FMFlag=           0 FMFlg1=           0
         NFxFlg=           0 DoJE=F BraDBF=F KetDBF=F FulRan=T
         wScrn=  0.000000 ICntrl=     600 IOpCl=  0 I1Cent=           0 NGrid=           0
         NMat0=    1 NMatS0=  12880 NMatT0=    0 NMatD0=    1 NMtDS0=    0 NMtDT0=    0
 Petite list used in FoFCou.

 Cycle   1  Pass 1  IDiag  1:
 E= -155.992117597134    
 DIIS: error= 5.50D-04 at cycle   1 NSaved=   1.
 NSaved= 1 IEnMin= 1 EnMin= -155.992117597134     IErMin= 1 ErrMin= 5.50D-04
 ErrMax= 5.50D-04  0.00D+00 EMaxC= 1.00D-01 BMatC= 3.39D-05 BMatP= 3.39D-05
 IDIUse=3 WtCom= 9.95D-01 WtEn= 5.50D-03
 Coeff-Com:  0.100D+01
 Coeff-En:   0.100D+01
 Coeff:      0.100D+01
 Gap=     0.844 Goal=   None    Shift=    0.000
 RMSDP=4.49D-05 MaxDP=6.09D-04              OVMax= 1.65D-03

 Cycle   2  Pass 1  IDiag  1:
 E= -155.992143189265     Delta-E=       -0.000025592131 Rises=F Damp=F
 DIIS: error= 9.55D-05 at cycle   2 NSaved=   2.
 NSaved= 2 IEnMin= 2 EnMin= -155.992143189265     IErMin= 2 ErrMin= 9.55D-05
 ErrMax= 9.55D-05  0.00D+00 EMaxC= 1.00D-01 BMatC= 1.55D-06 BMatP= 3.39D-05
 IDIUse=1 WtCom= 1.00D+00 WtEn= 0.00D+00
 Coeff-Com:  0.442D-01 0.956D+00
 Coeff:      0.442D-01 0.956D+00
 Gap=     0.351 Goal=   None    Shift=    0.000
 RMSDP=9.90D-06 MaxDP=1.64D-04 DE=-2.56D-05 OVMax= 4.24D-04

 Cycle   3  Pass 1  IDiag  1:
 E= -155.992144705021     Delta-E=       -0.000001515756 Rises=F Damp=F
 DIIS: error= 6.47D-05 at cycle   3 NSaved=   3.
 NSaved= 3 IEnMin= 3 EnMin= -155.992144705021     IErMin= 3 ErrMin= 6.47D-05
 ErrMax= 6.47D-05  0.00D+00 EMaxC= 1.00D-01 BMatC= 2.90D-07 BMatP= 1.55D-06
 IDIUse=1 WtCom= 1.00D+00 WtEn= 0.00D+00
 Coeff-Com: -0.225D-01 0.256D+00 0.766D+00
 Coeff:     -0.225D-01 0.256D+00 0.766D+00
 Gap=     0.351 Goal=   None    Shift=    0.000
 RMSDP=2.91D-06 MaxDP=5.43D-05 DE=-1.52D-06 OVMax= 2.57D-04

 Cycle   4  Pass 1  IDiag  1:
 E= -155.992145058055     Delta-E=       -0.000000353034 Rises=F Damp=F
 DIIS: error= 1.84D-05 at cycle   4 NSaved=   4.
 NSaved= 4 IEnMin= 4 EnMin= -155.992145058055     IErMin= 4 ErrMin= 1.84D-05
 ErrMax= 1.84D-05  0.00D+00 EMaxC= 1.00D-01 BMatC= 1.60D-08 BMatP= 2.90D-07
 IDIUse=1 WtCom= 1.00D+00 WtEn= 0.00D+00
 Coeff-Com: -0.383D-02-0.363D-01 0.119D+00 0.921D+00
 Coeff:     -0.383D-02-0.363D-01 0.119D+00 0.921D+00
 Gap=     0.351 Goal=   None    Shift=    0.000
 RMSDP=1.11D-06 MaxDP=1.76D-05 DE=-3.53D-07 OVMax= 9.84D-05

 Cycle   5  Pass 1  IDiag  1:
 E= -155.992145088323     Delta-E=       -0.000000030268 Rises=F Damp=F
 DIIS: error= 6.35D-06 at cycle   5 NSaved=   5.
 NSaved= 5 IEnMin= 5 EnMin= -155.992145088323     IErMin= 5 ErrMin= 6.35D-06
 ErrMax= 6.35D-06  0.00D+00 EMaxC= 1.00D-01 BMatC= 1.79D-09 BMatP= 1.60D-08
 IDIUse=1 WtCom= 1.00D+00 WtEn= 0.00D+00
 Coeff-Com:  0.330D-03-0.279D-01-0.904D-02 0.247D+00 0.790D+00
 Coeff:      0.330D-03-0.279D-01-0.904D-02 0.247D+00 0.790D+00
 Gap=     0.351 Goal=   None    Shift=    0.000
 RMSDP=4.32D-07 MaxDP=6.22D-06 DE=-3.03D-08 OVMax= 4.40D-05

 Cycle   6  Pass 1  IDiag  1:
 E= -155.992145091352     Delta-E=       -0.000000003029 Rises=F Damp=F
 DIIS: error= 4.16D-06 at cycle   6 NSaved=   6.
 NSaved= 6 IEnMin= 6 EnMin= -155.992145091352     IErMin= 6 ErrMin= 4.16D-06
 ErrMax= 4.16D-06  0.00D+00 EMaxC= 1.00D-01 BMatC= 5.03D-10 BMatP= 1.79D-09
 IDIUse=1 WtCom= 1.00D+00 WtEn= 0.00D+00
 Coeff-Com:  0.101D-02-0.728D-02-0.283D-01-0.595D-01 0.361D+00 0.733D+00
 Coeff:      0.101D-02-0.728D-02-0.283D-01-0.595D-01 0.361D+00 0.733D+00
 Gap=     0.351 Goal=   None    Shift=    0.000
 RMSDP=1.97D-07 MaxDP=3.34D-06 DE=-3.03D-09 OVMax= 1.94D-05

 Cycle   7  Pass 1  IDiag  1:
 E= -155.992145092135     Delta-E=       -0.000000000784 Rises=F Damp=F
 DIIS: error= 5.89D-07 at cycle   7 NSaved=   7.
 NSaved= 7 IEnMin= 7 EnMin= -155.992145092135     IErMin= 7 ErrMin= 5.89D-07
 ErrMax= 5.89D-07  0.00D+00 EMaxC= 1.00D-01 BMatC= 1.08D-11 BMatP= 5.03D-10
 IDIUse=1 WtCom= 1.00D+00 WtEn= 0.00D+00
 Coeff-Com: -0.224D-04 0.264D-02 0.263D-03-0.266D-01-0.543D-01 0.445D-01
 Coeff-Com:  0.103D+01
 Coeff:     -0.224D-04 0.264D-02 0.263D-03-0.266D-01-0.543D-01 0.445D-01
 Coeff:      0.103D+01
 Gap=     0.351 Goal=   None    Shift=    0.000
 RMSDP=6.23D-08 MaxDP=1.06D-06 DE=-7.84D-10 OVMax= 5.53D-06

 Cycle   8  Pass 1  IDiag  1:
 E= -155.992145092170     Delta-E=       -0.000000000035 Rises=F Damp=F
 DIIS: error= 7.03D-08 at cycle   8 NSaved=   8.
 NSaved= 8 IEnMin= 8 EnMin= -155.992145092170     IErMin= 8 ErrMin= 7.03D-08
 ErrMax= 7.03D-08  0.00D+00 EMaxC= 1.00D-01 BMatC= 3.75D-13 BMatP= 1.08D-11
 IDIUse=1 WtCom= 1.00D+00 WtEn= 0.00D+00
 Coeff-Com: -0.477D-04 0.525D-03 0.131D-02 0.120D-02-0.189D-01-0.372D-01
 Coeff-Com:  0.742D-01 0.979D+00
 Coeff:     -0.477D-04 0.525D-03 0.131D-02 0.120D-02-0.189D-01-0.372D-01
 Coeff:      0.742D-01 0.979D+00
 Gap=     0.351 Goal=   None    Shift=    0.000
 RMSDP=1.19D-08 MaxDP=1.95D-07 DE=-3.49D-11 OVMax= 6.69D-07

 Cycle   9  Pass 1  IDiag  1:
 E= -155.992145092172     Delta-E=       -0.000000000001 Rises=F Damp=F
 DIIS: error= 1.28D-08 at cycle   9 NSaved=   9.
 NSaved= 9 IEnMin= 9 EnMin= -155.992145092172     IErMin= 9 ErrMin= 1.28D-08
 ErrMax= 1.28D-08  0.00D+00 EMaxC= 1.00D-01 BMatC= 9.28D-15 BMatP= 3.75D-13
 IDIUse=1 WtCom= 1.00D+00 WtEn= 0.00D+00
 Coeff-Com:  0.426D-05-0.135D-03-0.104D-03 0.926D-03 0.350D-02-0.732D-03
 Coeff-Com: -0.365D-01-0.762D-01 0.111D+01
 Coeff:      0.426D-05-0.135D-03-0.104D-03 0.926D-03 0.350D-02-0.732D-03
 Coeff:     -0.365D-01-0.762D-01 0.111D+01
 Gap=     0.351 Goal=   None    Shift=    0.000
 RMSDP=2.85D-09 MaxDP=4.36D-08 DE=-1.48D-12 OVMax= 1.12D-07

 SCF Done:  E(RwB97XD) =  -155.992145092     A.U. after    9 cycles
            NFock=  9  Conv=0.29D-08     -V/T= 2.0052
 KE= 1.551823994315D+02 PE=-5.695259837799D+02 EE= 1.541926394317D+02
 Leave Link  502 at Fri Jul  9 19:21:00 2021, MaxMem=  4194304000 cpu:       310.0
 (Enter /home/minenky/programs//g09/l701.exe)
 Compute integral first derivatives.
 ... and contract with generalized density number  0.
 R6Disp: Adding Grimme-D2 dispersion energy 1st derivatives to the gradient.
   4 Symmetry operations used in ECPInt.
 ECPInt:  NShTT=    2346 NPrTT=    6892 LenC2=    2333 LenP2D=    5893.
 LDataN:  DoStor=T MaxTD1= 7 Len=  274
 Leave Link  701 at Fri Jul  9 19:21:03 2021, MaxMem=  4194304000 cpu:        31.9
 (Enter /home/minenky/programs//g09/l702.exe)
 L702 exits ... SP integral derivatives will be done elsewhere.
 Leave Link  702 at Fri Jul  9 19:21:03 2021, MaxMem=  4194304000 cpu:         0.1
 (Enter /home/minenky/programs//g09/l703.exe)
 Compute integral first derivatives, UseDBF=F ICtDFT=           0.
 Integral derivatives from FoFJK, PRISM(SPDF).
 Calling FoFJK, ICntrl=      2127 FMM=F ISym2X=1 I1Cent= 0 IOpClX= 0 NMat=1 NMatS=1 NMatT=0.
 FoFJK:  IHMeth= 1 ICntrl=    2127 DoSepK=T KAlg= 0 I1Cent=   0 FoldK=F
 IRaf=         1 NMat=   1 IRICut=       1 DoRegI=T DoRafI=F ISym2E= 1.
 FoFCou: FMM=F IPFlag=           0 FMFlag=      100000 FMFlg1=         800
         NFxFlg=           0 DoJE=F BraDBF=F KetDBF=F FulRan=T
         wScrn=  0.000000 ICntrl=    2527 IOpCl=  0 I1Cent=           0 NGrid=           0
         NMat0=    1 NMatS0=      1 NMatT0=    0 NMatD0=    1 NMtDS0=    0 NMtDT0=    0
 Petite list used in FoFCou.
 Leave Link  703 at Fri Jul  9 19:21:06 2021, MaxMem=  4194304000 cpu:        40.7
 (Enter /home/minenky/programs//g09/l716.exe)
 Dipole        =-1.77635684D-15-6.16173779D-15 0.00000000D+00
 ***** Axes restored to original set *****
 -------------------------------------------------------------------
 Center     Atomic                   Forces (Hartrees/Bohr)
 Number     Number              X              Y              Z
 -------------------------------------------------------------------
      1        6          -0.000112389    0.000209118    0.000000000
      2        6           0.000789040    0.000562199    0.000000000
      3        6          -0.000789040   -0.000562199    0.000000000
      4        1           0.000016191    0.000091026    0.000000000
      5        1           0.000038717    0.000051725    0.000000000
      6        1          -0.000172760   -0.000200691    0.000000000
      7        6           0.000112389   -0.000209118    0.000000000
      8        1          -0.000016191   -0.000091026    0.000000000
      9        1          -0.000038717   -0.000051725    0.000000000
     10        1           0.000172760    0.000200691    0.000000000
 -------------------------------------------------------------------
 Cartesian Forces:  Max     0.000789040 RMS     0.000268062
 Leave Link  716 at Fri Jul  9 19:21:06 2021, MaxMem=  4194304000 cpu:         0.1
 (Enter /home/minenky/programs//g09/l103.exe)

 GradGradGradGradGradGradGradGradGradGradGradGradGradGradGradGradGradGrad
 Berny optimization.
 Using GEDIIS/GDIIS optimizer.
 FormGI is forming the generalized inverse of G from B-inverse, IUseBI=4.
 Internal  Forces:  Max     0.000862807 RMS     0.000200897
 Search for a local minimum.
 Step number   2 out of a maximum of   43
 All quantities printed in internal units (Hartrees-Bohrs-Radians)
 RMS Force = .20090D-03 SwitMx=.10000D-02 MixMth= 2
 Mixed Optimization -- En-DIIS/RFO-DIIS
 Update second derivatives using D2CorX and points    1    2
 DE= -7.15D-05 DEPred=-7.34D-05 R= 9.74D-01
 TightC=F SS=  1.41D+00  RLast= 1.78D-02 DXNew= 5.0454D-01 5.3462D-02
 Trust test= 9.74D-01 RLast= 1.78D-02 DXMaxT set to 3.00D-01
 ITU=  1  0
 Use linear search instead of GDIIS.
     Eigenvalues ---    0.01405   0.02205   0.02205   0.02962   0.02962
     Eigenvalues ---    0.02962   0.02962   0.15887   0.16000   0.16000
     Eigenvalues ---    0.16000   0.16000   0.16536   0.22000   0.22204
     Eigenvalues ---    0.34491   0.35212   0.35229   0.35527   0.35596
     Eigenvalues ---    0.35807   0.35921   0.58582   0.63835
 RFO step:  Lambda=-4.06489780D-06 EMin= 1.40515097D-02
 Quartic linear search produced a step of -0.02798.
 Iteration  1 RMS(Cart)=  0.00089393 RMS(Int)=  0.00000045
 Iteration  2 RMS(Cart)=  0.00000053 RMS(Int)=  0.00000000
 ITry= 1 IFail=0 DXMaxC= 2.15D-03 DCOld= 1.00D+10 DXMaxT= 3.00D-01 DXLimC= 3.00D+00 Rises=F
 ClnCor:  largest displacement from symmetrization is 2.91D-13 for atom     9.
 Variable       Old X    -DE/DX   Delta X   Delta X   Delta X     New X
                                 (Linear)    (Quad)   (Total)
    R1        2.51096   0.00035   0.00028   0.00003   0.00031   2.51127
    R2        2.04468   0.00006  -0.00002   0.00021   0.00019   2.04487
    R3        2.04938  -0.00001  -0.00003   0.00004   0.00001   2.04939
    R4        2.75017   0.00086  -0.00019   0.00259   0.00240   2.75257
    R5        2.05367  -0.00005  -0.00001  -0.00012  -0.00013   2.05353
    R6        2.51096   0.00035   0.00028   0.00003   0.00031   2.51127
    R7        2.05367  -0.00005  -0.00001  -0.00012  -0.00013   2.05353
    R8        2.04468   0.00006  -0.00002   0.00021   0.00019   2.04487
    R9        2.04938  -0.00001  -0.00003   0.00004   0.00001   2.04939
    A1        2.12208   0.00005   0.00006   0.00018   0.00024   2.12232
    A2        2.11688   0.00004   0.00002   0.00021   0.00023   2.11711
    A3        2.04422  -0.00009  -0.00008  -0.00039  -0.00047   2.04375
    A4        2.16477   0.00008   0.00009   0.00015   0.00024   2.16501
    A5        2.08501   0.00023   0.00000   0.00145   0.00145   2.08646
    A6        2.03341  -0.00030  -0.00009  -0.00160  -0.00169   2.03171
    A7        2.16477   0.00008   0.00009   0.00015   0.00024   2.16501
    A8        2.03341  -0.00030  -0.00009  -0.00160  -0.00169   2.03171
    A9        2.08501   0.00023   0.00000   0.00145   0.00145   2.08646
   A10        2.12208   0.00005   0.00006   0.00018   0.00024   2.12232
   A11        2.11688   0.00004   0.00002   0.00021   0.00023   2.11711
   A12        2.04422  -0.00009  -0.00008  -0.00039  -0.00047   2.04375
    D1        3.14159   0.00000   0.00000   0.00000   0.00000   3.14159
    D2        0.00000   0.00000   0.00000   0.00000   0.00000   0.00000
    D3        0.00000   0.00000   0.00000   0.00000   0.00000   0.00000
    D4        3.14159   0.00000   0.00000   0.00000   0.00000   3.14159
    D5        3.14159   0.00000   0.00000   0.00000   0.00000   3.14159
    D6        0.00000   0.00000   0.00000   0.00000   0.00000   0.00000
    D7        0.00000   0.00000   0.00000   0.00000   0.00000   0.00000
    D8        3.14159   0.00000   0.00000   0.00000   0.00000   3.14159
    D9        3.14159   0.00000   0.00000   0.00000   0.00000   3.14159
   D10        0.00000   0.00000   0.00000   0.00000   0.00000   0.00000
   D11        0.00000   0.00000   0.00000   0.00000   0.00000   0.00000
   D12        3.14159   0.00000   0.00000   0.00000   0.00000   3.14159
         Item               Value     Threshold  Converged?
 Maximum Force            0.000863     0.000015     NO 
 RMS     Force            0.000201     0.000010     NO 
 Maximum Displacement     0.002155     0.000060     NO 
 RMS     Displacement     0.000894     0.000040     NO 
 Predicted change in Energy=-2.092437D-06
 Lowest energy point so far.  Saving SCF results.
 GradGradGradGradGradGradGradGradGradGradGradGradGradGradGradGradGradGrad

 Leave Link  103 at Fri Jul  9 19:21:07 2021, MaxMem=  4194304000 cpu:        13.3
 (Enter /home/minenky/programs//g09/l202.exe)
                          Input orientation:                          
 ---------------------------------------------------------------------
 Center     Atomic      Atomic             Coordinates (Angstroms)
 Number     Number       Type             X           Y           Z
 ---------------------------------------------------------------------
      1          6           0        0.599902    1.737882    0.000000
      2          6           0        0.602623    0.408979    0.000000
      3          6           0       -0.602623   -0.408979    0.000000
      4          1           0        1.520390    2.306775    0.000000
      5          1           0       -0.327886    2.299425    0.000000
      6          1           0        1.549095   -0.124940    0.000000
      7          6           0       -0.599902   -1.737882    0.000000
      8          1           0       -1.520390   -2.306775    0.000000
      9          1           0        0.327886   -2.299425    0.000000
     10          1           0       -1.549095    0.124940    0.000000
[...]
      9  0.649987D-02 -0.106642D-03  0.154161D-02  0.359529D+00
     10  0.944692D-03 -0.101097D-03  0.264773D-03  0.239130D-03  0.810424D-01
     11 -0.790004D-03  0.885273D-03 -0.115258D-03 -0.356730D-03 -0.453011D-01
     12 -0.154688D-03 -0.784176D-03 -0.149514D-03  0.117600D-03 -0.357413D-01
     13  0.669668D-02 -0.386018D-02  0.102866D-02 -0.560872D-03  0.993474D-02
     14 -0.241338D-02 -0.131296D-03 -0.146787D-03 -0.852836D-03 -0.845445D-02
     15 -0.428330D-02  0.399147D-02 -0.881877D-03  0.141371D-02 -0.148029D-02
     16  0.161441D-01 -0.128266D-01  0.443633D-02 -0.470393D-02  0.179244D-02
     17 -0.253353D-01  0.704377D-02 -0.153593D-02 -0.385072D-03 -0.702134D-03
     18  0.919116D-02  0.578282D-02 -0.290040D-02  0.508901D-02 -0.109031D-02
     19  0.117182D-01 -0.267273D-02  0.523810D-02 -0.120223D-01  0.784333D-03
     20  0.968462D-02  0.359590D-02 -0.112666D-01  0.628305D-02 -0.463958D-03
     21 -0.214028D-01 -0.923167D-03  0.602852D-02  0.573922D-02 -0.320375D-03
     22  0.000000D+00  0.000000D+00  0.000000D+00  0.000000D+00  0.000000D+00
     23  0.000000D+00  0.000000D+00  0.000000D+00  0.000000D+00  0.000000D+00
     24  0.000000D+00  0.000000D+00  0.000000D+00  0.000000D+00  0.000000D+00
     25  0.000000D+00  0.000000D+00  0.000000D+00  0.000000D+00  0.000000D+00
     26  0.000000D+00  0.000000D+00  0.000000D+00  0.000000D+00  0.000000D+00
     27  0.000000D+00  0.000000D+00  0.000000D+00  0.000000D+00  0.000000D+00
     28  0.000000D+00  0.000000D+00  0.000000D+00  0.000000D+00  0.000000D+00
     29  0.000000D+00  0.000000D+00  0.000000D+00  0.000000D+00  0.000000D+00
     30  0.000000D+00  0.000000D+00  0.000000D+00  0.000000D+00  0.000000D+00
     31  0.000000D+00  0.000000D+00  0.000000D+00  0.000000D+00  0.000000D+00
     32  0.000000D+00  0.000000D+00  0.000000D+00  0.000000D+00  0.000000D+00
     33  0.000000D+00  0.000000D+00  0.000000D+00  0.000000D+00  0.000000D+00
               11            12            13            14            15 
     11  0.815997D-01
     12 -0.362986D-01  0.720399D-01
     13 -0.792044D-02 -0.201430D-02  0.115055D+00
     14  0.981585D-02 -0.136140D-02 -0.582126D-01  0.925677D-01
     15 -0.189540D-02  0.337570D-02 -0.568425D-01 -0.343551D-01  0.911976D-01
     16 -0.332399D-03 -0.146004D-02  0.157538D-01 -0.283688D-02 -0.129170D-01
     17  0.433335D-03  0.268799D-03 -0.129170D-01 -0.713251D-03  0.136302D-01
     18 -0.100936D-03  0.119124D-02 -0.283688D-02  0.355013D-02 -0.713251D-03
     19 -0.463958D-03 -0.320375D-03  0.179244D-02 -0.109031D-02 -0.702134D-03
     20  0.193769D-03  0.270189D-03 -0.332399D-03 -0.100936D-03  0.433335D-03
     21  0.270189D-03  0.501860D-04 -0.146004D-02  0.119124D-02  0.268799D-03
     22  0.000000D+00  0.000000D+00  0.000000D+00  0.000000D+00  0.000000D+00
     23  0.000000D+00  0.000000D+00  0.000000D+00  0.000000D+00  0.000000D+00
     24  0.000000D+00  0.000000D+00  0.000000D+00  0.000000D+00  0.000000D+00
     25  0.000000D+00  0.000000D+00  0.000000D+00  0.000000D+00  0.000000D+00
     26  0.000000D+00  0.000000D+00  0.000000D+00  0.000000D+00  0.000000D+00
     27  0.000000D+00  0.000000D+00  0.000000D+00  0.000000D+00  0.000000D+00
     28  0.000000D+00  0.000000D+00  0.000000D+00  0.000000D+00  0.000000D+00
     29  0.000000D+00  0.000000D+00  0.000000D+00  0.000000D+00  0.000000D+00
     30  0.000000D+00  0.000000D+00  0.000000D+00  0.000000D+00  0.000000D+00
     31  0.000000D+00  0.000000D+00  0.000000D+00  0.000000D+00  0.000000D+00
     32  0.000000D+00  0.000000D+00  0.000000D+00  0.000000D+00  0.000000D+00
     33  0.000000D+00  0.000000D+00  0.000000D+00  0.000000D+00  0.000000D+00
               16            17            18            19            20 
     16  0.115055D+00
     17 -0.568425D-01  0.911976D-01
     18 -0.582126D-01 -0.343551D-01  0.925677D-01
     19  0.993474D-02 -0.148029D-02 -0.845445D-02  0.810424D-01
     20 -0.792044D-02 -0.189540D-02  0.981585D-02 -0.453011D-01  0.815997D-01
     21 -0.201430D-02  0.337570D-02 -0.136140D-02 -0.357413D-01 -0.362986D-01
     22  0.000000D+00  0.000000D+00  0.000000D+00  0.000000D+00  0.000000D+00
     23  0.000000D+00  0.000000D+00  0.000000D+00  0.000000D+00  0.000000D+00
     24  0.000000D+00  0.000000D+00  0.000000D+00  0.000000D+00  0.000000D+00
     25  0.000000D+00  0.000000D+00  0.000000D+00  0.000000D+00  0.000000D+00
     26  0.000000D+00  0.000000D+00  0.000000D+00  0.000000D+00  0.000000D+00
     27  0.000000D+00  0.000000D+00  0.000000D+00  0.000000D+00  0.000000D+00
     28  0.000000D+00  0.000000D+00  0.000000D+00  0.000000D+00  0.000000D+00
     29  0.000000D+00  0.000000D+00  0.000000D+00  0.000000D+00  0.000000D+00
     30  0.000000D+00  0.000000D+00  0.000000D+00  0.000000D+00  0.000000D+00
     31  0.000000D+00  0.000000D+00  0.000000D+00  0.000000D+00  0.000000D+00
     32  0.000000D+00  0.000000D+00  0.000000D+00  0.000000D+00  0.000000D+00
     33  0.000000D+00  0.000000D+00  0.000000D+00  0.000000D+00  0.000000D+00
               21            22            23            24            25 
     21  0.720399D-01
     22  0.000000D+00  0.225921D-01
     23  0.000000D+00  0.143366D-01  0.195730D-01
     24  0.000000D+00  0.136661D-02 -0.411613D-02  0.201304D-01
     25  0.000000D+00 -0.688889D-02  0.112026D-02  0.146476D-01  0.226568D-01
     26  0.000000D+00 -0.273398D-02  0.327354D-02 -0.171447D-02  0.429305D-02
     27  0.000000D+00 -0.425356D-02  0.240498D-02 -0.262223D-02  0.403631D-02
     28  0.000000D+00  0.527901D-02 -0.180902D-02  0.360721D-02 -0.348082D-02
     29  0.000000D+00  0.375943D-02 -0.267758D-02  0.269945D-02 -0.373756D-02
     30  0.000000D+00 -0.240911D-02 -0.843547D-03 -0.130346D-02  0.262103D-03
     31  0.000000D+00 -0.130346D-02 -0.368232D-03 -0.514823D-03  0.420408D-03
     32  0.000000D+00 -0.843547D-03  0.512980D-04 -0.368232D-03  0.526613D-03
     33  0.000000D+00  0.262103D-03  0.526613D-03  0.420408D-03  0.684918D-03
               26            27            28            29            30 
     26  0.732978D-02
     27  0.149874D-02  0.837855D-02
     28  0.149874D-02 -0.496420D-02  0.837855D-02
     29 -0.433231D-02  0.191560D-02  0.191560D-02  0.816352D-02
     30 -0.273398D-02  0.527901D-02 -0.425356D-02  0.375943D-02  0.225921D-01
     31 -0.171447D-02  0.360721D-02 -0.262223D-02  0.269945D-02  0.136661D-02
     32  0.327354D-02 -0.180902D-02  0.240498D-02 -0.267758D-02  0.143366D-01
     33  0.429305D-02 -0.348082D-02  0.403631D-02 -0.373756D-02 -0.688889D-02
               31            32            33 
     31  0.201304D-01
     32 -0.411613D-02  0.195730D-01
     33  0.146476D-01  0.112026D-02  0.226568D-01
 Leave Link  716 at Fri Jul  9 19:24:10 2021, MaxMem=  4194304000 cpu:         6.4
 (Enter /home/minenky/programs//g09/l103.exe)

 GradGradGradGradGradGradGradGradGradGradGradGradGradGradGradGradGradGrad
 Berny optimization.
 Red2BG is reusing G-inverse.
 Internal  Forces:  Max     0.000002356 RMS     0.000001024
 Search for a local minimum.
 Step number   1 out of a maximum of    2
 All quantities printed in internal units (Hartrees-Bohrs-Radians)
 Second derivative matrix not updated -- analytic derivatives used.
 ITU=  0
     Eigenvalues ---    0.00656   0.02388   0.02512   0.03060   0.03313
     Eigenvalues ---    0.04064   0.04223   0.10439   0.10605   0.11137
     Eigenvalues ---    0.11495   0.12080   0.13563   0.15751   0.19077
     Eigenvalues ---    0.34690   0.35418   0.35727   0.36055   0.36132
     Eigenvalues ---    0.36576   0.36614   0.63527   0.64010
 Angle between quadratic step and forces=  19.12 degrees.
 Linear search not attempted -- first point.
 Iteration  1 RMS(Cart)=  0.00001251 RMS(Int)=  0.00000000
 Iteration  2 RMS(Cart)=  0.00000000 RMS(Int)=  0.00000000
 ITry= 1 IFail=0 DXMaxC= 3.08D-05 DCOld= 1.00D+10 DXMaxT= 3.00D-01 DXLimC= 3.00D+00 Rises=F
 ClnCor:  largest displacement from symmetrization is 9.14D-13 for atom     8.
 Variable       Old X    -DE/DX   Delta X   Delta X   Delta X     New X
                                 (Linear)    (Quad)   (Total)
    R1        2.51123   0.00000   0.00000   0.00000   0.00000   2.51123
    R2        2.04487   0.00000   0.00000   0.00000   0.00000   2.04486
    R3        2.04935   0.00000   0.00000   0.00000   0.00000   2.04935
    R4        2.75303   0.00000   0.00000  -0.00001  -0.00001   2.75302
    R5        2.05350   0.00000   0.00000   0.00000   0.00000   2.05350
    R6        2.51123   0.00000   0.00000   0.00000   0.00000   2.51123
    R7        2.05350   0.00000   0.00000   0.00000   0.00000   2.05350
    R8        2.04487   0.00000   0.00000   0.00000   0.00000   2.04486
    R9        2.04935   0.00000   0.00000   0.00000   0.00000   2.04935
    A1        2.12250   0.00000   0.00000   0.00002   0.00002   2.12252
    A2        2.11715   0.00000   0.00000  -0.00001  -0.00001   2.11714
    A3        2.04353   0.00000   0.00000  -0.00001  -0.00001   2.04352
    A4        2.16474   0.00000   0.00000  -0.00001  -0.00001   2.16473
    A5        2.08727   0.00000   0.00000   0.00000   0.00000   2.08727
    A6        2.03117   0.00000   0.00000   0.00001   0.00001   2.03118
    A7        2.16474   0.00000   0.00000  -0.00001  -0.00001   2.16473
    A8        2.03117   0.00000   0.00000   0.00001   0.00001   2.03118
    A9        2.08727   0.00000   0.00000   0.00000   0.00000   2.08727
   A10        2.12250   0.00000   0.00000   0.00002   0.00002   2.12252
   A11        2.11715   0.00000   0.00000  -0.00001  -0.00001   2.11714
   A12        2.04353   0.00000   0.00000  -0.00001  -0.00001   2.04352
    D1        3.14159   0.00000   0.00000   0.00000   0.00000   3.14159
    D2        0.00000   0.00000   0.00000   0.00000   0.00000   0.00000
    D3        0.00000   0.00000   0.00000   0.00000   0.00000   0.00000
    D4        3.14159   0.00000   0.00000   0.00000   0.00000   3.14159
    D5        3.14159   0.00000   0.00000   0.00000   0.00000   3.14159
    D6        0.00000   0.00000   0.00000   0.00000   0.00000   0.00000
    D7        0.00000   0.00000   0.00000   0.00000   0.00000   0.00000
    D8        3.14159   0.00000   0.00000   0.00000   0.00000   3.14159
    D9        3.14159   0.00000   0.00000   0.00000   0.00000   3.14159
   D10        0.00000   0.00000   0.00000   0.00000   0.00000   0.00000
   D11        0.00000   0.00000   0.00000   0.00000   0.00000   0.00000
   D12        3.14159   0.00000   0.00000   0.00000   0.00000   3.14159
         Item               Value     Threshold  Converged?
 Maximum Force            0.000002     0.000015     YES
 RMS     Force            0.000001     0.000010     YES
 Maximum Displacement     0.000031     0.000060     YES
 RMS     Displacement     0.000013     0.000040     YES
 Predicted change in Energy=-1.170789D-10
 Optimization completed.
    -- Stationary point found.
                           ----------------------------
                           !   Optimized Parameters   !
                           ! (Angstroms and Degrees)  !
 --------------------------                            --------------------------
 ! Name  Definition              Value          Derivative Info.                !
 --------------------------------------------------------------------------------
 ! R1    R(1,2)                  1.3289         -DE/DX =    0.0                 !
 ! R2    R(1,4)                  1.0821         -DE/DX =    0.0                 !
 ! R3    R(1,5)                  1.0845         -DE/DX =    0.0                 !
 ! R4    R(2,3)                  1.4568         -DE/DX =    0.0                 !
 ! R5    R(2,6)                  1.0867         -DE/DX =    0.0                 !
 ! R6    R(3,7)                  1.3289         -DE/DX =    0.0                 !
 ! R7    R(3,10)                 1.0867         -DE/DX =    0.0                 !
 ! R8    R(7,8)                  1.0821         -DE/DX =    0.0                 !
 ! R9    R(7,9)                  1.0845         -DE/DX =    0.0                 !
 ! A1    A(2,1,4)              121.6104         -DE/DX =    0.0                 !
 ! A2    A(2,1,5)              121.3038         -DE/DX =    0.0                 !
 ! A3    A(4,1,5)              117.0857         -DE/DX =    0.0                 !
 ! A4    A(1,2,3)              124.0307         -DE/DX =    0.0                 !
 ! A5    A(1,2,6)              119.5916         -DE/DX =    0.0                 !
 ! A6    A(3,2,6)              116.3777         -DE/DX =    0.0                 !
 ! A7    A(2,3,7)              124.0307         -DE/DX =    0.0                 !
 ! A8    A(2,3,10)             116.3777         -DE/DX =    0.0                 !
 ! A9    A(7,3,10)             119.5916         -DE/DX =    0.0                 !
 ! A10   A(3,7,8)              121.6104         -DE/DX =    0.0                 !
 ! A11   A(3,7,9)              121.3038         -DE/DX =    0.0                 !
 ! A12   A(8,7,9)              117.0857         -DE/DX =    0.0                 !
 ! D1    D(4,1,2,3)            180.0            -DE/DX =    0.0                 !
 ! D2    D(4,1,2,6)              0.0            -DE/DX =    0.0                 !
 ! D3    D(5,1,2,3)              0.0            -DE/DX =    0.0                 !
 ! D4    D(5,1,2,6)            180.0            -DE/DX =    0.0                 !
 ! D5    D(1,2,3,7)            180.0            -DE/DX =    0.0                 !
 ! D6    D(1,2,3,10)             0.0            -DE/DX =    0.0                 !
 ! D7    D(6,2,3,7)              0.0            -DE/DX =    0.0                 !
 ! D8    D(6,2,3,10)           180.0            -DE/DX =    0.0                 !
 ! D9    D(2,3,7,8)            180.0            -DE/DX =    0.0                 !
 ! D10   D(2,3,7,9)              0.0            -DE/DX =    0.0                 !
 ! D11   D(10,3,7,8)             0.0            -DE/DX =    0.0                 !
 ! D12   D(10,3,7,9)           180.0            -DE/DX =    0.0                 !
 --------------------------------------------------------------------------------
 GradGradGradGradGradGradGradGradGradGradGradGradGradGradGradGradGradGrad

 Leave Link  103 at Fri Jul  9 19:24:12 2021, MaxMem=  4194304000 cpu:        25.5
 (Enter /home/minenky/programs//g09/l9999.exe)
 1\1\GINC-CN506-02-R\Freq\RwB97XD\def2TZVP\C4H6\MINENKY\09-Jul-2021\0\\
 #P Geom=AllCheck Guess=TCheck SCRF=Check GenChk RwB97XD/def2TZVP Freq\
 \The PBEPBE optimization and frequencies\\0,1\C,0.5998748328,1.7378480
 695,0.\C,0.6027769444,0.4089677112,0.\C,-0.6027769444,-0.4089677112,0.
 \H,1.5201818267,2.3070301102,0.\H,-0.3279504084,2.2992880287,0.\H,1.54
 88769547,-0.1255795285,0.\C,-0.5998748328,-1.7378480695,0.\H,-1.520181
 8267,-2.3070301102,0.\H,0.3279504084,-2.2992880287,0.\H,-1.5488769547,
 0.1255795285,0.\\Version=AM64L-G09RevD.01\State=1-AG\HF=-155.9921477\R
 MSD=1.589e-09\RMSF=1.336e-06\ZeroPoint=0.0857482\Thermal=0.0903825\Dip
 ole=0.,0.,0.\DipoleDeriv=0.0662933,-0.1230873,0.,-0.0776975,-0.1805658
 ,0.,0.,0.,-0.3117469,0.1152106,0.0918916,0.,0.0167661,0.1430851,0.,0.,
 0.,-0.1293812,0.1152105,0.0918913,0.,0.016766,0.1430847,0.,0.,0.,-0.12
 93812,-0.0426534,-0.077232,0.,-0.0350471,0.0155293,0.,0.,0.,0.1479253,
 -0.0684866,0.0830906,0.,0.0216662,0.0308312,0.,0.,0.,0.1535721,-0.0703
 638,0.0253372,0.,0.0743123,-0.0088797,0.,0.,0.,0.1396307,0.0662933,-0.
 1230873,0.,-0.0776975,-0.1805657,0.,0.,0.,-0.3117469,-0.0426533,-0.077
 2319,0.,-0.035047,0.0155294,0.,0.,0.,0.1479253,-0.0684867,0.0830906,0.
 ,0.0216662,0.0308313,0.,0.,0.,0.1535721,-0.0703638,0.0253372,0.,0.0743
 123,-0.0088797,0.,0.,0.,0.1396306\Polar=44.3597502,9.3529531,81.828234
 4,0.,0.,30.4598719\PG=C02H [SGH(C4H6)]\NImag=0\\0.65263524,0.00883277,
 0.86070763,0.,0.,0.11163305,-0.11844106,0.01270228,0.,0.62111987,0.004
 91757,-0.55619100,0.,-0.04015611,0.86296029,0.,0.,-0.05429617,0.,0.,0.
 13781766,0.00480033,-0.01262393,0.,-0.22791302,-0.06358196,0.,0.621119
 87,-0.03464309,-0.03670314,0.,-0.06358196,-0.12967320,0.,-0.04015611,0
 .86296029,0.,0.,0.00726510,0.,0.,-0.06801331,0.,0.,0.13781766,-0.27073
 839,-0.12957778,0.,0.00404895,0.00408772,0.,0.00084895,0.00035008,0.,0
 .27914651,-0.12381511,-0.13291430,0.,-0.02993790,-0.01225115,0.,0.0026
 2415,-0.00439934,0.,0.13904756,0.13946676,0.,0.,-0.03532072,0.,0.,0.00
 565985,0.,0.,0.01279631,0.,0.,0.02336023,-0.26717546,0.12408591,0.,0.0
 0201943,-0.00068378,0.,0.00136250,-0.00191768,0.,-0.01517268,0.0137065
 2,0.,0.27736277,0.11935946,-0.12969819,0.,0.03039892,-0.01276250,0.,0.
 00198743,0.00144593,0.,-0.01370189,0.00994651,0.,-0.13550742,0.1360276
 9,0.,0.,-0.03642779,0.,0.,0.00615972,0.,0.,-0.00839262,0.,0.,0.0027928
 4,0.,0.,0.02351268,0.00304640,-0.00204863,0.,-0.26671599,0.11666574,0.
 ,-0.02112995,0.01496150,0.,0.00116176,0.00014560,0.,0.00120415,-0.0007
 2890,0.,0.28307486,0.03043059,-0.01357846,0.,0.11463409,-0.12154763,0.
 ,-0.01604696,0.00912173,0.,-0.00032761,0.00084219,0.,-0.00038346,-0.00
 501627,0.,-0.12549792,0.13043527,0.,0.,0.00676755,0.,0.,-0.04257464,0.
 ,0.,0.00357810,0.,0.,-0.00762869,0.,0.,0.01125520,0.,0.,0.02708916,-0.
 00604389,-0.00210309,0.,0.00480033,-0.03464309,0.,-0.11844106,0.004917
 57,0.,0.00024564,-0.00165687,0.,0.00026119,-0.00043848,0.,0.00140999,-
 0.00088376,0.,0.65263524,-0.00210309,0.00690730,0.,-0.01262393,-0.0367
 0314,0.,0.01270228,-0.55619100,0.,-0.00009880,-0.00026945,0.,-0.000023
 63,0.00008873,0.,0.00085491,0.00165088,0.,0.00883277,0.86070763,0.,0.,
 0.00172158,0.,0.,0.00726510,0.,0.,-0.05429617,0.,0.,-0.00037601,0.,0.,
 0.00019604,0.,0.,-0.00116264,0.,0.,0.11163305,0.00024564,-0.00009880,0
 .,0.00084895,0.00035008,0.,0.00404895,0.00408772,0.,0.00000012,0.00001
 115,0.,-0.00000377,-0.00006554,0.,0.00046292,0.00027513,0.,-0.27073839
 ,-0.12957778,0.,0.27914651,-0.00165687,-0.00026945,0.,0.00262415,-0.00
 439934,0.,-0.02993790,-0.01225115,0.,0.00001115,-0.00047485,0.,0.00010
 591,0.00001434,0.,-0.00023100,0.00003929,0.,-0.12381511,-0.13291430,0.
 ,0.13904756,0.13946676,0.,0.,-0.00037601,0.,0.,0.01279631,0.,0.,0.0056
 5985,0.,0.,-0.00133553,0.,0.,0.00028989,0.,0.,-0.00023819,0.,0.,-0.035
 32072,0.,0.,0.02336023,0.00026119,-0.00002363,0.,0.00136250,-0.0019176
 8,0.,0.00201943,-0.00068378,0.,-0.00000377,0.00010591,0.,-0.00017878,-
 0.00007854,0.,0.00032064,0.00069615,0.,-0.26717546,0.12408591,0.,-0.01
 517268,0.01370652,0.,0.27736277,-0.00043848,0.00008873,0.,0.00198743,0
 .00144593,0.,0.03039892,-0.01276250,0.,-0.00006554,0.00001434,0.,-0.00
 007854,0.00025589,0.,-0.00122504,-0.00030212,0.,0.11935946,-0.12969819
 ,0.,-0.01370189,0.00994651,0.,-0.13550742,0.13602769,0.,0.,0.00019604,
 0.,0.,-0.00839262,0.,0.,0.00615972,0.,0.,0.00028989,0.,0.,0.00032604,0
 .,0.,0.00028799,0.,0.,-0.03642779,0.,0.,0.00279284,0.,0.,0.02351268,0.
 00140999,0.00085491,0.,-0.02112995,0.01496150,0.,-0.26671599,0.1166657
 4,0.,0.00046292,-0.00023100,0.,0.00032064,-0.00122504,0.,-0.00283479,-
 0.00289627,0.,0.00304640,-0.00204863,0.,0.00116176,0.00014560,0.,0.001
 20415,-0.00072890,0.,0.28307486,-0.00088376,0.00165088,0.,-0.01604696,
 0.00912173,0.,0.11463409,-0.12154763,0.,0.00027513,0.00003929,0.,0.000
 69615,-0.00030212,0.,-0.00289627,-0.00164488,0.,0.03043059,-0.01357846
 ,0.,-0.00032761,0.00084219,0.,-0.00038346,-0.00501627,0.,-0.12549792,0
 .13043527,0.,0.,-0.00116264,0.,0.,0.00357810,0.,0.,-0.04257464,0.,0.,-
 0.00023819,0.,0.,0.00028799,0.,0.,0.00262616,0.,0.,0.00676755,0.,0.,-0
 .00762869,0.,0.,0.01125520,0.,0.,0.02708916\\-0.00000298,0.00000168,0.
 ,0.00000078,0.00000323,0.,-0.00000078,-0.00000323,0.,0.00000135,-0.000
 00101,0.,0.00000093,-0.00000038,0.,0.00000002,-0.00000043,0.,0.0000029
 8,-0.00000168,0.,-0.00000135,0.00000101,0.,-0.00000093,0.00000038,0.,-
 0.00000002,0.00000043,0.\\\@


 ABSOLUTISM, OBSOLETISM -- IF IT WORKS, IT'S OUT OF DATE

                          -- STAFFORD BEER
 Job cpu time:       0 days  0 hours 15 minutes 34.8 seconds.
 File lengths (MBytes):  RWF=     19 Int=      0 D2E=      0 Chk=      3 Scr=      1
 Normal termination of Gaussian 09 at Fri Jul  9 19:24:12 2021.
