 Entering Gaussian System, Link 0=g09
 Initial command:
 /home/minenky/programs//g09/l1.exe "/local/scratch/minenky/m1_00_109278-08-2-C32H16_wB97XD/Gau-417338.inp" -scrdir="/local/scratch/minenky/m1_00_109278-08-2-C32H16_wB97XD/"
 Entering Link 1 = /home/minenky/programs//g09/l1.exe PID=    417339.
  
 Copyright (c) 1988,1990,1992,1993,1995,1998,2003,2009,2013,
            Gaussian, Inc.  All Rights Reserved.
  
 This is part of the Gaussian(R) 09 program.  It is based on
 the Gaussian(R) 03 system (copyright 2003, Gaussian, Inc.),
 the Gaussian(R) 98 system (copyright 1998, Gaussian, Inc.),
 the Gaussian(R) 94 system (copyright 1995, Gaussian, Inc.),
 the Gaussian 92(TM) system (copyright 1992, Gaussian, Inc.),
 the Gaussian 90(TM) system (copyright 1990, Gaussian, Inc.),
 the Gaussian 88(TM) system (copyright 1988, Gaussian, Inc.),
 the Gaussian 86(TM) system (copyright 1986, Carnegie Mellon
 University), and the Gaussian 82(TM) system (copyright 1983,
 Carnegie Mellon University). Gaussian is a federally registered
 trademark of Gaussian, Inc.
  
 This software contains proprietary and confidential information,
 including trade secrets, belonging to Gaussian, Inc.
  
 This software is provided under written license and may be
 used, copied, transmitted, or stored only in accord with that
 written license.
  
 The following legend is applicable only to US Government
 contracts under FAR:
  
                    RESTRICTED RIGHTS LEGEND
  
 Use, reproduction and disclosure by the US Government is
 subject to restrictions as set forth in subparagraphs (a)
 and (c) of the Commercial Computer Software - Restricted
 Rights clause in FAR 52.227-19.
  
 Gaussian, Inc.
 340 Quinnipiac St., Bldg. 40, Wallingford CT 06492
  
  
 ---------------------------------------------------------------
 Warning -- This program may not be used in any manner that
 competes with the business of Gaussian, Inc. or will provide
 assistance to any competitor of Gaussian, Inc.  The licensee
 of this program is prohibited from giving any competitor of
 Gaussian, Inc. access to this program.  By using this program,
 the user acknowledges that Gaussian, Inc. is engaged in the
 business of creating and licensing software in the field of
 computational chemistry and represents and warrants to the
 licensee that it is not a competitor of Gaussian, Inc. and that
 it will not use this program in any manner prohibited above.
 ---------------------------------------------------------------
  

 Cite this work as:
 Gaussian 09, Revision D.01,
 M. J. Frisch, G. W. Trucks, H. B. Schlegel, G. E. Scuseria, 
 M. A. Robb, J. R. Cheeseman, G. Scalmani, V. Barone, B. Mennucci, 
 G. A. Petersson, H. Nakatsuji, M. Caricato, X. Li, H. P. Hratchian, 
 A. F. Izmaylov, J. Bloino, G. Zheng, J. L. Sonnenberg, M. Hada, 
 M. Ehara, K. Toyota, R. Fukuda, J. Hasegawa, M. Ishida, T. Nakajima, 
 Y. Honda, O. Kitao, H. Nakai, T. Vreven, J. A. Montgomery, Jr., 
 J. E. Peralta, F. Ogliaro, M. Bearpark, J. J. Heyd, E. Brothers, 
 K. N. Kudin, V. N. Staroverov, T. Keith, R. Kobayashi, J. Normand, 
 K. Raghavachari, A. Rendell, J. C. Burant, S. S. Iyengar, J. Tomasi, 
 M. Cossi, N. Rega, J. M. Millam, M. Klene, J. E. Knox, J. B. Cross, 
 V. Bakken, C. Adamo, J. Jaramillo, R. Gomperts, R. E. Stratmann, 
 O. Yazyev, A. J. Austin, R. Cammi, C. Pomelli, J. W. Ochterski, 
 R. L. Martin, K. Morokuma, V. G. Zakrzewski, G. A. Voth, 
 P. Salvador, J. J. Dannenberg, S. Dapprich, A. D. Daniels, 
 O. Farkas, J. B. Foresman, J. V. Ortiz, J. Cioslowski, 
 and D. J. Fox, Gaussian, Inc., Wallingford CT, 2013.
 
 ******************************************
 Gaussian 09:  AM64L-G09RevD.01 24-Apr-2013
                27-Jul-2019 
 ******************************************
 %Mem=32000MB
 %NProcShared=16
 Will use up to   16 processors via shared memory.
 %Chk=m1_00_109278-08-2-C32H16_wB97XD
 ----------------------------------------------------------------------
 #P wB97XD/def2tzvp opt=(tight) freq integral(Grid=ultrafine) # SCF(Max
 Cycle=380) 5d 7f GFPrint
 ----------------------------------------------------------------------
 1/7=10,14=-1,18=20,19=15,26=4,38=1/1,3;
 2/9=110,12=2,17=6,18=5,40=1/2;
 3/5=44,7=101,8=11,11=2,16=1,24=100,25=1,30=1,71=1,74=-58,75=-5/1,2,3;
 4//1;
 5/5=2,7=380,38=5/2;
 6/7=2,8=2,9=2,10=2,28=1/1;
 7//1,2,3,16;
 1/7=10,14=-1,18=20,19=15,26=4/3(2);
 2/9=110/2;
 99//99;
 2/9=110/2;
 3/5=44,7=101,8=11,11=2,16=1,25=1,30=1,71=1,74=-58,75=-5/1,2,3;
 4/5=5,16=3,69=1/1;
 5/5=2,7=380,38=5/2;
 7//1,2,3,16;
 1/7=10,14=-1,18=20,19=15,26=4/3(-5);
 2/9=110/2;
 6/7=2,8=2,9=2,10=2,19=2,28=1/1;
 99/9=1/99;
 Leave Link    1 at Sat Jul 27 10:01:39 2019, MaxMem=  4194304000 cpu:         1.5
 (Enter /home/minenky/programs//g09/l101.exe)
 ---------------------------------------
 The PBEPBE optimization and frequencies
 ---------------------------------------
 Symbolic Z-matrix:
 Charge =  0 Multiplicity = 1
 C                    -4.50529  -0.89152   0.13731 
 C                    -5.86697  -0.55823   0.09342 
 C                    -6.26019   0.7451   -0.16261 
 C                    -5.3101    1.73918  -0.3871 
 C                    -3.95121   1.43245  -0.34384 
 C                    -3.53112   0.11012  -0.06837 
 C                    -2.13222  -0.21041  -0.00151 
 C                    -1.15184   0.81896  -0.12732 
 C                    -1.63091   2.13191  -0.49598 
 C                    -2.94361   2.42827  -0.59925 
 C                    -1.74964  -1.54648   0.19958 
 C                    -0.37136  -1.88049   0.16808 
 C                     0.59308  -0.85645   0.08651 
 C                     0.20662   0.51641   0.0604 
 C                     1.97629  -1.23145  -0.02374 
 C                     2.35316  -2.58121  -0.06841 
 C                     1.3538   -3.59415   0.07016 
 C                     0.04786  -3.25081   0.19429 
 C                     2.98264  -0.23001  -0.11521 
 C                     4.32457  -0.59421  -0.28927 
 C                     4.67478  -1.9655   -0.37354 
 C                     3.71488  -2.93299  -0.2535 
 C                     2.62067   1.14651   0.04149 
 C                     3.6432    2.11604   0.08307 
 C                     5.00256   1.72672  -0.15811 
 C                     5.33043   0.42402  -0.3467 
 C                     1.26      1.52294   0.21962 
 C                     1.00378   2.83517   0.60194 
 C                     2.02325   3.79072   0.68201 
 C                     3.32591   3.45259   0.39081 
 C                    -4.07704  -2.23931   0.38208 
 C                    -2.75915  -2.54886   0.39933 
 H                     4.12164   4.20526   0.41978 
 H                    -0.01985   3.1523    0.844 
 H                     1.77141   4.81652   0.97162 
 H                     5.76985   2.50921  -0.17848 
 H                     6.36836   0.12293  -0.52884 
 H                     5.72624  -2.23608  -0.52321 
 H                     3.98395  -3.99452  -0.30061 
 H                     1.66538  -4.64483   0.07119 
 H                    -0.72886  -4.02277   0.30599 
 H                    -3.27392   3.4317   -0.89216 
 H                    -0.88799   2.9103   -0.71956 
 H                    -6.61808  -1.33828   0.26198 
 H                    -7.32525   0.99798  -0.19357 
 H                    -5.63051   2.76517  -0.60047 
 H                    -2.42468  -3.58383   0.568 
 H                    -4.84121  -3.00757   0.5461 
 
 NAtoms=     48 NQM=       48 NQMF=       0 NMMI=      0 NMMIF=      0
                NMic=       0 NMicF=      0.
                    Isotopes and Nuclear Properties:
 (Nuclear quadrupole moments (NQMom) in fm**2, nuclear magnetic moments (NMagM)
  in nuclear magnetons)

  Atom         1           2           3           4           5           6           7           8           9          10
 IAtWgt=          12          12          12          12          12          12          12          12          12          12
 AtmWgt=  12.0000000  12.0000000  12.0000000  12.0000000  12.0000000  12.0000000  12.0000000  12.0000000  12.0000000  12.0000000
 NucSpn=           0           0           0           0           0           0           0           0           0           0
 AtZEff=   0.0000000   0.0000000   0.0000000   0.0000000   0.0000000   0.0000000   0.0000000   0.0000000   0.0000000   0.0000000
 NQMom=    0.0000000   0.0000000   0.0000000   0.0000000   0.0000000   0.0000000   0.0000000   0.0000000   0.0000000   0.0000000
 NMagM=    0.0000000   0.0000000   0.0000000   0.0000000   0.0000000   0.0000000   0.0000000   0.0000000   0.0000000   0.0000000
 AtZNuc=   6.0000000   6.0000000   6.0000000   6.0000000   6.0000000   6.0000000   6.0000000   6.0000000   6.0000000   6.0000000

  Atom        11          12          13          14          15          16          17          18          19          20
 IAtWgt=          12          12          12          12          12          12          12          12          12          12
 AtmWgt=  12.0000000  12.0000000  12.0000000  12.0000000  12.0000000  12.0000000  12.0000000  12.0000000  12.0000000  12.0000000
 NucSpn=           0           0           0           0           0           0           0           0           0           0
 AtZEff=   0.0000000   0.0000000   0.0000000   0.0000000   0.0000000   0.0000000   0.0000000   0.0000000   0.0000000   0.0000000
 NQMom=    0.0000000   0.0000000   0.0000000   0.0000000   0.0000000   0.0000000   0.0000000   0.0000000   0.0000000   0.0000000
 NMagM=    0.0000000   0.0000000   0.0000000   0.0000000   0.0000000   0.0000000   0.0000000   0.0000000   0.0000000   0.0000000
 AtZNuc=   6.0000000   6.0000000   6.0000000   6.0000000   6.0000000   6.0000000   6.0000000   6.0000000   6.0000000   6.0000000

  Atom        21          22          23          24          25          26          27          28          29          30
 IAtWgt=          12          12          12          12          12          12          12          12          12          12
 AtmWgt=  12.0000000  12.0000000  12.0000000  12.0000000  12.0000000  12.0000000  12.0000000  12.0000000  12.0000000  12.0000000
 NucSpn=           0           0           0           0           0           0           0           0           0           0
 AtZEff=   0.0000000   0.0000000   0.0000000   0.0000000   0.0000000   0.0000000   0.0000000   0.0000000   0.0000000   0.0000000
 NQMom=    0.0000000   0.0000000   0.0000000   0.0000000   0.0000000   0.0000000   0.0000000   0.0000000   0.0000000   0.0000000
 NMagM=    0.0000000   0.0000000   0.0000000   0.0000000   0.0000000   0.0000000   0.0000000   0.0000000   0.0000000   0.0000000
 AtZNuc=   6.0000000   6.0000000   6.0000000   6.0000000   6.0000000   6.0000000   6.0000000   6.0000000   6.0000000   6.0000000

  Atom        31          32          33          34          35          36          37          38          39          40
 IAtWgt=          12          12           1           1           1           1           1           1           1           1
 AtmWgt=  12.0000000  12.0000000   1.0078250   1.0078250   1.0078250   1.0078250   1.0078250   1.0078250   1.0078250   1.0078250
 NucSpn=           0           0           1           1           1           1           1           1           1           1
 AtZEff=   0.0000000   0.0000000   0.0000000   0.0000000   0.0000000   0.0000000   0.0000000   0.0000000   0.0000000   0.0000000
 NQMom=    0.0000000   0.0000000   0.0000000   0.0000000   0.0000000   0.0000000   0.0000000   0.0000000   0.0000000   0.0000000
 NMagM=    0.0000000   0.0000000   2.7928460   2.7928460   2.7928460   2.7928460   2.7928460   2.7928460   2.7928460   2.7928460
 AtZNuc=   6.0000000   6.0000000   1.0000000   1.0000000   1.0000000   1.0000000   1.0000000   1.0000000   1.0000000   1.0000000

  Atom        41          42          43          44          45          46          47          48
 IAtWgt=           1           1           1           1           1           1           1           1
 AtmWgt=   1.0078250   1.0078250   1.0078250   1.0078250   1.0078250   1.0078250   1.0078250   1.0078250
 NucSpn=           1           1           1           1           1           1           1           1
 AtZEff=   0.0000000   0.0000000   0.0000000   0.0000000   0.0000000   0.0000000   0.0000000   0.0000000
 NQMom=    0.0000000   0.0000000   0.0000000   0.0000000   0.0000000   0.0000000   0.0000000   0.0000000
 NMagM=    2.7928460   2.7928460   2.7928460   2.7928460   2.7928460   2.7928460   2.7928460   2.7928460
 AtZNuc=   1.0000000   1.0000000   1.0000000   1.0000000   1.0000000   1.0000000   1.0000000   1.0000000
 Leave Link  101 at Sat Jul 27 10:01:40 2019, MaxMem=  4194304000 cpu:         4.7
 (Enter /home/minenky/programs//g09/l103.exe)

 GradGradGradGradGradGradGradGradGradGradGradGradGradGradGradGradGradGrad
 Berny optimization.
 Initialization pass.
                           ----------------------------
                           !    Initial Parameters    !
                           ! (Angstroms and Degrees)  !
 --------------------------                            --------------------------
 ! Name  Definition              Value          Derivative Info.                !
 --------------------------------------------------------------------------------
 ! R1    R(1,2)                  1.4026         estimate D2E/DX2                !
 ! R2    R(1,6)                  1.4123         estimate D2E/DX2                !
 ! R3    R(1,31)                 1.4352         estimate D2E/DX2                !
 ! R4    R(2,3)                  1.3852         estimate D2E/DX2                !
 ! R5    R(2,44)                 1.0959         estimate D2E/DX2                !
 ! R6    R(3,4)                  1.3933         estimate D2E/DX2                !
 ! R7    R(3,45)                 1.0951         estimate D2E/DX2                !
 ! R8    R(4,5)                  1.3937         estimate D2E/DX2                !
 ! R9    R(4,46)                 1.0958         estimate D2E/DX2                !
 ! R10   R(5,6)                  1.4145         estimate D2E/DX2                !
 ! R11   R(5,10)                 1.4395         estimate D2E/DX2                !
 ! R12   R(6,7)                  1.4367         estimate D2E/DX2                !
 ! R13   R(7,8)                  1.4271         estimate D2E/DX2                !
 ! R14   R(7,11)                 1.4042         estimate D2E/DX2                !
 ! R15   R(8,9)                  1.4454         estimate D2E/DX2                !
 ! R16   R(8,14)                 1.4044         estimate D2E/DX2                !
 ! R17   R(9,10)                 1.3497         estimate D2E/DX2                !
 ! R18   R(9,43)                 1.099          estimate D2E/DX2                !
 ! R19   R(10,42)                1.0963         estimate D2E/DX2                !
 ! R20   R(11,12)                1.4185         estimate D2E/DX2                !
 ! R21   R(11,32)                1.4366         estimate D2E/DX2                !
 ! R22   R(12,13)                1.4091         estimate D2E/DX2                !
 ! R23   R(12,18)                1.4333         estimate D2E/DX2                !
 ! R24   R(13,14)                1.4265         estimate D2E/DX2                !
 ! R25   R(13,15)                1.4374         estimate D2E/DX2                !
 ! R26   R(14,27)                1.4656         estimate D2E/DX2                !
 ! R27   R(15,16)                1.4021         estimate D2E/DX2                !
 ! R28   R(15,19)                1.4227         estimate D2E/DX2                !
 ! R29   R(16,17)                1.4297         estimate D2E/DX2                !
 ! R30   R(16,22)                1.4186         estimate D2E/DX2                !
 ! R31   R(17,18)                1.356          estimate D2E/DX2                !
 ! R32   R(17,40)                1.0959         estimate D2E/DX2                !
 ! R33   R(18,41)                1.1008         estimate D2E/DX2                !
 ! R34   R(19,20)                1.4013         estimate D2E/DX2                !
 ! R35   R(19,23)                1.4319         estimate D2E/DX2                !
 ! R36   R(20,21)                1.4178         estimate D2E/DX2                !
 ! R37   R(20,26)                1.4324         estimate D2E/DX2                !
 ! R38   R(21,22)                1.3682         estimate D2E/DX2                !
 ! R39   R(21,38)                1.096          estimate D2E/DX2                !
 ! R40   R(22,39)                1.0961         estimate D2E/DX2                !
 ! R41   R(23,24)                1.4097         estimate D2E/DX2                !
 ! R42   R(23,27)                1.423          estimate D2E/DX2                !
 ! R43   R(24,25)                1.4344         estimate D2E/DX2                !
 ! R44   R(24,30)                1.4077         estimate D2E/DX2                !
 ! R45   R(25,26)                1.3565         estimate D2E/DX2                !
 ! R46   R(25,36)                1.0961         estimate D2E/DX2                !
 ! R47   R(26,37)                1.096          estimate D2E/DX2                !
 ! R48   R(27,28)                1.3906         estimate D2E/DX2                !
 ! R49   R(28,29)                1.3996         estimate D2E/DX2                !
 ! R50   R(28,34)                1.0986         estimate D2E/DX2                !
 ! R51   R(29,30)                1.377          estimate D2E/DX2                !
 ! R52   R(29,35)                1.0952         estimate D2E/DX2                !
 ! R53   R(30,33)                1.0957         estimate D2E/DX2                !
 ! R54   R(31,32)                1.3539         estimate D2E/DX2                !
 ! R55   R(31,48)                1.0959         estimate D2E/DX2                !
 ! R56   R(32,47)                1.1007         estimate D2E/DX2                !
 ! A1    A(2,1,6)              119.7741         estimate D2E/DX2                !
 ! A2    A(2,1,31)             121.2103         estimate D2E/DX2                !
 ! A3    A(6,1,31)             119.0149         estimate D2E/DX2                !
 ! A4    A(1,2,3)              120.3286         estimate D2E/DX2                !
 ! A5    A(1,2,44)             119.4352         estimate D2E/DX2                !
 ! A6    A(3,2,44)             120.2362         estimate D2E/DX2                !
 ! A7    A(2,3,4)              120.498          estimate D2E/DX2                !
 ! A8    A(2,3,45)             119.9056         estimate D2E/DX2                !
 ! A9    A(4,3,45)             119.596          estimate D2E/DX2                !
 ! A10   A(3,4,5)              120.1875         estimate D2E/DX2                !
 ! A11   A(3,4,46)             120.0            estimate D2E/DX2                !
 ! A12   A(5,4,46)             119.8123         estimate D2E/DX2                !
 ! A13   A(4,5,6)              120.0876         estimate D2E/DX2                !
 ! A14   A(4,5,10)             121.6491         estimate D2E/DX2                !
 ! A15   A(6,5,10)             118.2528         estimate D2E/DX2                !
 ! A16   A(1,6,5)              119.1108         estimate D2E/DX2                !
 ! A17   A(1,6,7)              120.4392         estimate D2E/DX2                !
 ! A18   A(5,6,7)              120.4498         estimate D2E/DX2                !
 ! A19   A(6,7,8)              120.2568         estimate D2E/DX2                !
 ! A20   A(6,7,11)             118.9605         estimate D2E/DX2                !
 ! A21   A(8,7,11)             120.7808         estimate D2E/DX2                !
 ! A22   A(7,8,9)              116.7433         estimate D2E/DX2                !
 ! A23   A(7,8,14)             119.8247         estimate D2E/DX2                !
 ! A24   A(9,8,14)             123.3943         estimate D2E/DX2                !
 ! A25   A(8,9,10)             122.7739         estimate D2E/DX2                !
 ! A26   A(8,9,43)             118.1117         estimate D2E/DX2                !
 ! A27   A(10,9,43)            119.1027         estimate D2E/DX2                !
 ! A28   A(5,10,9)             121.0179         estimate D2E/DX2                !
 ! A29   A(5,10,42)            118.0153         estimate D2E/DX2                !
 ! A30   A(9,10,42)            120.9627         estimate D2E/DX2                !
 ! A31   A(7,11,12)            119.0496         estimate D2E/DX2                !
 ! A32   A(7,11,32)            119.494          estimate D2E/DX2                !
 ! A33   A(12,11,32)           121.4384         estimate D2E/DX2                !
 ! A34   A(11,12,13)           119.6833         estimate D2E/DX2                !
 ! A35   A(11,12,18)           120.5917         estimate D2E/DX2                !
 ! A36   A(13,12,18)           119.7155         estimate D2E/DX2                !
 ! A37   A(12,13,14)           121.0021         estimate D2E/DX2                !
 ! A38   A(12,13,15)           118.2617         estimate D2E/DX2                !
 ! A39   A(14,13,15)           120.6904         estimate D2E/DX2                !
 ! A40   A(8,14,13)            118.1552         estimate D2E/DX2                !
 ! A41   A(8,14,27)            124.1807         estimate D2E/DX2                !
 ! A42   A(13,14,27)           117.6616         estimate D2E/DX2                !
 ! A43   A(13,15,16)           120.8144         estimate D2E/DX2                !
 ! A44   A(13,15,19)           120.1321         estimate D2E/DX2                !
 ! A45   A(16,15,19)           119.0426         estimate D2E/DX2                !
 ! A46   A(15,16,17)           119.4122         estimate D2E/DX2                !
 ! A47   A(15,16,22)           120.0599         estimate D2E/DX2                !
 ! A48   A(17,16,22)           120.5276         estimate D2E/DX2                !
 ! A49   A(16,17,18)           120.1772         estimate D2E/DX2                !
 ! A50   A(16,17,40)           118.7262         estimate D2E/DX2                !
 ! A51   A(18,17,40)           121.0964         estimate D2E/DX2                !
 ! A52   A(12,18,17)           121.4738         estimate D2E/DX2                !
 ! A53   A(12,18,41)           117.7721         estimate D2E/DX2                !
 ! A54   A(17,18,41)           120.7495         estimate D2E/DX2                !
 ! A55   A(15,19,20)           120.1606         estimate D2E/DX2                !
 ! A56   A(15,19,23)           119.3955         estimate D2E/DX2                !
 ! A57   A(20,19,23)           120.3651         estimate D2E/DX2                !
 ! A58   A(19,20,21)           119.689          estimate D2E/DX2                !
 ! A59   A(19,20,26)           119.5167         estimate D2E/DX2                !
 ! A60   A(21,20,26)           120.7761         estimate D2E/DX2                !
 ! A61   A(20,21,22)           120.3598         estimate D2E/DX2                !
 ! A62   A(20,21,38)           118.9385         estimate D2E/DX2                !
 ! A63   A(22,21,38)           120.6972         estimate D2E/DX2                !
 ! A64   A(16,22,21)           120.6357         estimate D2E/DX2                !
 ! A65   A(16,22,39)           118.7775         estimate D2E/DX2                !
 ! A66   A(21,22,39)           120.5866         estimate D2E/DX2                !
 ! A67   A(19,23,24)           118.7516         estimate D2E/DX2                !
 ! A68   A(19,23,27)           120.6453         estimate D2E/DX2                !
 ! A69   A(24,23,27)           120.5281         estimate D2E/DX2                !
 ! A70   A(23,24,25)           119.7201         estimate D2E/DX2                !
 ! A71   A(23,24,30)           119.731          estimate D2E/DX2                !
 ! A72   A(25,24,30)           120.5331         estimate D2E/DX2                !
 ! A73   A(24,25,26)           120.8692         estimate D2E/DX2                !
 ! A74   A(24,25,36)           118.2129         estimate D2E/DX2                !
 ! A75   A(26,25,36)           120.9163         estimate D2E/DX2                !
 ! A76   A(20,26,25)           120.4872         estimate D2E/DX2                !
 ! A77   A(20,26,37)           118.4504         estimate D2E/DX2                !
 ! A78   A(25,26,37)           121.0543         estimate D2E/DX2                !
 ! A79   A(14,27,23)           119.4708         estimate D2E/DX2                !
 ! A80   A(14,27,28)           123.0589         estimate D2E/DX2                !
 ! A81   A(23,27,28)           117.4018         estimate D2E/DX2                !
 ! A82   A(27,28,29)           121.7212         estimate D2E/DX2                !
 ! A83   A(27,28,34)           120.3071         estimate D2E/DX2                !
 ! A84   A(29,28,34)           117.9699         estimate D2E/DX2                !
 ! A85   A(28,29,30)           120.6208         estimate D2E/DX2                !
 ! A86   A(28,29,35)           119.1494         estimate D2E/DX2                !
 ! A87   A(30,29,35)           120.2277         estimate D2E/DX2                !
 ! A88   A(24,30,29)           119.5114         estimate D2E/DX2                !
 ! A89   A(24,30,33)           119.6227         estimate D2E/DX2                !
 ! A90   A(29,30,33)           120.8486         estimate D2E/DX2                !
 ! A91   A(1,31,32)            120.4871         estimate D2E/DX2                !
 ! A92   A(1,31,48)            118.4098         estimate D2E/DX2                !
 ! A93   A(32,31,48)           121.1016         estimate D2E/DX2                !
 ! A94   A(11,32,31)           121.5164         estimate D2E/DX2                !
 ! A95   A(11,32,47)           117.6365         estimate D2E/DX2                !
 ! A96   A(31,32,47)           120.8471         estimate D2E/DX2                !
 ! D1    D(6,1,2,3)              0.5923         estimate D2E/DX2                !
 ! D2    D(6,1,2,44)          -179.4998         estimate D2E/DX2                !
 ! D3    D(31,1,2,3)          -179.1019         estimate D2E/DX2                !
 ! D4    D(31,1,2,44)            0.806          estimate D2E/DX2                !
 ! D5    D(2,1,6,5)             -1.3106         estimate D2E/DX2                !
 ! D6    D(2,1,6,7)            178.8209         estimate D2E/DX2                !
 ! D7    D(31,1,6,5)           178.3903         estimate D2E/DX2                !
 ! D8    D(31,1,6,7)            -1.4783         estimate D2E/DX2                !
 ! D9    D(2,1,31,32)          178.8986         estimate D2E/DX2                !
 ! D10   D(2,1,31,48)           -0.6509         estimate D2E/DX2                !
 ! D11   D(6,1,31,32)           -0.7978         estimate D2E/DX2                !
 ! D12   D(6,1,31,48)          179.6526         estimate D2E/DX2                !
 ! D13   D(1,2,3,4)              0.3654         estimate D2E/DX2                !
 ! D14   D(1,2,3,45)          -179.8942         estimate D2E/DX2                !
 ! D15   D(44,2,3,4)          -179.5418         estimate D2E/DX2                !
 ! D16   D(44,2,3,45)            0.1986         estimate D2E/DX2                !
 ! D17   D(2,3,4,5)             -0.5864         estimate D2E/DX2                !
 ! D18   D(2,3,4,46)           179.2857         estimate D2E/DX2                !
 ! D19   D(45,3,4,5)           179.6723         estimate D2E/DX2                !
 ! D20   D(45,3,4,46)           -0.4555         estimate D2E/DX2                !
 ! D21   D(3,4,5,6)             -0.1544         estimate D2E/DX2                !
 ! D22   D(3,4,5,10)           178.6435         estimate D2E/DX2                !
 ! D23   D(46,4,5,6)           179.9733         estimate D2E/DX2                !
 ! D24   D(46,4,5,10)           -1.2289         estimate D2E/DX2                !
 ! D25   D(4,5,6,1)              1.0957         estimate D2E/DX2                !
 ! D26   D(4,5,6,7)           -179.0358         estimate D2E/DX2                !
 ! D27   D(10,5,6,1)          -177.7426         estimate D2E/DX2                !
 ! D28   D(10,5,6,7)             2.126          estimate D2E/DX2                !
 ! D29   D(4,5,10,9)           177.0351         estimate D2E/DX2                !
 ! D30   D(4,5,10,42)           -3.6959         estimate D2E/DX2                !
 ! D31   D(6,5,10,9)            -4.1457         estimate D2E/DX2                !
 ! D32   D(6,5,10,42)          175.1233         estimate D2E/DX2                !
 ! D33   D(1,6,7,8)           -176.101          estimate D2E/DX2                !
 ! D34   D(1,6,7,11)             3.3954         estimate D2E/DX2                !
 ! D35   D(5,6,7,8)              4.0322         estimate D2E/DX2                !
 ! D36   D(5,6,7,11)          -176.4714         estimate D2E/DX2                !
 ! D37   D(6,7,8,9)             -7.9435         estimate D2E/DX2                !
 ! D38   D(6,7,8,14)           174.2142         estimate D2E/DX2                !
 ! D39   D(11,7,8,9)           172.5694         estimate D2E/DX2                !
 ! D40   D(11,7,8,14)           -5.2729         estimate D2E/DX2                !
 ! D41   D(6,7,11,12)          175.4222         estimate D2E/DX2                !
 ! D42   D(6,7,11,32)           -3.0547         estimate D2E/DX2                !
 ! D43   D(8,7,11,12)           -5.0841         estimate D2E/DX2                !
 ! D44   D(8,7,11,32)          176.4389         estimate D2E/DX2                !
 ! D45   D(7,8,9,10)             6.1081         estimate D2E/DX2                !
 ! D46   D(7,8,9,43)          -172.6319         estimate D2E/DX2                !
 ! D47   D(14,8,9,10)         -176.134          estimate D2E/DX2                !
 ! D48   D(14,8,9,43)            5.126          estimate D2E/DX2                !
 ! D49   D(7,8,14,13)           13.2991         estimate D2E/DX2                !
 ! D50   D(7,8,14,27)         -167.2935         estimate D2E/DX2                !
 ! D51   D(9,8,14,13)         -164.3929         estimate D2E/DX2                !
 ! D52   D(9,8,14,27)           15.0144         estimate D2E/DX2                !
 ! D53   D(8,9,10,5)            -0.0617         estimate D2E/DX2                !
 ! D54   D(8,9,10,42)         -179.3091         estimate D2E/DX2                !
 ! D55   D(43,9,10,5)          178.6663         estimate D2E/DX2                !
 ! D56   D(43,9,10,42)          -0.5811         estimate D2E/DX2                !
 ! D57   D(7,11,12,13)           7.0528         estimate D2E/DX2                !
 ! D58   D(7,11,12,18)        -171.8223         estimate D2E/DX2                !
 ! D59   D(32,11,12,13)       -174.501          estimate D2E/DX2                !
 ! D60   D(32,11,12,18)          6.6239         estimate D2E/DX2                !
 ! D61   D(7,11,32,31)           0.8328         estimate D2E/DX2                !
 ! D62   D(7,11,32,47)        -179.1687         estimate D2E/DX2                !
 ! D63   D(12,11,32,31)       -177.6067         estimate D2E/DX2                !
 ! D64   D(12,11,32,47)          2.3918         estimate D2E/DX2                !
 ! D65   D(11,12,13,14)          1.1978         estimate D2E/DX2                !
 ! D66   D(11,12,13,15)       -176.3592         estimate D2E/DX2                !
 ! D67   D(18,12,13,14)       -179.9172         estimate D2E/DX2                !
 ! D68   D(18,12,13,15)          2.5258         estimate D2E/DX2                !
 ! D69   D(11,12,18,17)        175.2901         estimate D2E/DX2                !
 ! D70   D(11,12,18,41)         -3.9338         estimate D2E/DX2                !
 ! D71   D(13,12,18,17)         -3.5847         estimate D2E/DX2                !
 ! D72   D(13,12,18,41)        177.1914         estimate D2E/DX2                !
 ! D73   D(12,13,14,8)         -11.3961         estimate D2E/DX2                !
 ! D74   D(12,13,14,27)        169.1575         estimate D2E/DX2                !
 ! D75   D(15,13,14,8)         166.1016         estimate D2E/DX2                !
 ! D76   D(15,13,14,27)        -13.3448         estimate D2E/DX2                !
 ! D77   D(12,13,15,16)          0.9095         estimate D2E/DX2                !
 ! D78   D(12,13,15,19)        179.6938         estimate D2E/DX2                !
 ! D79   D(14,13,15,16)       -176.6554         estimate D2E/DX2                !
 ! D80   D(14,13,15,19)          2.1289         estimate D2E/DX2                !
 ! D81   D(8,14,27,23)        -163.0208         estimate D2E/DX2                !
 ! D82   D(8,14,27,28)          20.0701         estimate D2E/DX2                !
 ! D83   D(13,14,27,23)         16.3892         estimate D2E/DX2                !
 ! D84   D(13,14,27,28)       -160.5199         estimate D2E/DX2                !
 ! D85   D(13,15,16,17)         -3.3942         estimate D2E/DX2                !
 ! D86   D(13,15,16,22)        176.4265         estimate D2E/DX2                !
 ! D87   D(19,15,16,17)        177.8085         estimate D2E/DX2                !
 ! D88   D(19,15,16,22)         -2.3709         estimate D2E/DX2                !
 ! D89   D(13,15,19,20)       -176.8359         estimate D2E/DX2                !
 ! D90   D(13,15,19,23)          6.3812         estimate D2E/DX2                !
 ! D91   D(16,15,19,20)          1.9698         estimate D2E/DX2                !
 ! D92   D(16,15,19,23)       -174.813          estimate D2E/DX2                !
 ! D93   D(15,16,17,18)          2.4054         estimate D2E/DX2                !
 ! D94   D(15,16,17,40)       -177.7394         estimate D2E/DX2                !
 ! D95   D(22,16,17,18)       -177.4144         estimate D2E/DX2                !
 ! D96   D(22,16,17,40)          2.4408         estimate D2E/DX2                !
 ! D97   D(15,16,22,21)          0.8106         estimate D2E/DX2                !
 ! D98   D(15,16,22,39)       -179.0706         estimate D2E/DX2                !
 ! D99   D(17,16,22,21)       -179.3707         estimate D2E/DX2                !
 ! D100  D(17,16,22,39)          0.748          estimate D2E/DX2                !
 ! D101  D(16,17,18,12)          1.072          estimate D2E/DX2                !
 ! D102  D(16,17,18,41)       -179.727          estimate D2E/DX2                !
 ! D103  D(40,17,18,12)       -178.7798         estimate D2E/DX2                !
 ! D104  D(40,17,18,41)          0.4211         estimate D2E/DX2                !
 ! D105  D(15,19,20,21)         -0.0134         estimate D2E/DX2                !
 ! D106  D(15,19,20,26)       -178.4737         estimate D2E/DX2                !
 ! D107  D(23,19,20,21)        176.738          estimate D2E/DX2                !
 ! D108  D(23,19,20,26)         -1.7223         estimate D2E/DX2                !
 ! D109  D(15,19,23,24)        173.6905         estimate D2E/DX2                !
 ! D110  D(15,19,23,27)         -3.1765         estimate D2E/DX2                !
 ! D111  D(20,19,23,24)         -3.0856         estimate D2E/DX2                !
 ! D112  D(20,19,23,27)       -179.9526         estimate D2E/DX2                !
 ! D113  D(19,20,21,22)         -1.5841         estimate D2E/DX2                !
 ! D114  D(19,20,21,38)        179.1858         estimate D2E/DX2                !
 ! D115  D(26,20,21,22)        176.8565         estimate D2E/DX2                !
 ! D116  D(26,20,21,38)         -2.3737         estimate D2E/DX2                !
 ! D117  D(19,20,26,25)          3.7661         estimate D2E/DX2                !
 ! D118  D(19,20,26,37)       -177.262          estimate D2E/DX2                !
 ! D119  D(21,20,26,25)       -174.6771         estimate D2E/DX2                !
 ! D120  D(21,20,26,37)          4.2948         estimate D2E/DX2                !
 ! D121  D(20,21,22,16)          1.191          estimate D2E/DX2                !
 ! D122  D(20,21,22,39)       -178.93           estimate D2E/DX2                !
 ! D123  D(38,21,22,16)       -179.5926         estimate D2E/DX2                !
 ! D124  D(38,21,22,39)          0.2865         estimate D2E/DX2                !
 ! D125  D(19,23,24,25)          5.9135         estimate D2E/DX2                !
 ! D126  D(19,23,24,30)       -172.6479         estimate D2E/DX2                !
 ! D127  D(27,23,24,25)       -177.2157         estimate D2E/DX2                !
 ! D128  D(27,23,24,30)          4.2229         estimate D2E/DX2                !
 ! D129  D(19,23,27,14)         -8.3019         estimate D2E/DX2                !
 ! D130  D(19,23,27,28)        168.7803         estimate D2E/DX2                !
 ! D131  D(24,23,27,14)        174.8869         estimate D2E/DX2                !
 ! D132  D(24,23,27,28)         -8.0309         estimate D2E/DX2                !
 ! D133  D(23,24,25,26)         -3.9992         estimate D2E/DX2                !
 ! D134  D(23,24,25,36)        176.4458         estimate D2E/DX2                !
 ! D135  D(30,24,25,26)        174.5504         estimate D2E/DX2                !
 ! D136  D(30,24,25,36)         -5.0046         estimate D2E/DX2                !
 ! D137  D(23,24,30,29)          1.6764         estimate D2E/DX2                !
 ! D138  D(23,24,30,33)       -179.8233         estimate D2E/DX2                !
 ! D139  D(25,24,30,29)       -176.8731         estimate D2E/DX2                !
 ! D140  D(25,24,30,33)          1.6272         estimate D2E/DX2                !
 ! D141  D(24,25,26,20)         -0.9094         estimate D2E/DX2                !
 ! D142  D(24,25,26,37)       -179.8543         estimate D2E/DX2                !
 ! D143  D(36,25,26,20)        178.6335         estimate D2E/DX2                !
 ! D144  D(36,25,26,37)         -0.3114         estimate D2E/DX2                !
 ! D145  D(14,27,28,29)       -176.8095         estimate D2E/DX2                !
 ! D146  D(14,27,28,34)          2.7002         estimate D2E/DX2                !
 ! D147  D(23,27,28,29)          6.2215         estimate D2E/DX2                !
 ! D148  D(23,27,28,34)       -174.2688         estimate D2E/DX2                !
 ! D149  D(27,28,29,30)         -0.4935         estimate D2E/DX2                !
 ! D150  D(27,28,29,35)        178.9843         estimate D2E/DX2                !
 ! D151  D(34,28,29,30)        179.9857         estimate D2E/DX2                !
 ! D152  D(34,28,29,35)         -0.5365         estimate D2E/DX2                !
 ! D153  D(28,29,30,24)         -3.5764         estimate D2E/DX2                !
 ! D154  D(28,29,30,33)        177.9422         estimate D2E/DX2                !
 ! D155  D(35,29,30,24)        176.9514         estimate D2E/DX2                !
 ! D156  D(35,29,30,33)         -1.53           estimate D2E/DX2                !
 ! D157  D(1,31,32,11)           1.1356         estimate D2E/DX2                !
 ! D158  D(1,31,32,47)        -178.8629         estimate D2E/DX2                !
 ! D159  D(48,31,32,11)       -179.3271         estimate D2E/DX2                !
 ! D160  D(48,31,32,47)          0.6744         estimate D2E/DX2                !
 --------------------------------------------------------------------------------
 Trust Radius=3.00D-01 FncErr=1.00D-07 GrdErr=1.00D-06
 Number of steps in this run=    288 maximum allowed number of steps=    288.
 GradGradGradGradGradGradGradGradGradGradGradGradGradGradGradGradGradGrad

 Leave Link  103 at Sat Jul 27 10:01:40 2019, MaxMem=  4194304000 cpu:         0.3
 (Enter /home/minenky/programs//g09/l202.exe)
                          Input orientation:                          
 ---------------------------------------------------------------------
 Center     Atomic      Atomic             Coordinates (Angstroms)
 Number     Number       Type             X           Y           Z
 ---------------------------------------------------------------------
      1          6           0       -4.505292   -0.891521    0.137314
      2          6           0       -5.866971   -0.558230    0.093425
      3          6           0       -6.260189    0.745097   -0.162608
      4          6           0       -5.310104    1.739177   -0.387096
      5          6           0       -3.951212    1.432454   -0.343843
      6          6           0       -3.531116    0.110116   -0.068370
      7          6           0       -2.132216   -0.210407   -0.001510
      8          6           0       -1.151842    0.818962   -0.127322
      9          6           0       -1.630913    2.131905   -0.495981
     10          6           0       -2.943611    2.428269   -0.599252
     11          6           0       -1.749635   -1.546484    0.199579
     12          6           0       -0.371363   -1.880486    0.168082
     13          6           0        0.593082   -0.856446    0.086514
     14          6           0        0.206624    0.516409    0.060405
     15          6           0        1.976290   -1.231447   -0.023743
     16          6           0        2.353160   -2.581211   -0.068408
     17          6           0        1.353803   -3.594150    0.070158
     18          6           0        0.047864   -3.250807    0.194286
     19          6           0        2.982635   -0.230012   -0.115207
     20          6           0        4.324568   -0.594214   -0.289275
     21          6           0        4.674781   -1.965505   -0.373537
     22          6           0        3.714883   -2.932992   -0.253503
     23          6           0        2.620667    1.146507    0.041492
     24          6           0        3.643200    2.116039    0.083067
     25          6           0        5.002557    1.726718   -0.158109
     26          6           0        5.330434    0.424022   -0.346703
     27          6           0        1.259998    1.522936    0.219625
     28          6           0        1.003782    2.835171    0.601944
     29          6           0        2.023248    3.790716    0.682010
     30          6           0        3.325905    3.452592    0.390809
     31          6           0       -4.077043   -2.239307    0.382080
     32          6           0       -2.759152   -2.548856    0.399326
     33          1           0        4.121639    4.205261    0.419783
     34          1           0       -0.019847    3.152296    0.844002
     35          1           0        1.771406    4.816518    0.971619
     36          1           0        5.769853    2.509211   -0.178480
     37          1           0        6.368361    0.122927   -0.528838
     38          1           0        5.726242   -2.236081   -0.523212
     39          1           0        3.983952   -3.994523   -0.300609
     40          1           0        1.665384   -4.644829    0.071193
     41          1           0       -0.728864   -4.022767    0.305994
     42          1           0       -3.273922    3.431700   -0.892163
     43          1           0       -0.887990    2.910303   -0.719556
     44          1           0       -6.618085   -1.338280    0.261981
     45          1           0       -7.325246    0.997978   -0.193573
     46          1           0       -5.630510    2.765172   -0.600470
     47          1           0       -2.424678   -3.583830    0.568001
     48          1           0       -4.841211   -3.007571    0.546101
 ---------------------------------------------------------------------
                    Distance matrix (angstroms):
                    1          2          3          4          5
     1  C    0.000000
     2  C    1.402561   0.000000
     3  C    2.418292   1.385220   0.000000
     4  C    2.800589   2.412277   1.393288   0.000000
     5  C    2.437083   2.797169   2.415923   1.393750   0.000000
     6  C    1.412303   2.434970   2.803555   2.433150   1.414547
     7  C    2.472787   3.752117   4.240177   3.748136   2.474859
     8  C    3.773779   4.917095   5.109003   4.266781   2.873973
     9  C    4.219505   5.052565   4.844024   3.701694   2.428202
    10  C    3.741976   4.236155   3.744785   2.473893   1.439493
    11  C    2.833108   4.235607   5.072240   4.880235   3.743837
    12  C    4.250690   5.652932   6.456107   6.148279   4.904380
    13  C    5.098748   6.466936   7.042324   6.466001   5.106356
    14  C    4.918367   6.168022   6.474698   5.668307   4.276699
    15  C    6.492487   7.872972   8.471458   7.877065   6.506466
    16  C    7.066522   8.466947   9.233796   8.803006   7.478668
    17  C    6.452728   7.833066   8.766762   8.547579   7.319926
    18  C    5.128422   6.499647   7.475705   7.344778   6.181838
    19  C    7.521331   8.858148   9.294239   8.527669   7.134024
    20  C    8.845157  10.198785  10.669905   9.913686   8.520498
    21  C    9.256790  10.645516  11.267894  10.650013   9.271179
    22  C    8.478892   9.877842  10.631964  10.163532   8.822373
    23  C    7.412289   8.657298   8.892265   7.964425   6.589373
    24  C    8.685982   9.879026  10.000847   8.973557   7.637056
    25  C    9.866187  11.109946  11.305444  10.315210   8.960528
    26  C    9.935111  11.249017  11.596530  10.721581   9.336267
    27  C    6.250996   7.425690   7.569964   6.601599   5.242365
    28  C    6.667384   7.679909   7.597251   6.484178   5.235847
    29  C    8.052445   9.028583   8.865918   7.689593   6.504455
    30  C    8.958975  10.034147   9.976472   8.838641   7.587958
    31  C    1.435212   2.472485   3.737577   4.235611   3.744946
    32  C    2.421656   3.703338   4.839748   5.051044   4.221864
    33  H   10.024017  11.071119  10.958753   9.782147   8.569860
    34  H    6.080385   6.965646   6.763856   5.612426   4.452467
    35  H    8.524947   9.381042   9.075762   7.839893   6.777218
    36  H   10.827895  12.037391  12.158711  11.108641   9.781914
    37  H   10.941169  12.270066  12.649170  11.790627  10.403973
    38  H   10.340620  11.730217  12.356860  11.731246  10.351011
    39  H    9.049181  10.440501  11.288289  10.920727   9.613572
    40  H    7.222807   8.569548   9.587527   9.466942   8.285636
    41  H    4.908621   6.200673   7.317628   7.393790   6.369085
    42  H    4.611544   4.859509   4.082631   2.695509   2.180909
    43  H    5.317233   6.122247   5.818834   4.586628   3.421772
    44  H    2.163106   1.095930   2.156114   3.406296   3.893096
    45  H    3.410547   2.151910   1.095104   2.155835   3.405211
    46  H    3.896389   3.403293   2.160769   1.095836   2.159176
    47  H    3.429719   4.607478   5.829627   6.129624   5.322111
    48  H    2.181196   2.693765   4.074100   4.860281   4.614967
                    6          7          8          9         10
     6  C    0.000000
     7  C    1.436707   0.000000
     8  C    2.483321   1.427082   0.000000
     9  C    2.807357   2.445861   1.445420   0.000000
    10  C    2.449659   2.824583   2.454185   1.349693   0.000000
    11  C    2.447406   1.404245   2.461616   3.745456   4.226390
    12  C    3.741984   2.432802   2.825496   4.257549   5.076478
    13  C    4.238778   2.802207   2.428472   3.770371   4.875225
    14  C    3.761963   2.449953   1.404354   2.509170   3.743573
    15  C    5.668624   4.233537   3.741672   4.954498   6.158746
    16  C    6.470545   5.073833   4.883614   6.186204   7.309751
    17  C    6.132146   4.858722   5.078662   6.482032   7.428688
    18  C    4.916695   3.746347   4.255084   5.680524   6.467652
    19  C    6.522794   5.116153   4.265489   5.196967   6.513152
    20  C    7.890289   6.474579   5.658123   6.553030   7.877684
    21  C    8.469834   7.039459   6.462462   7.521007   8.797505
    22  C    7.861252   6.454807   6.146388   7.368141   8.555594
    23  C    6.239440   4.942971   3.790462   4.397251   5.745838
    24  C    7.451005   6.226953   4.971831   5.305828   6.629413
    25  C    8.685910   7.394726   6.221061   6.654417   7.989266
    26  C    8.871475   7.497520   6.498000   7.169344   8.517077
    27  C    5.003377   3.815822   2.536321   3.039786   4.377273
    28  C    5.332968   4.412957   3.040336   2.939667   4.146125
    29  C    6.705285   5.808965   4.423521   4.182369   5.307314
    30  C    7.642103   6.585026   5.220602   5.205829   6.429330
    31  C    2.453717   2.836534   4.262546   5.085473   4.902443
    32  C    2.807989   2.453989   3.768687   4.897349   5.079661
    33  H    8.693283   7.667224   6.290942   6.182983   7.356214
    34  H    4.734585   4.060144   2.769356   2.330727   3.339999
    35  H    7.165790   6.438574   5.072821   4.575672   5.513869
    36  H    9.606030   8.358848   7.125266   7.417176   8.723993
    37  H    9.910189   8.523438   7.563011   8.247754   9.593351
    38  H    9.560868   8.132090   7.536448   8.556154   9.845216
    39  H    8.566111   7.198368   7.041026   8.312521   9.451591
    40  H    7.045040   5.838763   6.150543   7.557208   8.468828
    41  H    5.007344   4.074070   4.879448   6.271909   6.880439
    42  H    3.431866   3.919401   3.451754   2.132113   1.096256
    43  H    3.905279   3.435480   2.189536   1.099010   2.114806
    44  H    3.425837   4.632984   5.889402   6.122791   5.332014
    45  H    3.898640   5.335226   6.176354   5.814006   4.626990
    46  H    3.426355   4.631511   4.906126   4.050768   2.707939
    47  H    3.908249   3.433636   4.635533   5.867857   6.146308
    48  H    3.437135   3.932258   5.357919   6.148671   5.870356
                   11         12         13         14         15
    11  C    0.000000
    12  C    1.418514   0.000000
    13  C    2.444843   1.409065   0.000000
    14  C    2.846374   2.467948   1.426451   0.000000
    15  C    3.745883   2.443261   1.437375   2.488734   0.000000
    16  C    4.239741   2.823114   2.469148   3.770870   1.402102
    17  C    3.720351   2.433605   2.841476   4.267647   2.445133
    18  C    2.477044   1.433254   2.458016   3.772936   2.800746
    19  C    4.922050   3.748816   2.478523   2.879969   1.422663
    20  C    6.167799   4.890342   3.759517   4.279394   2.447649
    21  C    6.463526   5.075840   4.254636   5.129584   2.818342
    22  C    5.655850   4.240626   3.764743   4.929988   2.443512
    23  C    5.135828   4.258045   2.850429   2.494991   2.464577
    24  C    6.519994   5.665347   4.258979   3.790697   3.741077
    25  C    7.512249   6.480535   5.116253   4.951118   4.234039
    26  C    7.369443   6.171406   4.926436   5.140787   3.754352
    27  C    4.298795   3.774557   2.474663   1.465621   2.856384
    28  C    5.190578   4.931194   3.749984   2.511052   4.227840
    29  C    6.553861   6.177444   4.898582   3.795735   5.071727
    30  C    7.126601   6.493160   5.111627   4.296540   4.892191
    31  C    2.435188   3.729157   4.879522   5.103651   6.150066
    32  C    1.436584   2.490326   3.768232   4.278615   4.933453
    33  H    8.222099   7.568800   6.179212   5.391115   5.861487
    34  H    5.048364   5.090120   4.125468   2.759206   4.894358
    35  H    7.313110   7.077217   5.861261   4.665811   6.132749
    36  H    8.551859   7.556724   6.180358   5.914206   5.329877
    37  H    8.319819   7.065638   5.889964   6.202341   4.623823
    38  H    7.542328   6.146960   5.350186   6.195400   3.914192
    39  H    6.254367   4.863908   4.636312   5.894662   3.426653
    40  H    4.612871   3.435014   3.937247   5.363439   3.428827
    41  H    2.680537   2.176281   3.438212   4.641075   3.901033
    42  H    5.319555   6.145591   5.856597   4.639020   7.075579
    43  H    4.631435   4.899639   4.126951   2.745405   5.083537
    44  H    4.873299   6.270912   7.229376   7.075109   8.599786
    45  H    6.141359   7.534775   8.137398   7.551522   9.566491
    46  H    5.855907   7.059139   7.233337   6.290138   8.612142
    47  H    2.177659   2.697669   4.096014   4.898303   5.025176
    48  H    3.436960   4.625230   5.862601   6.175352   7.068073
                   16         17         18         19         20
    16  C    0.000000
    17  C    1.429672   0.000000
    18  C    2.414903   1.356012   0.000000
    19  C    2.434454   3.742310   4.223017   0.000000
    20  C    2.807737   4.237246   5.057817   1.401330   0.000000
    21  C    2.421182   3.725352   4.835575   2.437628   1.417811
    22  C    1.418555   2.473173   3.707903   2.803821   2.417205
    23  C    3.738919   4.907096   5.096962   1.431914   2.458209
    24  C    4.873531   6.152054   6.460793   2.445325   2.819286
    25  C    5.058221   6.455784   7.031992   2.812599   2.421486
    26  C    4.239461   5.668604   6.457753   2.448164   1.432434
    27  C    4.256993   5.120128   4.925296   2.480407   3.759374
    28  C    5.622044   6.460764   6.174066   3.718267   4.856189
    29  C    6.424440   7.440347   7.329602   4.209778   5.046492
    30  C    6.128939   7.324519   7.464565   3.733023   4.223326
    31  C    6.455025   5.605977   4.251266   7.356876   8.587440
    32  C    5.133766   4.256452   2.900709   6.213687   7.380642
    33  H    7.030082   8.283355   8.499379   4.610335   4.855811
    34  H    6.271902   6.928224   6.436338   4.623309   5.847614
    35  H    7.493096   8.469142   8.285927   5.302427   6.114287
    36  H    6.131746   7.537529   8.127602   3.908443   3.425255
    37  H    4.862735   6.270666   7.200949   3.429110   2.179168
    38  H    3.421059   4.616781   5.812783   3.423180   2.171438
    39  H    2.170450   2.686160   4.036190   3.899814   3.417345
    40  H    2.179689   1.095907   2.138883   4.610912   4.858877
    41  H    3.423030   2.139353   1.100776   5.323311   6.135675
    42  H    8.276335   8.467849   7.541256   7.290837   8.620238
    43  H    6.409819   6.925113   6.298429   5.020812   6.295835
    44  H    9.062961   8.287143   6.935216   9.671833  10.981765
    45  H   10.319777   9.822580   8.518530  10.381065  11.758503
    46  H    9.623196   9.469496   8.310691   9.131970  10.511227
    47  H    4.923210   3.811151   2.522704   6.399524   7.431356
    48  H    7.233144   6.240896   4.907748   8.328549   9.514917
                   21         22         23         24         25
    21  C    0.000000
    22  C    1.368154   0.000000
    23  C    3.751833   4.233986   0.000000
    24  C    4.234578   5.060744   1.409715   0.000000
    25  C    3.712998   4.835297   2.459652   1.434430   0.000000
    26  C    2.477991   3.726692   2.831169   2.427835   1.356498
    27  C    4.917500   5.109364   1.422972   2.459689   3.767089
    28  C    6.121624   6.430673   2.404165   2.784405   4.218596
    29  C    6.424865   6.996075   2.785501   2.405727   3.720508
    30  C    5.635554   6.429784   2.436681   1.407748   2.468019
    31  C    8.788649   7.848521   7.512593   8.869081   9.922716
    32  C    7.496731   6.518195   6.536528   7.927886   8.878930
    33  H    6.246093   7.181464   3.428119   2.169592   2.693168
    34  H    7.050803   7.223811   3.411675   3.882107   5.316111
    35  H    7.498991   8.082879   3.880124   3.403781   4.611235
    36  H    4.610891   5.817741   3.438419   2.178450   1.096108
    37  H    2.693302   4.056525   3.926602   3.431243   2.138926
    38  H    1.095985   2.145692   4.626596   4.862879   4.044848
    39  H    2.144639   1.096114   5.329706   6.132070   5.812956
    40  H    4.053769   2.690030   5.869670   7.044235   7.196244
    41  H    5.821810   4.609505   6.165283   7.539867   8.131492
    42  H    9.621885   9.474206   6.390618   7.108348   8.482093
    43  H    7.405245   7.453035   4.000106   4.669769   6.034455
    44  H   11.328112  10.468001   9.569603  10.828587  12.025390
    45  H   12.361847  11.719239   9.949799  11.028753  12.349375
    46  H   11.341510  10.951065   8.432919   9.321496  10.692810
    47  H    7.342193   6.228376   6.936051   8.339234   9.159311
    48  H    9.616951   8.593699   8.555151   9.922248  10.945737
                   26         27         28         29         30
    26  C    0.000000
    27  C    4.254032   0.000000
    28  C    5.043162   1.390602   0.000000
    29  C    4.830152   2.437042   1.399567   0.000000
    30  C    3.705982   2.832110   2.412062   1.376969   0.000000
    31  C    9.804339   6.531836   7.184250   8.582813   9.338171
    32  C    8.650778   5.724103   6.571794   7.946158   8.546659
    33  H    4.043076   3.927330   3.410478   2.154961   1.095693
    34  H    6.122643   2.163946   1.098625   2.146638   3.389634
    35  H    5.805056   3.416828   2.156767   1.095248   2.148046
    36  H    2.137617   4.633575   4.840531   4.052129   2.680847
    37  H    1.095958   5.349354   6.116669   5.813677   4.603147
    38  H    2.695175   5.884671   7.020342   7.175445   6.241639
    39  H    4.619380   6.175186   7.506046   8.088254   7.508036
    40  H    6.269010   6.182856   7.527936   8.465199   8.272105
    41  H    7.544206   5.892187   7.079616   8.292529   8.504666
    42  H    9.131188   5.043400   4.570225   5.537772   6.723404
    43  H    6.707414   2.724096   2.308855   3.348854   4.391344
    44  H   12.093110   8.381679   8.696328  10.057617  11.038659
    45  H   12.669613   8.611198   8.566262   9.795936  10.945942
    46  H   11.211052   7.049455   6.742740   7.827931   9.037287
    47  H    8.777319   6.306923   7.277298   8.612838   9.089106
    48  H   10.771967   7.606368   8.264665   9.662089  10.414394
                   31         32         33         34         35
    31  C    0.000000
    32  C    1.353867   0.000000
    33  H   10.428436   9.641774   0.000000
    34  H    6.763401   6.340715   4.294252   0.000000
    35  H    9.183495   8.666153   2.490332   2.448368   0.000000
    36  H   10.946416   9.932866   2.439490   5.914359   4.757517
    37  H   10.747855   9.555700   4.755323   7.202150   6.738929
    38  H    9.844997   8.541124   6.704840   7.995087   8.222798
    39  H    8.278074   6.931761   8.232520   8.271491   9.173242
    40  H    6.233671   4.906861   9.191236   8.014512   9.504689
    41  H    3.794315   2.510616   9.552004   7.230055   9.210178
    42  H    5.867625   6.140032   7.550756   3.698830   5.553984
    43  H    6.156472   5.878398   5.298245   1.804702   3.683221
    44  H    2.698734   4.046693  12.087076   8.002548  10.429223
    45  H    4.621927   5.812124  11.903531   7.686775   9.934184
    46  H    5.331367   6.122352   9.910560   5.806541   7.840144
    47  H    2.138369   1.100679  10.175765   7.157848   9.398717
    48  H    1.095940   2.137038  11.505372   7.828043  10.253006
                   36         37         38         39         40
    36  H    0.000000
    37  H    2.485018   0.000000
    38  H    4.757998   2.444845   0.000000
    39  H    6.745585   4.763495   2.485406   0.000000
    40  H    8.251624   6.723804   4.758777   2.436575   0.000000
    41  H    9.226851   8.261618   6.748942   4.751779   2.484857
    42  H    9.118672  10.200667  10.642500  10.400743   9.516046
    43  H    6.691824   7.775633   8.382833   8.460967   8.014052
    44  H   12.979145  13.092299  12.401813  10.944192   8.921072
    45  H   13.182021  13.725632  13.450247  12.362625  10.618041
    46  H   11.411042  12.286558  12.409445  11.756755  10.420620
    47  H   10.238786   9.605240   8.333347   6.480255   4.254544
    48  H   11.981426  11.688028  10.649398   8.920454   6.726211
                   41         42         43         44         45
    41  H    0.000000
    42  H    7.967558   0.000000
    43  H    7.010317   2.448329   0.000000
    44  H    6.472351   5.938703   7.200545   0.000000
    45  H    8.304800   4.777475   6.735867   2.483084   0.000000
    46  H    8.421635   2.466344   4.746234   4.307835   2.482070
    47  H    1.771186   7.216021   6.796542   4.766634   6.751927
    48  H    4.242602   6.781535   7.228490   2.454494   4.770951
                   46         47         48
    46  H    0.000000
    47  H    7.207809   0.000000
    48  H    5.938197   2.484388   0.000000
 Stoichiometry    C32H16
 Framework group  C1[X(C32H16)]
 Deg. of freedom   138
 Full point group                 C1      NOp   1
 Largest Abelian subgroup         C1      NOp   1
 Largest concise Abelian subgroup C1      NOp   1
                         Standard orientation:                         
 ---------------------------------------------------------------------
 Center     Atomic      Atomic             Coordinates (Angstroms)
 Number     Number       Type             X           Y           Z
 ---------------------------------------------------------------------
      1          6           0        4.514807    0.817636    0.133515
      2          6           0        5.870409    0.460509    0.088992
      3          6           0        6.240564   -0.849705   -0.166272
      4          6           0        5.273061   -1.827163   -0.389348
      5          6           0        3.919779   -1.496649   -0.345441
      6          6           0        3.523097   -0.166942   -0.070736
      7          6           0        2.130072    0.178090   -0.003205
      8          6           0        1.131732   -0.834046   -0.127559
      9          6           0        1.587483   -2.155466   -0.495497
     10          6           0        2.894718   -2.474860   -0.599400
     11          6           0        1.771088    1.520819    0.197081
     12          6           0        0.398858    1.878888    0.166229
     13          6           0       -0.583432    0.871837    0.086106
     14          6           0       -0.221099   -0.507597    0.060825
     15          6           0       -1.959933    1.270924   -0.023536
     16          6           0       -2.313132    2.627048   -0.069017
     17          6           0       -1.296091    3.622433    0.068090
     18          6           0        0.003716    3.256363    0.191628
     19          6           0       -2.983727    0.287201   -0.113546
     20          6           0       -4.319191    0.674718   -0.287015
     21          6           0       -4.645387    2.051868   -0.372129
     22          6           0       -3.668607    3.002485   -0.253492
     23          6           0       -2.645821   -1.095325    0.044001
     24          6           0       -3.685152   -2.046764    0.087016
     25          6           0       -5.037643   -1.633878   -0.153571
     26          6           0       -5.342777   -0.325785   -0.342977
     27          6           0       -1.291835   -1.495394    0.221534
     28          6           0       -1.058387   -2.811617    0.604720
     29          6           0       -2.094380   -3.749095    0.686212
     30          6           0       -3.391111   -3.388431    0.395604
     31          6           0        4.110398    2.172907    0.377501
     32          6           0        2.798143    2.505508    0.395371
     33          1           0       -4.199887   -4.127022    0.425696
     34          1           0       -0.040308   -3.146437    0.846353
     35          1           0       -1.860351   -4.778926    0.976464
     36          1           0       -5.818541   -2.402826   -0.172818
     37          1           0       -6.375393   -0.006697   -0.524665
     38          1           0       -5.692047    2.340705   -0.521324
     39          1           0       -3.919073    4.068529   -0.301258
     40          1           0       -1.589219    4.678410    0.068502
     41          1           0        0.793923    4.014685    0.302214
     42          1           0        3.207204   -3.484151   -0.891737
     43          1           0        0.830889   -2.920904   -0.717968
     44          1           0        6.635185    1.227413    0.256437
     45          1           0        7.301007   -1.121227   -0.197740
     46          1           0        5.575303   -2.858779   -0.602124
     47          1           0        2.481964    3.546313    0.563450
     48          1           0        4.888016    2.927794    0.540411
 ---------------------------------------------------------------------
 Rotational constants (GHZ):      0.2927958      0.1077202      0.0797277
 Leave Link  202 at Sat Jul 27 10:01:40 2019, MaxMem=  4194304000 cpu:         1.8
 (Enter /home/minenky/programs//g09/l301.exe)
 Standard basis: def2TZVP (5D, 7F)
 ======================================================================================================
                                       Pseudopotential Parameters
 ======================================================================================================
  Center     Atomic      Valence      Angular      Power
  Number     Number     Electrons     Momentum     of R      Exponent        Coefficient   SO-Coeffient
 ======================================================================================================
    1          6
                                   No pseudopotential on this center.
    2          6
                                   No pseudopotential on this center.
    3          6
                                   No pseudopotential on this center.
    4          6
                                   No pseudopotential on this center.
    5          6
                                   No pseudopotential on this center.
    6          6
                                   No pseudopotential on this center.
    7          6
                                   No pseudopotential on this center.
    8          6
                                   No pseudopotential on this center.
    9          6
                                   No pseudopotential on this center.
   10          6
                                   No pseudopotential on this center.
   11          6
                                   No pseudopotential on this center.
   12          6
                                   No pseudopotential on this center.
   13          6
                                   No pseudopotential on this center.
   14          6
                                   No pseudopotential on this center.
   15          6
                                   No pseudopotential on this center.
   16          6
                                   No pseudopotential on this center.
   17          6
                                   No pseudopotential on this center.
   18          6
                                   No pseudopotential on this center.
   19          6
                                   No pseudopotential on this center.
   20          6
                                   No pseudopotential on this center.
   21          6
                                   No pseudopotential on this center.
   22          6
                                   No pseudopotential on this center.
   23          6
                                   No pseudopotential on this center.
   24          6
                                   No pseudopotential on this center.
   25          6
                                   No pseudopotential on this center.
   26          6
                                   No pseudopotential on this center.
   27          6
                                   No pseudopotential on this center.
   28          6
                                   No pseudopotential on this center.
   29          6
                                   No pseudopotential on this center.
   30          6
                                   No pseudopotential on this center.
   31          6
                                   No pseudopotential on this center.
   32          6
                                   No pseudopotential on this center.
   33          1
                                   No pseudopotential on this center.
   34          1
                                   No pseudopotential on this center.
   35          1
                                   No pseudopotential on this center.
   36          1
                                   No pseudopotential on this center.
   37          1
                                   No pseudopotential on this center.
   38          1
                                   No pseudopotential on this center.
   39          1
                                   No pseudopotential on this center.
   40          1
                                   No pseudopotential on this center.
   41          1
                                   No pseudopotential on this center.
   42          1
                                   No pseudopotential on this center.
   43          1
                                   No pseudopotential on this center.
   44          1
                                   No pseudopotential on this center.
   45          1
                                   No pseudopotential on this center.
   46          1
                                   No pseudopotential on this center.
   47          1
                                   No pseudopotential on this center.
   48          1
                                   No pseudopotential on this center.
 ======================================================================================================
 Ernie: Thresh=  0.10000D-02 Tol=  0.10000D-05 Strict=F.
 AO basis set (Overlap normalization):
 Atom C1       Shell     1 S   6     bf    1 -     1          8.531749096864          1.545108435874          0.252307664491
      0.1357534968D+05  0.6064550360D-03
      0.2035233368D+04  0.4697908888D-02
      0.4632256236D+03  0.2433247765D-01
      0.1312001960D+03  0.9739996831D-01
      0.4285301589D+02  0.3019558425D+00
      0.1558418577D+02  0.6623360914D+00
 Atom C1       Shell     2 S   2     bf    2 -     2          8.531749096864          1.545108435874          0.252307664491
      0.6206713851D+01  0.6559530854D+00
      0.2576489653D+01  0.3758563329D+00
 Atom C1       Shell     3 S   1     bf    3 -     3          8.531749096864          1.545108435874          0.252307664491
      0.5769633942D+00  0.1000000000D+01
 Atom C1       Shell     4 S   1     bf    4 -     4          8.531749096864          1.545108435874          0.252307664491
      0.2297283136D+00  0.1000000000D+01
 Atom C1       Shell     5 S   1     bf    5 -     5          8.531749096864          1.545108435874          0.252307664491
      0.9516444003D-01  0.1000000000D+01
 Atom C1       Shell     6 P   4     bf    6 -     8          8.531749096864          1.545108435874          0.252307664491
      0.3469723224D+02  0.1132722000D-01
      0.7958262283D+01  0.7616965920D-01
      0.2378082688D+01  0.3019225220D+00
      0.8143320818D+00  0.7278502735D+00
 Atom C1       Shell     7 P   1     bf    9 -    11          8.531749096864          1.545108435874          0.252307664491
      0.2888754725D+00  0.1000000000D+01
 Atom C1       Shell     8 P   1     bf   12 -    14          8.531749096864          1.545108435874          0.252307664491
      0.1005682367D+00  0.1000000000D+01
 Atom C1       Shell     9 D   1     bf   15 -    19          8.531749096864          1.545108435874          0.252307664491
      0.1097000000D+01  0.1000000000D+01
 Atom C1       Shell    10 D   1     bf   20 -    24          8.531749096864          1.545108435874          0.252307664491
      0.3180000000D+00  0.1000000000D+01
 Atom C1       Shell    11 F   1     bf   25 -    31          8.531749096864          1.545108435874          0.252307664491
      0.7610000000D+00  0.1000000000D+01
 Atom C2       Shell    12 S   6     bf   32 -    32         11.093465134782          0.870236575604          0.168169881188
      0.1357534968D+05  0.6064550360D-03
      0.2035233368D+04  0.4697908888D-02
      0.4632256236D+03  0.2433247765D-01
      0.1312001960D+03  0.9739996831D-01
      0.4285301589D+02  0.3019558425D+00
      0.1558418577D+02  0.6623360914D+00
 Atom C2       Shell    13 S   2     bf   33 -    33         11.093465134782          0.870236575604          0.168169881188
      0.6206713851D+01  0.6559530854D+00
      0.2576489653D+01  0.3758563329D+00
 Atom C2       Shell    14 S   1     bf   34 -    34         11.093465134782          0.870236575604          0.168169881188
      0.5769633942D+00  0.1000000000D+01
 Atom C2       Shell    15 S   1     bf   35 -    35         11.093465134782          0.870236575604          0.168169881188
      0.2297283136D+00  0.1000000000D+01
 Atom C2       Shell    16 S   1     bf   36 -    36         11.093465134782          0.870236575604          0.168169881188
      0.9516444003D-01  0.1000000000D+01
 Atom C2       Shell    17 P   4     bf   37 -    39         11.093465134782          0.870236575604          0.168169881188
      0.3469723224D+02  0.1132722000D-01
      0.7958262283D+01  0.7616965920D-01
      0.2378082688D+01  0.3019225220D+00
      0.8143320818D+00  0.7278502735D+00
 Atom C2       Shell    18 P   1     bf   40 -    42         11.093465134782          0.870236575604          0.168169881188
      0.2888754725D+00  0.1000000000D+01
 Atom C2       Shell    19 P   1     bf   43 -    45         11.093465134782          0.870236575604          0.168169881188
      0.1005682367D+00  0.1000000000D+01
 Atom C2       Shell    20 D   1     bf   46 -    50         11.093465134782          0.870236575604          0.168169881188
      0.1097000000D+01  0.1000000000D+01
 Atom C2       Shell    21 D   1     bf   51 -    55         11.093465134782          0.870236575604          0.168169881188
      0.3180000000D+00  0.1000000000D+01
 Atom C2       Shell    22 F   1     bf   56 -    62         11.093465134782          0.870236575604          0.168169881188
      0.7610000000D+00  0.1000000000D+01
 Atom C3       Shell    23 S   6     bf   63 -    63         11.792957753609         -1.605709121982         -0.314208067069
      0.1357534968D+05  0.6064550360D-03
      0.2035233368D+04  0.4697908888D-02
      0.4632256236D+03  0.2433247765D-01
      0.1312001960D+03  0.9739996831D-01
      0.4285301589D+02  0.3019558425D+00
      0.1558418577D+02  0.6623360914D+00
 Atom C3       Shell    24 S   2     bf   64 -    64         11.792957753609         -1.605709121982         -0.314208067069
      0.6206713851D+01  0.6559530854D+00
      0.2576489653D+01  0.3758563329D+00
 Atom C3       Shell    25 S   1     bf   65 -    65         11.792957753609         -1.605709121982         -0.314208067069
      0.5769633942D+00  0.1000000000D+01
 Atom C3       Shell    26 S   1     bf   66 -    66         11.792957753609         -1.605709121982         -0.314208067069
      0.2297283136D+00  0.1000000000D+01
 Atom C3       Shell    27 S   1     bf   67 -    67         11.792957753609         -1.605709121982         -0.314208067069
      0.9516444003D-01  0.1000000000D+01
 Atom C3       Shell    28 P   4     bf   68 -    70         11.792957753609         -1.605709121982         -0.314208067069
      0.3469723224D+02  0.1132722000D-01
      0.7958262283D+01  0.7616965920D-01
      0.2378082688D+01  0.3019225220D+00
      0.8143320818D+00  0.7278502735D+00
 Atom C3       Shell    29 P   1     bf   71 -    73         11.792957753609         -1.605709121982         -0.314208067069
      0.2888754725D+00  0.1000000000D+01
 Atom C3       Shell    30 P   1     bf   74 -    76         11.792957753609         -1.605709121982         -0.314208067069
      0.1005682367D+00  0.1000000000D+01
 Atom C3       Shell    31 D   1     bf   77 -    81         11.792957753609         -1.605709121982         -0.314208067069
      0.1097000000D+01  0.1000000000D+01
 Atom C3       Shell    32 D   1     bf   82 -    86         11.792957753609         -1.605709121982         -0.314208067069
      0.3180000000D+00  0.1000000000D+01
 Atom C3       Shell    33 F   1     bf   87 -    93         11.792957753609         -1.605709121982         -0.314208067069
      0.7610000000D+00  0.1000000000D+01
 Atom C4       Shell    34 S   6     bf   94 -    94          9.964640829632         -3.452837464628         -0.735761413728
      0.1357534968D+05  0.6064550360D-03
      0.2035233368D+04  0.4697908888D-02
      0.4632256236D+03  0.2433247765D-01
      0.1312001960D+03  0.9739996831D-01
      0.4285301589D+02  0.3019558425D+00
      0.1558418577D+02  0.6623360914D+00
 Atom C4       Shell    35 S   2     bf   95 -    95          9.964640829632         -3.452837464628         -0.735761413728
      0.6206713851D+01  0.6559530854D+00
      0.2576489653D+01  0.3758563329D+00
 Atom C4       Shell    36 S   1     bf   96 -    96          9.964640829632         -3.452837464628         -0.735761413728
      0.5769633942D+00  0.1000000000D+01
 Atom C4       Shell    37 S   1     bf   97 -    97          9.964640829632         -3.452837464628         -0.735761413728
      0.2297283136D+00  0.1000000000D+01
 Atom C4       Shell    38 S   1     bf   98 -    98          9.964640829632         -3.452837464628         -0.735761413728
      0.9516444003D-01  0.1000000000D+01
 Atom C4       Shell    39 P   4     bf   99 -   101          9.964640829632         -3.452837464628         -0.735761413728
      0.3469723224D+02  0.1132722000D-01
      0.7958262283D+01  0.7616965920D-01
      0.2378082688D+01  0.3019225220D+00
      0.8143320818D+00  0.7278502735D+00
 Atom C4       Shell    40 P   1     bf  102 -   104          9.964640829632         -3.452837464628         -0.735761413728
      0.2888754725D+00  0.1000000000D+01
 Atom C4       Shell    41 P   1     bf  105 -   107          9.964640829632         -3.452837464628         -0.735761413728
      0.1005682367D+00  0.1000000000D+01
 Atom C4       Shell    42 D   1     bf  108 -   112          9.964640829632         -3.452837464628         -0.735761413728
      0.1097000000D+01  0.1000000000D+01
 Atom C4       Shell    43 D   1     bf  113 -   117          9.964640829632         -3.452837464628         -0.735761413728
      0.3180000000D+00  0.1000000000D+01
 Atom C4       Shell    44 F   1     bf  118 -   124          9.964640829632         -3.452837464628         -0.735761413728
      0.7610000000D+00  0.1000000000D+01
 Atom C5       Shell    45 S   6     bf  125 -   125          7.407309600090         -2.828257034861         -0.652788950675
      0.1357534968D+05  0.6064550360D-03
      0.2035233368D+04  0.4697908888D-02
      0.4632256236D+03  0.2433247765D-01
      0.1312001960D+03  0.9739996831D-01
      0.4285301589D+02  0.3019558425D+00
      0.1558418577D+02  0.6623360914D+00
 Atom C5       Shell    46 S   2     bf  126 -   126          7.407309600090         -2.828257034861         -0.652788950675
      0.6206713851D+01  0.6559530854D+00
      0.2576489653D+01  0.3758563329D+00
 Atom C5       Shell    47 S   1     bf  127 -   127          7.407309600090         -2.828257034861         -0.652788950675
      0.5769633942D+00  0.1000000000D+01
 Atom C5       Shell    48 S   1     bf  128 -   128          7.407309600090         -2.828257034861         -0.652788950675
      0.2297283136D+00  0.1000000000D+01
 Atom C5       Shell    49 S   1     bf  129 -   129          7.407309600090         -2.828257034861         -0.652788950675
      0.9516444003D-01  0.1000000000D+01
 Atom C5       Shell    50 P   4     bf  130 -   132          7.407309600090         -2.828257034861         -0.652788950675
      0.3469723224D+02  0.1132722000D-01
      0.7958262283D+01  0.7616965920D-01
      0.2378082688D+01  0.3019225220D+00
      0.8143320818D+00  0.7278502735D+00
 Atom C5       Shell    51 P   1     bf  133 -   135          7.407309600090         -2.828257034861         -0.652788950675
      0.2888754725D+00  0.1000000000D+01
 Atom C5       Shell    52 P   1     bf  136 -   138          7.407309600090         -2.828257034861         -0.652788950675
      0.1005682367D+00  0.1000000000D+01
 Atom C5       Shell    53 D   1     bf  139 -   143          7.407309600090         -2.828257034861         -0.652788950675
      0.1097000000D+01  0.1000000000D+01
 Atom C5       Shell    54 D   1     bf  144 -   148          7.407309600090         -2.828257034861         -0.652788950675
      0.3180000000D+00  0.1000000000D+01
 Atom C5       Shell    55 F   1     bf  149 -   155          7.407309600090         -2.828257034861         -0.652788950675
      0.7610000000D+00  0.1000000000D+01
 Atom C6       Shell    56 S   6     bf  156 -   156          6.657689147492         -0.315473962823         -0.133670768683
      0.1357534968D+05  0.6064550360D-03
      0.2035233368D+04  0.4697908888D-02
      0.4632256236D+03  0.2433247765D-01
[...]
 10350,-0.07522001,0.00819808,-0.02241768,0.00967827,-0.00134412,-0.003
 28131,-0.00251917,0.00275351,-0.00035325,-0.00104349,0.00003702,-0.000
 02691,0.00005387,-0.00028173,0.00031597,-0.00018969,0.00010757,-0.0003
 8528,-0.00017877,-0.00000818,-0.00057617,0.00075810,-0.00018192,-0.000
 41326,-0.00010059,0.00008258,0.00025929,0.00002029,0.00000299,-0.00001
 684,-0.00020851,0.00002685,-0.00019418,0.00018066,-0.00002350,-0.00004
 262,0.00000890,-0.00000416,-0.00005652,-0.00003874,0.00000852,0.000074
 99,0.00002235,-0.00000581,-0.00004900,0.00005388,-0.00001121,0.0000333
 5,-0.00000599,-0.00000426,-0.00001994,0.00003593,0.00000423,-0.0000116
 8,-0.00004465,-0.00000007,0.00004897,0.00001376,-0.00000676,0.00000627
 ,0.00002065,-0.00000227,0.00000347,-0.00002113,-0.00000415,-0.00000649
 ,0.00001048,0.00000134,-0.00000782,-0.00001229,-0.00000016,0.00001084,
 0.00001839,0.00000103,-0.00000682,-0.00002972,-0.00001319,0.00002602,0
 .00001448,-0.00000848,-0.00001741,0.00002184,0.00000956,0.00115411,0.0
 0059948,-0.00013039,0.00032694,-0.00046152,-0.00001355,-0.00000036,0.0
 0000042,0.00000153,-0.00000298,0.00000165,0.00001230,0.00000016,0.0000
 0122,-0.00000082,0.00000032,0.00000080,0.00000061,0.00000138,-0.000000
 23,0.,0.00000132,-0.00000050,-0.00000026,0.00000026,-0.00000058,0.0000
 0019,0.00000276,-0.00000101,0.00000043,-0.00000596,0.00001526,0.000000
 14,0.00001132,-0.00002200,0.00001345,-0.00009670,0.00002402,-0.0000250
 1,-0.00044132,0.00055013,-0.00116100,-0.07039470,0.07434762,-0.0001341
 3,0.00320336,0.00735045,-0.00741342,0.00098104,0.00262730,-0.01020025,
 0.00842293,-0.03956168,0.00612713,-0.00210469,0.00296569,0.00103510,0.
 00271859,0.00686247,0.00008735,0.00021084,-0.00093058,0.00002391,-0.00
 015173,-0.00080396,-0.00011072,0.00007264,0.00004187,0.00011510,-0.000
 14120,-0.00033029,0.00009415,-0.00013617,0.00022320,0.00013457,0.00001
 847,0.00006406,-0.00010606,0.00000549,0.00005530,0.00001582,0.00009859
 ,-0.00001607,0.00008479,-0.00006307,0.00005925,0.00001611,-0.00000376,
 0.00000675,0.00001502,0.00001452,-0.00000036,-0.00002021,-0.00000731,0
 .00000899,0.00001295,-0.00002368,-0.00000098,-0.00000626,0.00000187,0.
 00000161,0.00000411,-0.00000730,-0.00000202,0.00000225,0.00001176,-0.0
 0000055,-0.00001186,-0.00000520,-0.00000433,-0.00000218,-0.00000412,-0
 .00000056,-0.00000103,0.00000027,0.00000024,0.00000072,-0.00000208,-0.
 00000090,0.00000311,0.00000078,-0.00000106,0.00000487,-0.00001616,0.00
 000024,-0.00001224,-0.00000195,-0.00000803,-0.00000224,-0.00000063,-0.
 00000257,0.00000185,-0.00000279,-0.00000073,-0.00028992,-0.00011451,0.
 00022413,-0.00012675,-0.00000528,-0.00043943,0.00000020,-0.00000012,0.
 00000063,-0.00000346,-0.00000161,0.00000083,-0.00000067,-0.00000157,0.
 00000131,0.00000020,-0.00000023,0.00000058,0.00000005,-0.00000010,0.00
 000049,0.00000023,-0.00000012,0.00000179,0.00000023,-0.00000017,0.0000
 0082,-0.00000061,0.,0.00000154,0.00000026,-0.00000222,-0.00000819,0.00
 000485,0.00003925,0.00006020,0.00002768,-0.00000938,-0.00001398,0.0000
 0948,-0.00117422,-0.00379971,0.01084023,-0.01072585,0.02875659,-0.0012
 3838,-0.00019479,0.00007684,-0.00265561,-0.00322759,0.00102594,0.01057
 915,-0.02149006,0.00556497,-0.08205510,0.07227371,-0.01832245,-0.00404
 892,0.02933574,-0.00769873,-0.00560143,0.00010355,0.00013378,0.0004128
 5,0.00152968,-0.00035755,0.00000652,0.00017101,-0.00002637,0.00015186,
 -0.00045011,0.00013853,0.00129775,0.00162536,-0.00077478,-0.00025721,0
 .00004118,-0.00004290,-0.00014037,0.00015793,-0.00001067,-0.00000483,0
 .00017565,-0.00002940,0.00015022,-0.00021646,0.00006770,0.00004144,-0.
 00002338,0.00000075,0.00003207,0.00002550,-0.00000410,-0.00005187,-0.0
 0000976,0.00000553,-0.00002187,-0.00004872,0.00001327,-0.00002258,0.00
 001150,0.00000503,0.00001928,-0.00002208,-0.00000496,-0.00000522,0.000
 03421,0.00000180,-0.00002811,-0.00001547,0.00000354,-0.00001171,-0.000
 00811,-0.00000260,-0.00000350,0.00001878,0.00000717,0.00000052,-0.0000
 1253,-0.00000103,0.00000745,0.00000729,0.00000009,-0.00001835,0.000004
 23,-0.00000969,0.00000210,0.00001515,0.00001810,-0.00001083,-0.0000205
 8,0.00001027,0.00001481,-0.00001063,-0.00000449,0.00036868,-0.00020012
 ,0.00001411,-0.00029440,-0.00013654,0.00003487,0.00000076,0.00000022,-
 0.00000358,-0.00000104,0.00000866,-0.00002520,-0.00000458,-0.00000284,
 -0.00000291,-0.00000020,0.00000019,-0.00000050,0.00000018,-0.00000084,
 -0.00000034,0.00000061,-0.00000004,0.00000004,-0.00000076,-0.00000041,
 0.00000031,-0.00000698,0.00000220,-0.00000071,0.00000421,-0.00000402,-
 0.00000103,-0.00045418,-0.00098583,0.00042906,-0.00002623,-0.00000551,
 0.00001356,0.00029455,-0.00106516,0.00023683,0.00080918,0.00042910,-0.
 00020036,0.08277415,-0.00027250,0.00045395,-0.00037231,-0.00396439,-0.
 00055564,0.00216053,0.00896798,-0.01546764,0.00460496,0.07278694,-0.29
 906500,0.06919833,0.00009165,-0.00446607,0.00206463,0.00105858,0.00176
 871,0.00143550,-0.00031999,-0.00030163,0.00010536,-0.00020835,0.000163
 93,-0.00001571,0.00037034,0.00007937,-0.00003712,-0.00171123,0.0005606
 2,-0.00124531,0.00023634,-0.00004166,-0.00002949,-0.00011880,-0.000022
 43,0.00001477,0.00002973,0.00007932,0.00000572,0.00009903,-0.00003163,
 -0.00002682,-0.00000296,0.00000732,0.00000481,0.00002973,0.00000203,-0
 .00000594,-0.00002133,-0.00001591,0.00000218,0.00004673,-0.00001144,-0
 .00003930,-0.00000265,-0.00000882,0.00000090,0.00001273,-0.00002141,-0
 .00000398,0.00001642,0.00001768,-0.00000290,-0.00002196,0.00000731,0.0
 0000216,0.00000563,0.00000113,0.00000509,0.00000066,0.00001702,0.00000
 424,0.00000549,-0.00000091,-0.00000238,-0.00000501,0.00000415,0.000001
 11,-0.00001386,-0.00003800,0.00000387,0.00001825,0.00002766,0.00001676
 ,-0.00001543,-0.00001315,-0.00000255,0.00001716,-0.00000113,-0.0000071
 4,0.00003058,-0.00006997,-0.00024006,0.00001823,0.00001707,0.00001847,
 0.00000399,0.00000093,0.00000103,0.00000351,-0.00000919,-0.00000340,0.
 00000075,0.00000456,0.00000306,0.00000217,0.00000265,0.00000061,0.0000
 0326,-0.00000115,0.00000002,0.00000375,0.00000063,0.00000040,0.0000005
 5,-0.00000352,0.00000046,0.00000565,-0.00000409,0.00000579,-0.00000541
 ,0.00000506,0.00000362,0.00062524,0.00035042,-0.00008407,0.00004159,0.
 00000259,0.00005734,0.00042154,-0.00086163,0.00023842,-0.00035251,0.00
 047382,-0.00112647,-0.07791134,0.31695526,0.00034472,-0.00048627,-0.00
 086456,0.00109971,0.00226438,0.00651678,-0.00276456,0.00488567,0.00149
 731,-0.01788610,0.06938907,-0.05430872,-0.00017084,0.00175568,0.002803
 96,-0.00009344,0.00121599,0.00649830,0.00020445,0.00011287,0.00012849,
 0.00006313,-0.00012768,0.00016322,-0.00028338,0.00007497,-0.00015289,0
 .00032554,-0.00162815,-0.00364740,-0.00018874,-0.00019581,-0.00006325,
 0.00011990,0.00000173,0.00001726,-0.00003311,-0.00010368,0.00003356,-0
 .00015335,0.00006297,0.00000424,-0.00001260,-0.00000510,-0.00000473,-0
 .00002194,-0.00001040,-0.00000906,0.00002001,0.00000222,-0.00000367,-0
 .00002363,0.00001204,-0.00013379,0.00001889,-0.00000049,-0.00000522,-0
 .00001780,0.00001043,0.00000375,-0.00001060,-0.00001456,-0.00000124,0.
 00001827,-0.00000229,-0.00000103,-0.00002411,0.00001338,-0.00000524,-0
 .00000224,0.00001001,0.00000622,0.00000124,-0.00000679,-0.00000165,0.0
 0000588,0.00000567,-0.00000072,0.00005394,0.00005941,-0.00000025,0.000
 01569,-0.00001464,0.00002449,-0.00000566,-0.00000618,0.00000465,0.0000
 0841,-0.00000639,-0.00000619,-0.00017187,-0.00007557,-0.00092546,0.000
 17976,0.00010284,0.00007396,-0.00000034,-0.00000003,-0.00000053,0.0000
 0675,0.00000948,0.00000093,-0.00000360,-0.00000420,0.00000171,-0.00000
 022,-0.00000048,0.00000082,-0.00000005,-0.00000016,0.00000068,-0.00000
 027,-0.00000065,0.00000048,0.00000032,0.00000050,0.00000186,0.00000252
 ,0.00000048,0.00002466,0.00000347,-0.00000378,0.00000553,-0.00018628,0
 .00016046,0.00017920,-0.00004078,0.00007743,0.00022651,-0.00012915,0.0
 0030707,0.00006307,-0.00002030,-0.00112556,-0.00345969,0.01973645,-0.0
 7674759,0.04518434,-0.00564046,0.00013016,0.00088228,0.00051045,0.0012
 0689,-0.00034027,-0.00042890,0.00024089,-0.00010538,-0.00021032,-0.000
 14093,0.00004472,0.00025287,-0.00011522,-0.00003772,-0.00071147,-0.000
 08022,0.00001503,-0.00360258,-0.00247433,0.00093968,0.00072998,-0.0009
 1229,0.00013940,-0.00033068,-0.00015912,-0.00001728,-0.00000067,0.0000
 2415,-0.00000347,0.01095695,-0.02020299,0.00443768,0.00040367,0.000849
 85,-0.00025694,0.00009069,0.00007924,-0.00015646,0.00010444,-0.0000529
 2,0.00004511,0.00016060,0.00005851,0.00001036,0.00006376,0.00003753,0.
 00001900,-0.00007867,0.00023578,-0.00006487,-0.00282368,-0.00051686,0.
 00054482,-0.00003793,-0.00006177,-0.00000230,0.00003732,-0.00002614,-0
 .00001264,0.00002622,0.00006637,-0.00000543,-0.00005727,0.00006166,0.0
 0001654,0.00000680,-0.00002998,-0.00000882,0.00000049,0.00001164,-0.00
 000514,0.00004295,0.00000790,-0.00000484,-0.00002297,0.00002652,0.0000
 1035,0.00000928,0.00007259,0.00001155,-0.00000257,0.00000677,-0.000005
 77,-0.00001913,0.00001153,0.00001586,-0.00000864,-0.00003211,-0.000005
 72,-0.00470290,0.03186797,-0.00720877,-0.07651144,0.06698470,-0.014783
 44,0.00000162,0.00000240,-0.00000025,-0.00000207,0.00000894,-0.0000008
 0,-0.00000177,0.00000105,0.00000179,-0.00000068,0.00000383,0.00000032,
 0.00000504,0.00000124,-0.00000060,0.00001063,0.00000592,-0.00000169,-0
 .00000637,-0.00000289,0.00000095,-0.00001173,-0.00000069,0.00000237,-0
 .00478767,0.00154520,0.00164816,0.00001738,0.00001040,0.00000034,0.000
 03650,-0.00010259,0.00004746,-0.00004086,-0.00003635,0.00002581,-0.000
 04178,0.00014057,-0.00003244,0.00000849,0.00001375,0.00000541,0.085895
 10,0.00122484,0.00211772,0.00201307,-0.00015750,-0.00036250,0.00010580
 ,0.00024093,-0.00005532,-0.00017236,-0.00002375,0.00007706,0.00000926,
 -0.00001198,-0.00006009,-0.00015653,-0.00033388,0.00044306,-0.00027600
 ,-0.00368190,-0.00052881,0.00114249,0.00091520,-0.00063744,0.00016079,
 -0.00037088,-0.00014884,0.00000643,0.00005585,0.00003120,-0.00000069,0
 .00680829,-0.01602857,0.00402194,0.00157264,-0.00073942,-0.00066723,-0
 .00022036,-0.00021719,-0.00003868,-0.00009635,0.00009331,0.00002057,0.
 00011884,-0.00005368,-0.00001028,0.00012184,-0.00004386,0.00003061,0.0
 0014701,0.00081235,-0.00012505,0.00131597,-0.00077803,-0.00041040,-0.0
 0005304,-0.00004172,0.00000356,-0.00000535,0.00001791,0.00000287,0.000
 01574,-0.00001470,-0.00000418,0.00003363,0.00009660,0.00001597,0.00000
 803,-0.00003277,-0.00000958,0.00000200,-0.00002646,-0.00001832,0.00002
 652,0.00001777,0.00000034,-0.00001933,0.00001175,0.00000400,0.00003963
 ,0.00009818,0.00001617,-0.00003107,-0.00002161,-0.00002303,-0.00000612
 ,0.00003549,0.00001574,-0.00003807,-0.00003347,0.00000072,-0.00017728,
 -0.00417834,0.00216069,0.06862906,-0.31216033,0.06418101,-0.00000372,0
 .00000046,0.00000078,0.00000123,0.00001174,0.00001232,-0.00000124,-0.0
 0000722,0.00000147,-0.00000356,-0.00000072,0.00000066,-0.00000239,0.00
 000259,0.00000072,0.00000492,0.00000748,-0.00000397,-0.00000967,0.0000
 0195,0.00000175,-0.00000712,-0.00001374,-0.00000629,0.00231207,0.00138
 433,-0.00042771,0.00001061,-0.00001494,0.00000874,0.00004462,-0.000101
 90,0.00003471,0.00002737,0.00001832,0.00004522,0.00000609,-0.00003715,
 0.00000270,0.00001473,-0.00001133,0.00002533,-0.07854811,0.33038649,0.
 00074176,0.00178760,0.01010793,-0.00017762,0.00007903,0.00003007,-0.00
 001334,-0.00036268,-0.00070483,0.00011955,0.00009540,0.00008748,-0.000
 15646,-0.00003816,-0.00070414,0.00042693,-0.00030615,-0.00078404,0.000
 96229,0.00120359,0.00376675,-0.00020303,0.00033133,0.00004913,0.000136
 65,0.00001969,0.00000778,0.00000277,-0.00004330,0.00004476,-0.00363546
 ,0.00400332,0.00174641,0.00006288,-0.00060738,-0.00176460,-0.00010897,
 -0.00026023,-0.00002845,-0.00011007,0.00010428,-0.00008712,-0.00001314
 ,-0.00005984,0.00004123,-0.00004837,0.00006876,0.00000819,-0.00023620,
 -0.00034416,-0.00021682,0.00053502,0.00067451,0.00004614,0.00001886,-0
 .00000023,-0.00000132,-0.00000936,-0.00000476,0.00000502,-0.00001072,-
 0.00000768,-0.00000471,0.00000105,-0.00004313,0.00004300,0.00000224,0.
 00002728,0.00001546,-0.00000819,-0.00001038,-0.00000877,-0.00001419,-0
 .00000966,0.00000206,0.00000979,-0.00000474,-0.00000262,-0.00003077,-0
 .00004574,0.00002834,-0.00000102,0.00000248,0.00000920,0.00001183,-0.0
 0000747,-0.00001847,0.00000236,0.00002271,0.00000700,0.00017994,0.0005
 6440,0.00451649,-0.01395434,0.06533617,-0.05272866,0.00000070,-0.00000
 090,0.00000172,0.00000372,-0.00000702,0.00000355,0.00000057,-0.0000001
 8,0.00000088,0.00000096,-0.00000070,0.00000041,-0.00000011,-0.00000079
 ,0.00000054,-0.00000531,-0.00000389,-0.00000724,0.00000791,-0.00000150
 ,0.00000600,0.00002633,0.00000547,0.00003979,0.00141757,-0.00066415,0.
 00065435,-0.00000367,0.00000943,0.00001564,-0.00001077,0.00002057,-0.0
 0003229,0.00000241,0.00005721,0.00022140,-0.00000224,-0.00000963,-0.00
 001657,0.00000294,0.00002588,0.00008838,0.01448184,-0.07005082,0.04110
 252,0.00839451,0.00716327,-0.00196011,0.00121848,0.00128407,-0.0004377
 8,-0.00000056,-0.00047252,0.00009233,0.00032047,0.00011320,-0.00003816
 ,0.00022571,0.00045056,-0.00008463,-0.00012891,0.00203697,-0.00030438,
 -0.00021511,0.00042265,-0.00015851,0.00019984,-0.00002942,-0.00003930,
 -0.00004415,-0.00000907,0.00000091,-0.00005187,0.00011013,-0.00003415,
 -0.00414399,0.00347431,0.00010205,-0.00021612,-0.00149629,0.00021705,-
 0.00043276,0.00015472,0.00000648,-0.00007844,0.00014366,0.00001696,-0.
 00005347,-0.00015225,-0.00002052,-0.00004733,-0.00001267,0.00000655,0.
 00005254,0.00006890,0.00000301,-0.00002274,-0.00003148,-0.00002430,-0.
 00003040,0.00004232,0.00000233,-0.00002629,0.00001698,0.00000817,-0.00
 002556,-0.00003291,0.00000147,0.00004526,-0.00000628,-0.00000389,-0.00
 000509,0.00000562,-0.00000532,0.00000229,-0.00002103,-0.00000449,-0.00
 000810,0.00000234,0.00000181,0.00000093,-0.00000436,-0.00000123,0.0000
 2492,0.00002285,0.00001296,-0.00001531,-0.00002140,-0.00000917,0.00001
 324,0.00000810,-0.00000093,-0.00001643,0.00000444,0.00000325,-0.193013
 21,-0.13356556,0.03981572,-0.01703490,-0.02338523,0.00671874,-0.000003
 72,-0.00000213,0.00000026,0.00000227,0.00000307,0.00000456,0.00000026,
 -0.00000513,-0.00000062,-0.00000235,-0.00000373,0.00000012,-0.00000584
 ,0.00000003,0.00000099,-0.00000614,-0.00000118,0.00000010,-0.00000413,
 0.00000735,0.00000153,-0.00002839,0.00001355,0.00000102,-0.00000660,0.
 00000686,0.00001177,0.00003805,0.00001995,-0.00001256,0.00000479,-0.00
 001700,0.00000903,-0.00011119,-0.00037809,0.00012821,0.00000999,-0.000
 02896,0.00001250,-0.00001257,-0.00002022,0.00001055,0.00071198,0.00010
 504,-0.00040552,0.20452612,-0.02212689,-0.01569796,0.00539224,-0.00178
 560,0.00110369,-0.00077862,0.00030497,0.00001009,-0.00006080,0.0001068
 5,0.00009617,-0.00002686,-0.00161175,-0.00042570,0.00009850,0.00341792
 ,-0.00370452,0.00186912,0.00079033,-0.00011817,-0.00020239,-0.00007306
 ,-0.00004254,-0.00014194,-0.00003883,0.00003159,-0.00001853,0.00036077
 ,-0.00034644,0.00010715,0.00228683,0.00080591,0.00208833,0.00006257,0.
 00037116,-0.00004870,0.00004778,0.00009819,-0.00019762,0.00008425,-0.0
 0006056,0.00001894,0.00004079,0.00002203,-0.00000119,0.00000370,0.0000
 1498,0.00001997,-0.00003826,-0.00003154,-0.00001522,0.00000516,-0.0000
 2772,0.00008128,-0.00000509,0.00000108,-0.00000309,0.00001001,-0.00000
 343,-0.00000223,-0.00000864,0.00001737,-0.00000182,-0.00001099,-0.0000
 1016,0.00000081,0.00000001,-0.00000334,-0.00000562,-0.00000543,0.00000
 313,0.00000326,0.00000255,-0.00000250,-0.00000180,0.00000006,0.0000009
 6,0.00000344,-0.00003407,0.00000944,0.00001953,0.00000681,-0.00000220,
 -0.00001478,0.00000193,0.00000390,-0.00000672,0.00000103,0.00000781,0.
 00000128,-0.13483029,-0.19303685,0.04461487,0.00795893,0.00910138,-0.0
 0167022,-0.00000172,-0.00000113,0.00000179,0.00000159,0.00000621,0.000
 01472,0.00000165,0.00000047,0.00000125,-0.00000095,-0.00000090,0.00000
 033,-0.00000041,0.00000054,0.00000019,-0.00000054,-0.00000024,0.000000
 49,-0.00000053,0.00000136,0.00000133,0.00000136,0.00000175,-0.00000439
 ,0.00001032,-0.00001194,-0.00000216,-0.00010822,-0.00011461,0.00004232
 ,-0.00000910,0.00000498,0.00000538,0.00128271,-0.00001882,0.00004828,0
 .00002465,-0.00002925,0.00003061,0.00007735,0.00002015,0.00000636,-0.0
 0021844,0.00068437,-0.00154383,0.14401596,0.20127181,0.00529991,0.0038
 7369,0.00165041,0.00021487,-0.00074362,-0.00185232,-0.00010218,-0.0001
 2100,-0.00015226,0.00001304,-0.00000589,-0.00001699,0.00035529,0.00012
 435,0.00004318,-0.00076586,0.00188245,0.00361768,-0.00027256,-0.000328
 77,-0.00082914,0.00023772,-0.00003885,-0.00074256,-0.00002984,-0.00000
 439,0.00004008,-0.00006960,0.00006565,0.00002684,-0.00028899,0.0016626
 8,0.00969200,0.00010453,-0.00021214,0.00018526,-0.00012815,0.00004781,
 -0.00076035,-0.00001299,0.00007451,0.00011053,-0.00002075,-0.00003951,
 -0.00003356,-0.00004806,-0.00003714,0.00008547,0.00007916,0.00002313,-
 0.00005827,0.00004235,-0.00001981,0.00022519,0.00001307,0.00000423,-0.
 00002146,-0.00001085,0.00002904,0.00000685,-0.00001743,-0.00003785,-0.
 00001477,0.00004748,0.00001313,-0.00000543,0.00000833,0.00001101,-0.00
 001607,0.00000404,-0.00001700,-0.00000919,-0.00000906,0.00000761,-0.00
 000026,-0.00000538,-0.00001310,0.00001357,-0.00004455,-0.00000284,0.00
 013484,-0.00001428,-0.00000344,-0.00001783,0.00002536,0.00000852,-0.00
 001336,-0.00001740,0.00002136,0.00000570,0.03989350,0.04475781,-0.0495
 9459,-0.00031124,0.00022260,0.00422727,0.00000106,-0.00000060,0.000003
 43,0.00000270,-0.00000477,0.00000771,0.00000044,0.00000048,0.00000043,
 0.00000001,0.00000074,-0.00000050,0.00000084,-0.00000082,0.00000024,0.
 00000117,-0.00000048,0.00000091,0.00000043,-0.00000068,0.00000440,-0.0
 0000208,-0.00000077,-0.00001809,0.00003779,0.00002746,0.00003516,0.000
 02150,0.00000831,-0.00003020,0.00002256,0.00001501,0.00001515,-0.00030
 422,0.00008308,0.00021300,-0.00000388,0.00003080,0.00008590,-0.0000171
 4,0.00000654,0.00004091,-0.00028579,-0.00164530,-0.00558695,-0.0436448
 7,-0.04972322,0.03930204\\0.00000050,-0.00000005,-0.00000008,-0.000000
 24,-0.00000002,-0.00000003,-0.00000024,-0.00000064,0.00000021,0.000000
 37,-0.00000019,0.00000014,-0.00000072,-0.00000029,0.00000025,-0.000000
 35,-0.00000017,0.00000015,0.00000031,-0.00000025,0.00000008,0.00000047
 ,-0.00000039,0.00000016,-0.00000020,0.00000008,0.00000035,0.00000014,0
 .00000002,0.00000011,-0.00000052,0.00000021,-0.00000015,0.00000087,0.0
 0000006,-0.00000014,0.00000022,-0.00000013,0.00000005,-0.00000034,0.00
 000045,-0.00000003,-0.00000023,-0.00000023,-0.00000013,-0.00000014,0.0
 0000051,-0.00000022,0.00000036,-0.00000010,-0.00000043,0.00000001,0.00
 000015,-0.00000021,0.00000044,0.00000035,-0.00000001,-0.00000028,0.000
 00064,0.,-0.00000002,-0.00000010,-0.00000037,0.00000054,0.00000033,-0.
 00000030,-0.00000038,0.,0.00000012,-0.00000018,0.,0.00000019,-0.000000
 18,0.00000021,-0.00000010,0.,0.00000021,-0.00000008,-0.00000009,-0.000
 00003,0.00000012,-0.00000004,-0.00000047,0.00000020,-0.00000014,0.0000
 0018,0.00000038,-0.00000005,0.00000027,0.00000020,-0.00000007,-0.00000
 035,-0.00000004,0.00000037,-0.00000020,-0.00000021,-0.00000013,0.00000
 016,0.00000031,-0.00000009,0.00000004,0.00000040,-0.00000035,0.0000000
 2,0.00000034,-0.00000012,0.00000044,0.00000018,0.00000001,0.00000035,-
 0.00000012,0.00000015,0.00000039,-0.00000033,0.00000012,0.00000016,-0.
 00000045,0.00000026,0.00000008,-0.00000048,0.00000015,-0.00000013,-0.0
 0000042,-0.00000013,-0.00000002,0.00000031,-0.00000023,0.00000008,0.00
 000013,0.00000008,-0.00000047,0.00000002,-0.00000007,-0.00000037,0.000
 00014,-0.00000012,-0.00000017,0.00000029,0.00000014,-0.00000030,-0.000
 00025,0.00000011,-0.00000033,-0.00000025\\\@


 I DO NOT DEFINE TIME, SPACE, PLACE, AND MOTION, AS BEING WELL KNOWN TO ALL.
                                            -- NEWTON (1642-1726), PRINCIPIA
 Job cpu time:       7 days 10 hours 39 minutes 21.6 seconds.
 File lengths (MBytes):  RWF=   4421 Int=      0 D2E=      0 Chk=     85 Scr=      1
 Normal termination of Gaussian 09 at Sun Jul 28 04:42:09 2019.
