 Entering Gaussian System, Link 0=g09
 Initial command:
 /home/minenky/programs//g09/l1.exe "/local/scratch/minenky/m1_00_120836-13-7-C32H16_wB97XD/Gau-6730.inp" -scrdir="/local/scratch/minenky/m1_00_120836-13-7-C32H16_wB97XD/"
 Entering Link 1 = /home/minenky/programs//g09/l1.exe PID=      6731.
  
 Copyright (c) 1988,1990,1992,1993,1995,1998,2003,2009,2013,
            Gaussian, Inc.  All Rights Reserved.
  
 This is part of the Gaussian(R) 09 program.  It is based on
 the Gaussian(R) 03 system (copyright 2003, Gaussian, Inc.),
 the Gaussian(R) 98 system (copyright 1998, Gaussian, Inc.),
 the Gaussian(R) 94 system (copyright 1995, Gaussian, Inc.),
 the Gaussian 92(TM) system (copyright 1992, Gaussian, Inc.),
 the Gaussian 90(TM) system (copyright 1990, Gaussian, Inc.),
 the Gaussian 88(TM) system (copyright 1988, Gaussian, Inc.),
 the Gaussian 86(TM) system (copyright 1986, Carnegie Mellon
 University), and the Gaussian 82(TM) system (copyright 1983,
 Carnegie Mellon University). Gaussian is a federally registered
 trademark of Gaussian, Inc.
  
 This software contains proprietary and confidential information,
 including trade secrets, belonging to Gaussian, Inc.
  
 This software is provided under written license and may be
 used, copied, transmitted, or stored only in accord with that
 written license.
  
 The following legend is applicable only to US Government
 contracts under FAR:
  
                    RESTRICTED RIGHTS LEGEND
  
 Use, reproduction and disclosure by the US Government is
 subject to restrictions as set forth in subparagraphs (a)
 and (c) of the Commercial Computer Software - Restricted
 Rights clause in FAR 52.227-19.
  
 Gaussian, Inc.
 340 Quinnipiac St., Bldg. 40, Wallingford CT 06492
  
  
 ---------------------------------------------------------------
 Warning -- This program may not be used in any manner that
 competes with the business of Gaussian, Inc. or will provide
 assistance to any competitor of Gaussian, Inc.  The licensee
 of this program is prohibited from giving any competitor of
 Gaussian, Inc. access to this program.  By using this program,
 the user acknowledges that Gaussian, Inc. is engaged in the
 business of creating and licensing software in the field of
 computational chemistry and represents and warrants to the
 licensee that it is not a competitor of Gaussian, Inc. and that
 it will not use this program in any manner prohibited above.
 ---------------------------------------------------------------
  

 Cite this work as:
 Gaussian 09, Revision D.01,
 M. J. Frisch, G. W. Trucks, H. B. Schlegel, G. E. Scuseria, 
 M. A. Robb, J. R. Cheeseman, G. Scalmani, V. Barone, B. Mennucci, 
 G. A. Petersson, H. Nakatsuji, M. Caricato, X. Li, H. P. Hratchian, 
 A. F. Izmaylov, J. Bloino, G. Zheng, J. L. Sonnenberg, M. Hada, 
 M. Ehara, K. Toyota, R. Fukuda, J. Hasegawa, M. Ishida, T. Nakajima, 
 Y. Honda, O. Kitao, H. Nakai, T. Vreven, J. A. Montgomery, Jr., 
 J. E. Peralta, F. Ogliaro, M. Bearpark, J. J. Heyd, E. Brothers, 
 K. N. Kudin, V. N. Staroverov, T. Keith, R. Kobayashi, J. Normand, 
 K. Raghavachari, A. Rendell, J. C. Burant, S. S. Iyengar, J. Tomasi, 
 M. Cossi, N. Rega, J. M. Millam, M. Klene, J. E. Knox, J. B. Cross, 
 V. Bakken, C. Adamo, J. Jaramillo, R. Gomperts, R. E. Stratmann, 
 O. Yazyev, A. J. Austin, R. Cammi, C. Pomelli, J. W. Ochterski, 
 R. L. Martin, K. Morokuma, V. G. Zakrzewski, G. A. Voth, 
 P. Salvador, J. J. Dannenberg, S. Dapprich, A. D. Daniels, 
 O. Farkas, J. B. Foresman, J. V. Ortiz, J. Cioslowski, 
 and D. J. Fox, Gaussian, Inc., Wallingford CT, 2013.
 
 ******************************************
 Gaussian 09:  AM64L-G09RevD.01 24-Apr-2013
                27-Jul-2019 
 ******************************************
 %Mem=32000MB
 %NProcShared=16
 Will use up to   16 processors via shared memory.
 %Chk=m1_00_120836-13-7-C32H16_wB97XD
 ----------------------------------------------------------------------
 #P wB97XD/def2tzvp opt=(tight) freq integral(Grid=ultrafine) # SCF(Max
 Cycle=380) 5d 7f GFPrint
 ----------------------------------------------------------------------
 1/7=10,14=-1,18=20,19=15,26=4,38=1/1,3;
 2/9=110,12=2,17=6,18=5,40=1/2;
 3/5=44,7=101,8=11,11=2,16=1,24=100,25=1,30=1,71=1,74=-58,75=-5/1,2,3;
 4//1;
 5/5=2,7=380,38=5/2;
 6/7=2,8=2,9=2,10=2,28=1/1;
 7//1,2,3,16;
 1/7=10,14=-1,18=20,19=15,26=4/3(2);
 2/9=110/2;
 99//99;
 2/9=110/2;
 3/5=44,7=101,8=11,11=2,16=1,25=1,30=1,71=1,74=-58,75=-5/1,2,3;
 4/5=5,16=3,69=1/1;
 5/5=2,7=380,38=5/2;
 7//1,2,3,16;
 1/7=10,14=-1,18=20,19=15,26=4/3(-5);
 2/9=110/2;
 6/7=2,8=2,9=2,10=2,19=2,28=1/1;
 99/9=1/99;
 Leave Link    1 at Sat Jul 27 13:37:15 2019, MaxMem=  4194304000 cpu:         1.1
 (Enter /home/minenky/programs//g09/l101.exe)
 ---------------------------------------
 The PBEPBE optimization and frequencies
 ---------------------------------------
 Symbolic Z-matrix:
 Charge =  0 Multiplicity = 1
 C                     0.51002   1.82542   0. 
 C                    -0.46819  -3.15873   0. 
 C                    -1.71857  -2.5171    0. 
 C                    -4.14413  -2.64898   0. 
 C                    -2.93624  -3.27207   0. 
 C                    -4.23134  -1.22144   0. 
 C                    -5.58015   0.79198   0. 
 C                    -5.50044  -0.56616   0. 
 C                    -4.39698   1.59592   0. 
 C                    -2.06563   3.14076   0. 
 C                    -3.32452   3.7611    0. 
 C                    -4.47448   3.00681   0. 
 C                    -1.95383   1.76026   0. 
 C                    -3.13531   0.97006   0. 
 C                    -3.0628   -0.45982   0. 
 C                    -1.78348  -1.10687   0. 
 C                    -0.59597  -0.34178   0. 
 C                    -0.6468    1.10429   0. 
 C                     1.79896   1.18909   0. 
 C                     2.96573   1.93091   0. 
 C                     3.10424  -0.88879   0. 
 C                     1.86488  -0.23711   0. 
 C                     0.64792  -0.99454   0. 
 C                     0.70508  -2.41652   0. 
 C                     1.99531  -3.05613   0. 
 C                     3.13484  -2.32688   0. 
 C                     4.2248    1.29063   0. 
 C                     4.30435  -0.12048   0. 
 C                     5.5882   -0.73495   0. 
 C                     6.72589   0.02179   0. 
 C                     6.64434   1.43563   0. 
 C                     5.42701   2.05589   0. 
 H                     0.46619   2.92696   0. 
 H                    -0.4243   -4.25488   0. 
 H                    -5.07479  -3.22802   0. 
 H                    -2.86903  -4.36611   0. 
 H                    -6.55287   1.29717   0. 
 H                    -6.40707  -1.18206   0. 
 H                    -1.1503    3.75268   0. 
 H                    -3.38084   4.8547    0. 
 H                    -5.45873   3.48858   0. 
 H                     2.92305   3.02715   0. 
 H                     2.02761  -4.15174   0. 
 H                     4.12424  -2.81      0. 
 H                     5.63346  -1.83481   0. 
 H                     7.71171  -0.45453   0. 
 H                     7.56928   2.02151   0. 
 H                     5.35463   3.14949   0. 
 
 NAtoms=     48 NQM=       48 NQMF=       0 NMMI=      0 NMMIF=      0
                NMic=       0 NMicF=      0.
                    Isotopes and Nuclear Properties:
 (Nuclear quadrupole moments (NQMom) in fm**2, nuclear magnetic moments (NMagM)
  in nuclear magnetons)

  Atom         1           2           3           4           5           6           7           8           9          10
 IAtWgt=          12          12          12          12          12          12          12          12          12          12
 AtmWgt=  12.0000000  12.0000000  12.0000000  12.0000000  12.0000000  12.0000000  12.0000000  12.0000000  12.0000000  12.0000000
 NucSpn=           0           0           0           0           0           0           0           0           0           0
 AtZEff=   0.0000000   0.0000000   0.0000000   0.0000000   0.0000000   0.0000000   0.0000000   0.0000000   0.0000000   0.0000000
 NQMom=    0.0000000   0.0000000   0.0000000   0.0000000   0.0000000   0.0000000   0.0000000   0.0000000   0.0000000   0.0000000
 NMagM=    0.0000000   0.0000000   0.0000000   0.0000000   0.0000000   0.0000000   0.0000000   0.0000000   0.0000000   0.0000000
 AtZNuc=   6.0000000   6.0000000   6.0000000   6.0000000   6.0000000   6.0000000   6.0000000   6.0000000   6.0000000   6.0000000

  Atom        11          12          13          14          15          16          17          18          19          20
 IAtWgt=          12          12          12          12          12          12          12          12          12          12
 AtmWgt=  12.0000000  12.0000000  12.0000000  12.0000000  12.0000000  12.0000000  12.0000000  12.0000000  12.0000000  12.0000000
 NucSpn=           0           0           0           0           0           0           0           0           0           0
 AtZEff=   0.0000000   0.0000000   0.0000000   0.0000000   0.0000000   0.0000000   0.0000000   0.0000000   0.0000000   0.0000000
 NQMom=    0.0000000   0.0000000   0.0000000   0.0000000   0.0000000   0.0000000   0.0000000   0.0000000   0.0000000   0.0000000
 NMagM=    0.0000000   0.0000000   0.0000000   0.0000000   0.0000000   0.0000000   0.0000000   0.0000000   0.0000000   0.0000000
 AtZNuc=   6.0000000   6.0000000   6.0000000   6.0000000   6.0000000   6.0000000   6.0000000   6.0000000   6.0000000   6.0000000

  Atom        21          22          23          24          25          26          27          28          29          30
 IAtWgt=          12          12          12          12          12          12          12          12          12          12
 AtmWgt=  12.0000000  12.0000000  12.0000000  12.0000000  12.0000000  12.0000000  12.0000000  12.0000000  12.0000000  12.0000000
 NucSpn=           0           0           0           0           0           0           0           0           0           0
 AtZEff=   0.0000000   0.0000000   0.0000000   0.0000000   0.0000000   0.0000000   0.0000000   0.0000000   0.0000000   0.0000000
 NQMom=    0.0000000   0.0000000   0.0000000   0.0000000   0.0000000   0.0000000   0.0000000   0.0000000   0.0000000   0.0000000
 NMagM=    0.0000000   0.0000000   0.0000000   0.0000000   0.0000000   0.0000000   0.0000000   0.0000000   0.0000000   0.0000000
 AtZNuc=   6.0000000   6.0000000   6.0000000   6.0000000   6.0000000   6.0000000   6.0000000   6.0000000   6.0000000   6.0000000

  Atom        31          32          33          34          35          36          37          38          39          40
 IAtWgt=          12          12           1           1           1           1           1           1           1           1
 AtmWgt=  12.0000000  12.0000000   1.0078250   1.0078250   1.0078250   1.0078250   1.0078250   1.0078250   1.0078250   1.0078250
 NucSpn=           0           0           1           1           1           1           1           1           1           1
 AtZEff=   0.0000000   0.0000000   0.0000000   0.0000000   0.0000000   0.0000000   0.0000000   0.0000000   0.0000000   0.0000000
 NQMom=    0.0000000   0.0000000   0.0000000   0.0000000   0.0000000   0.0000000   0.0000000   0.0000000   0.0000000   0.0000000
 NMagM=    0.0000000   0.0000000   2.7928460   2.7928460   2.7928460   2.7928460   2.7928460   2.7928460   2.7928460   2.7928460
 AtZNuc=   6.0000000   6.0000000   1.0000000   1.0000000   1.0000000   1.0000000   1.0000000   1.0000000   1.0000000   1.0000000

  Atom        41          42          43          44          45          46          47          48
 IAtWgt=           1           1           1           1           1           1           1           1
 AtmWgt=   1.0078250   1.0078250   1.0078250   1.0078250   1.0078250   1.0078250   1.0078250   1.0078250
 NucSpn=           1           1           1           1           1           1           1           1
 AtZEff=   0.0000000   0.0000000   0.0000000   0.0000000   0.0000000   0.0000000   0.0000000   0.0000000
 NQMom=    0.0000000   0.0000000   0.0000000   0.0000000   0.0000000   0.0000000   0.0000000   0.0000000
 NMagM=    2.7928460   2.7928460   2.7928460   2.7928460   2.7928460   2.7928460   2.7928460   2.7928460
 AtZNuc=   1.0000000   1.0000000   1.0000000   1.0000000   1.0000000   1.0000000   1.0000000   1.0000000
 Leave Link  101 at Sat Jul 27 13:37:16 2019, MaxMem=  4194304000 cpu:         4.3
 (Enter /home/minenky/programs//g09/l103.exe)

 GradGradGradGradGradGradGradGradGradGradGradGradGradGradGradGradGradGrad
 Berny optimization.
 Initialization pass.
                           ----------------------------
                           !    Initial Parameters    !
                           ! (Angstroms and Degrees)  !
 --------------------------                            --------------------------
 ! Name  Definition              Value          Derivative Info.                !
 --------------------------------------------------------------------------------
 ! R1    R(1,18)                 1.3632         estimate D2E/DX2                !
 ! R2    R(1,19)                 1.4375         estimate D2E/DX2                !
 ! R3    R(1,33)                 1.1024         estimate D2E/DX2                !
 ! R4    R(2,3)                  1.4054         estimate D2E/DX2                !
 ! R5    R(2,24)                 1.3883         estimate D2E/DX2                !
 ! R6    R(2,34)                 1.097          estimate D2E/DX2                !
 ! R7    R(3,5)                  1.4327         estimate D2E/DX2                !
 ! R8    R(3,16)                 1.4117         estimate D2E/DX2                !
 ! R9    R(4,5)                  1.3591         estimate D2E/DX2                !
 ! R10   R(4,6)                  1.4302         estimate D2E/DX2                !
 ! R11   R(4,35)                 1.0961         estimate D2E/DX2                !
 ! R12   R(5,36)                 1.0961         estimate D2E/DX2                !
 ! R13   R(6,8)                  1.4283         estimate D2E/DX2                !
 ! R14   R(6,15)                 1.3948         estimate D2E/DX2                !
 ! R15   R(7,8)                  1.3605         estimate D2E/DX2                !
 ! R16   R(7,9)                  1.4305         estimate D2E/DX2                !
 ! R17   R(7,37)                 1.0961         estimate D2E/DX2                !
 ! R18   R(8,38)                 1.096          estimate D2E/DX2                !
 ! R19   R(9,12)                 1.413          estimate D2E/DX2                !
 ! R20   R(9,14)                 1.4084         estimate D2E/DX2                !
 ! R21   R(10,11)                1.4034         estimate D2E/DX2                !
 ! R22   R(10,13)                1.385          estimate D2E/DX2                !
 ! R23   R(10,39)                1.101          estimate D2E/DX2                !
 ! R24   R(11,12)                1.3753         estimate D2E/DX2                !
 ! R25   R(11,40)                1.095          estimate D2E/DX2                !
 ! R26   R(12,41)                1.0958         estimate D2E/DX2                !
 ! R27   R(13,14)                1.4214         estimate D2E/DX2                !
 ! R28   R(13,18)                1.4624         estimate D2E/DX2                !
 ! R29   R(14,15)                1.4317         estimate D2E/DX2                !
 ! R30   R(15,16)                1.4336         estimate D2E/DX2                !
 ! R31   R(16,17)                1.4126         estimate D2E/DX2                !
 ! R32   R(17,18)                1.447          estimate D2E/DX2                !
 ! R33   R(17,23)                1.4048         estimate D2E/DX2                !
 ! R34   R(19,20)                1.3826         estimate D2E/DX2                !
 ! R35   R(19,22)                1.4277         estimate D2E/DX2                !
 ! R36   R(20,27)                1.4125         estimate D2E/DX2                !
 ! R37   R(20,42)                1.0971         estimate D2E/DX2                !
 ! R38   R(21,22)                1.4002         estimate D2E/DX2                !
 ! R39   R(21,26)                1.4384         estimate D2E/DX2                !
 ! R40   R(21,28)                1.425          estimate D2E/DX2                !
 ! R41   R(22,23)                1.4334         estimate D2E/DX2                !
 ! R42   R(23,24)                1.4231         estimate D2E/DX2                !
 ! R43   R(24,25)                1.4401         estimate D2E/DX2                !
 ! R44   R(25,26)                1.3529         estimate D2E/DX2                !
 ! R45   R(25,43)                1.0961         estimate D2E/DX2                !
 ! R46   R(26,44)                1.1011         estimate D2E/DX2                !
 ! R47   R(27,28)                1.4133         estimate D2E/DX2                !
 ! R48   R(27,32)                1.4251         estimate D2E/DX2                !
 ! R49   R(28,29)                1.4233         estimate D2E/DX2                !
 ! R50   R(29,30)                1.3664         estimate D2E/DX2                !
 ! R51   R(29,45)                1.1008         estimate D2E/DX2                !
 ! R52   R(30,31)                1.4162         estimate D2E/DX2                !
 ! R53   R(30,46)                1.0949         estimate D2E/DX2                !
 ! R54   R(31,32)                1.3662         estimate D2E/DX2                !
 ! R55   R(31,47)                1.0949         estimate D2E/DX2                !
 ! R56   R(32,48)                1.096          estimate D2E/DX2                !
 ! A1    A(18,1,19)            121.7871         estimate D2E/DX2                !
 ! A2    A(18,1,33)            119.6597         estimate D2E/DX2                !
 ! A3    A(19,1,33)            118.5533         estimate D2E/DX2                !
 ! A4    A(3,2,24)             120.5178         estimate D2E/DX2                !
 ! A5    A(3,2,34)             119.4581         estimate D2E/DX2                !
 ! A6    A(24,2,34)            120.0241         estimate D2E/DX2                !
 ! A7    A(2,3,5)              121.0357         estimate D2E/DX2                !
 ! A8    A(2,3,16)             119.8001         estimate D2E/DX2                !
 ! A9    A(5,3,16)             119.1642         estimate D2E/DX2                !
 ! A10   A(5,4,6)              120.7829         estimate D2E/DX2                !
 ! A11   A(5,4,35)             120.8238         estimate D2E/DX2                !
 ! A12   A(6,4,35)             118.3933         estimate D2E/DX2                !
 ! A13   A(3,5,4)              120.9135         estimate D2E/DX2                !
 ! A14   A(3,5,36)             118.2839         estimate D2E/DX2                !
 ! A15   A(4,5,36)             120.8025         estimate D2E/DX2                !
 ! A16   A(4,6,8)              120.8048         estimate D2E/DX2                !
 ! A17   A(4,6,15)             119.5992         estimate D2E/DX2                !
 ! A18   A(8,6,15)             119.596          estimate D2E/DX2                !
 ! A19   A(8,7,9)              120.8363         estimate D2E/DX2                !
 ! A20   A(8,7,37)             120.8047         estimate D2E/DX2                !
 ! A21   A(9,7,37)             118.359          estimate D2E/DX2                !
 ! A22   A(6,8,7)              120.6678         estimate D2E/DX2                !
 ! A23   A(6,8,38)             118.5017         estimate D2E/DX2                !
 ! A24   A(7,8,38)             120.8306         estimate D2E/DX2                !
 ! A25   A(7,9,12)             121.0512         estimate D2E/DX2                !
 ! A26   A(7,9,14)             119.4207         estimate D2E/DX2                !
 ! A27   A(12,9,14)            119.528          estimate D2E/DX2                !
 ! A28   A(11,10,13)           120.8627         estimate D2E/DX2                !
 ! A29   A(11,10,39)           120.0031         estimate D2E/DX2                !
 ! A30   A(13,10,39)           119.1343         estimate D2E/DX2                !
 ! A31   A(10,11,12)           120.5053         estimate D2E/DX2                !
 ! A32   A(10,11,40)           119.1812         estimate D2E/DX2                !
 ! A33   A(12,11,40)           120.3135         estimate D2E/DX2                !
 ! A34   A(9,12,11)            120.1179         estimate D2E/DX2                !
 ! A35   A(9,12,41)            119.2244         estimate D2E/DX2                !
 ! A36   A(11,12,41)           120.6578         estimate D2E/DX2                !
 ! A37   A(10,13,14)           119.1454         estimate D2E/DX2                !
 ! A38   A(10,13,18)           121.2808         estimate D2E/DX2                !
 ! A39   A(14,13,18)           119.5737         estimate D2E/DX2                !
 ! A40   A(9,14,13)            119.8407         estimate D2E/DX2                !
 ! A41   A(9,14,15)            119.2871         estimate D2E/DX2                !
 ! A42   A(13,14,15)           120.8722         estimate D2E/DX2                !
 ! A43   A(6,15,14)            120.192          estimate D2E/DX2                !
 ! A44   A(6,15,16)            120.0755         estimate D2E/DX2                !
 ! A45   A(14,15,16)           119.7325         estimate D2E/DX2                !
 ! A46   A(3,16,15)            119.4647         estimate D2E/DX2                !
 ! A47   A(3,16,17)            120.1577         estimate D2E/DX2                !
 ! A48   A(15,16,17)           120.3776         estimate D2E/DX2                !
 ! A49   A(16,17,18)           120.7802         estimate D2E/DX2                !
 ! A50   A(16,17,23)           119.5178         estimate D2E/DX2                !
 ! A51   A(18,17,23)           119.702          estimate D2E/DX2                !
 ! A52   A(1,18,13)            121.4108         estimate D2E/DX2                !
 ! A53   A(1,18,17)            119.9255         estimate D2E/DX2                !
 ! A54   A(13,18,17)           118.6638         estimate D2E/DX2                !
 ! A55   A(1,19,20)            121.2775         estimate D2E/DX2                !
 ! A56   A(1,19,22)            118.921          estimate D2E/DX2                !
 ! A57   A(20,19,22)           119.8016         estimate D2E/DX2                !
 ! A58   A(19,20,27)           120.5971         estimate D2E/DX2                !
 ! A59   A(19,20,42)           120.2187         estimate D2E/DX2                !
 ! A60   A(27,20,42)           119.1842         estimate D2E/DX2                !
 ! A61   A(22,21,26)           118.9552         estimate D2E/DX2                !
 ! A62   A(22,21,28)           119.6362         estimate D2E/DX2                !
 ! A63   A(26,21,28)           121.4086         estimate D2E/DX2                !
 ! A64   A(19,22,21)           120.3826         estimate D2E/DX2                !
 ! A65   A(19,22,23)           119.2514         estimate D2E/DX2                !
 ! A66   A(21,22,23)           120.366          estimate D2E/DX2                !
 ! A67   A(17,23,22)           120.4131         estimate D2E/DX2                !
 ! A68   A(17,23,24)           119.9913         estimate D2E/DX2                !
 ! A69   A(22,23,24)           119.5955         estimate D2E/DX2                !
 ! A70   A(2,24,23)            120.0151         estimate D2E/DX2                !
 ! A71   A(2,24,25)            121.3136         estimate D2E/DX2                !
 ! A72   A(23,24,25)           118.6712         estimate D2E/DX2                !
 ! A73   A(24,25,26)           121.0135         estimate D2E/DX2                !
 ! A74   A(24,25,43)           118.0575         estimate D2E/DX2                !
 ! A75   A(26,25,43)           120.929          estimate D2E/DX2                !
 ! A76   A(21,26,25)           121.3986         estimate D2E/DX2                !
 ! A77   A(21,26,44)           117.2446         estimate D2E/DX2                !
 ! A78   A(25,26,44)           121.3568         estimate D2E/DX2                !
 ! A79   A(20,27,28)           120.1815         estimate D2E/DX2                !
 ! A80   A(20,27,32)           120.5666         estimate D2E/DX2                !
 ! A81   A(28,27,32)           119.2519         estimate D2E/DX2                !
 ! A82   A(21,28,27)           119.401          estimate D2E/DX2                !
 ! A83   A(21,28,29)           121.7958         estimate D2E/DX2                !
 ! A84   A(27,28,29)           118.8032         estimate D2E/DX2                !
 ! A85   A(28,29,30)           120.7935         estimate D2E/DX2                !
 ! A86   A(28,29,45)           117.9332         estimate D2E/DX2                !
 ! A87   A(30,29,45)           121.2733         estimate D2E/DX2                !
 ! A88   A(29,30,31)           120.3286         estimate D2E/DX2                !
 ! A89   A(29,30,46)           120.5811         estimate D2E/DX2                !
 ! A90   A(31,30,46)           119.0903         estimate D2E/DX2                !
 ! A91   A(30,31,32)           120.3012         estimate D2E/DX2                !
 ! A92   A(30,31,47)           119.0497         estimate D2E/DX2                !
 ! A93   A(32,31,47)           120.6491         estimate D2E/DX2                !
 ! A94   A(27,32,31)           120.5217         estimate D2E/DX2                !
 ! A95   A(27,32,48)           118.6917         estimate D2E/DX2                !
 ! A96   A(31,32,48)           120.7866         estimate D2E/DX2                !
 ! D1    D(19,1,18,13)         180.0            estimate D2E/DX2                !
 ! D2    D(19,1,18,17)           0.0            estimate D2E/DX2                !
 ! D3    D(33,1,18,13)           0.0            estimate D2E/DX2                !
 ! D4    D(33,1,18,17)         180.0            estimate D2E/DX2                !
 ! D5    D(18,1,19,20)         180.0            estimate D2E/DX2                !
 ! D6    D(18,1,19,22)           0.0            estimate D2E/DX2                !
 ! D7    D(33,1,19,20)           0.0            estimate D2E/DX2                !
 ! D8    D(33,1,19,22)         180.0            estimate D2E/DX2                !
 ! D9    D(24,2,3,5)           180.0            estimate D2E/DX2                !
 ! D10   D(24,2,3,16)            0.0            estimate D2E/DX2                !
 ! D11   D(34,2,3,5)             0.0            estimate D2E/DX2                !
 ! D12   D(34,2,3,16)          180.0            estimate D2E/DX2                !
 ! D13   D(3,2,24,23)            0.0            estimate D2E/DX2                !
 ! D14   D(3,2,24,25)          180.0            estimate D2E/DX2                !
 ! D15   D(34,2,24,23)         180.0            estimate D2E/DX2                !
 ! D16   D(34,2,24,25)           0.0            estimate D2E/DX2                !
 ! D17   D(2,3,5,4)            180.0            estimate D2E/DX2                !
 ! D18   D(2,3,5,36)             0.0            estimate D2E/DX2                !
 ! D19   D(16,3,5,4)             0.0            estimate D2E/DX2                !
 ! D20   D(16,3,5,36)          180.0            estimate D2E/DX2                !
 ! D21   D(2,3,16,15)          180.0            estimate D2E/DX2                !
 ! D22   D(2,3,16,17)            0.0            estimate D2E/DX2                !
 ! D23   D(5,3,16,15)            0.0            estimate D2E/DX2                !
 ! D24   D(5,3,16,17)          180.0            estimate D2E/DX2                !
 ! D25   D(6,4,5,3)              0.0            estimate D2E/DX2                !
 ! D26   D(6,4,5,36)           180.0            estimate D2E/DX2                !
 ! D27   D(35,4,5,3)           180.0            estimate D2E/DX2                !
 ! D28   D(35,4,5,36)            0.0            estimate D2E/DX2                !
 ! D29   D(5,4,6,8)            180.0            estimate D2E/DX2                !
 ! D30   D(5,4,6,15)             0.0            estimate D2E/DX2                !
 ! D31   D(35,4,6,8)             0.0            estimate D2E/DX2                !
 ! D32   D(35,4,6,15)          180.0            estimate D2E/DX2                !
 ! D33   D(4,6,8,7)            180.0            estimate D2E/DX2                !
 ! D34   D(4,6,8,38)             0.0            estimate D2E/DX2                !
 ! D35   D(15,6,8,7)             0.0            estimate D2E/DX2                !
 ! D36   D(15,6,8,38)          180.0            estimate D2E/DX2                !
 ! D37   D(4,6,15,14)          180.0            estimate D2E/DX2                !
 ! D38   D(4,6,15,16)            0.0            estimate D2E/DX2                !
 ! D39   D(8,6,15,14)            0.0            estimate D2E/DX2                !
 ! D40   D(8,6,15,16)          180.0            estimate D2E/DX2                !
 ! D41   D(9,7,8,6)              0.0            estimate D2E/DX2                !
 ! D42   D(9,7,8,38)           180.0            estimate D2E/DX2                !
 ! D43   D(37,7,8,6)           180.0            estimate D2E/DX2                !
 ! D44   D(37,7,8,38)            0.0            estimate D2E/DX2                !
 ! D45   D(8,7,9,12)           180.0            estimate D2E/DX2                !
 ! D46   D(8,7,9,14)             0.0            estimate D2E/DX2                !
 ! D47   D(37,7,9,12)            0.0            estimate D2E/DX2                !
 ! D48   D(37,7,9,14)          180.0            estimate D2E/DX2                !
 ! D49   D(7,9,12,11)          180.0            estimate D2E/DX2                !
 ! D50   D(7,9,12,41)            0.0            estimate D2E/DX2                !
 ! D51   D(14,9,12,11)           0.0            estimate D2E/DX2                !
 ! D52   D(14,9,12,41)         180.0            estimate D2E/DX2                !
 ! D53   D(7,9,14,13)          180.0            estimate D2E/DX2                !
 ! D54   D(7,9,14,15)            0.0            estimate D2E/DX2                !
 ! D55   D(12,9,14,13)           0.0            estimate D2E/DX2                !
 ! D56   D(12,9,14,15)         180.0            estimate D2E/DX2                !
 ! D57   D(13,10,11,12)          0.0            estimate D2E/DX2                !
 ! D58   D(13,10,11,40)        180.0            estimate D2E/DX2                !
 ! D59   D(39,10,11,12)        180.0            estimate D2E/DX2                !
 ! D60   D(39,10,11,40)          0.0            estimate D2E/DX2                !
 ! D61   D(11,10,13,14)          0.0            estimate D2E/DX2                !
 ! D62   D(11,10,13,18)        180.0            estimate D2E/DX2                !
 ! D63   D(39,10,13,14)        180.0            estimate D2E/DX2                !
 ! D64   D(39,10,13,18)          0.0            estimate D2E/DX2                !
 ! D65   D(10,11,12,9)           0.0            estimate D2E/DX2                !
 ! D66   D(10,11,12,41)        180.0            estimate D2E/DX2                !
 ! D67   D(40,11,12,9)         180.0            estimate D2E/DX2                !
 ! D68   D(40,11,12,41)          0.0            estimate D2E/DX2                !
 ! D69   D(10,13,14,9)           0.0            estimate D2E/DX2                !
 ! D70   D(10,13,14,15)        180.0            estimate D2E/DX2                !
 ! D71   D(18,13,14,9)         180.0            estimate D2E/DX2                !
 ! D72   D(18,13,14,15)          0.0            estimate D2E/DX2                !
 ! D73   D(10,13,18,1)           0.0            estimate D2E/DX2                !
 ! D74   D(10,13,18,17)        180.0            estimate D2E/DX2                !
 ! D75   D(14,13,18,1)         180.0            estimate D2E/DX2                !
 ! D76   D(14,13,18,17)          0.0            estimate D2E/DX2                !
 ! D77   D(9,14,15,6)            0.0            estimate D2E/DX2                !
 ! D78   D(9,14,15,16)         180.0            estimate D2E/DX2                !
 ! D79   D(13,14,15,6)         180.0            estimate D2E/DX2                !
 ! D80   D(13,14,15,16)          0.0            estimate D2E/DX2                !
 ! D81   D(6,15,16,3)            0.0            estimate D2E/DX2                !
 ! D82   D(6,15,16,17)         180.0            estimate D2E/DX2                !
 ! D83   D(14,15,16,3)         180.0            estimate D2E/DX2                !
 ! D84   D(14,15,16,17)          0.0            estimate D2E/DX2                !
 ! D85   D(3,16,17,18)         180.0            estimate D2E/DX2                !
 ! D86   D(3,16,17,23)           0.0            estimate D2E/DX2                !
 ! D87   D(15,16,17,18)          0.0            estimate D2E/DX2                !
 ! D88   D(15,16,17,23)        180.0            estimate D2E/DX2                !
 ! D89   D(16,17,18,1)         180.0            estimate D2E/DX2                !
 ! D90   D(16,17,18,13)          0.0            estimate D2E/DX2                !
 ! D91   D(23,17,18,1)           0.0            estimate D2E/DX2                !
 ! D92   D(23,17,18,13)        180.0            estimate D2E/DX2                !
 ! D93   D(16,17,23,22)        180.0            estimate D2E/DX2                !
 ! D94   D(16,17,23,24)          0.0            estimate D2E/DX2                !
 ! D95   D(18,17,23,22)          0.0            estimate D2E/DX2                !
 ! D96   D(18,17,23,24)        180.0            estimate D2E/DX2                !
 ! D97   D(1,19,20,27)         180.0            estimate D2E/DX2                !
 ! D98   D(1,19,20,42)           0.0            estimate D2E/DX2                !
 ! D99   D(22,19,20,27)          0.0            estimate D2E/DX2                !
 ! D100  D(22,19,20,42)        180.0            estimate D2E/DX2                !
 ! D101  D(1,19,22,21)         180.0            estimate D2E/DX2                !
 ! D102  D(1,19,22,23)           0.0            estimate D2E/DX2                !
 ! D103  D(20,19,22,21)          0.0            estimate D2E/DX2                !
 ! D104  D(20,19,22,23)        180.0            estimate D2E/DX2                !
 ! D105  D(19,20,27,28)          0.0            estimate D2E/DX2                !
 ! D106  D(19,20,27,32)        180.0            estimate D2E/DX2                !
 ! D107  D(42,20,27,28)        180.0            estimate D2E/DX2                !
 ! D108  D(42,20,27,32)          0.0            estimate D2E/DX2                !
 ! D109  D(26,21,22,19)        180.0            estimate D2E/DX2                !
 ! D110  D(26,21,22,23)          0.0            estimate D2E/DX2                !
 ! D111  D(28,21,22,19)          0.0            estimate D2E/DX2                !
 ! D112  D(28,21,22,23)        180.0            estimate D2E/DX2                !
 ! D113  D(22,21,26,25)          0.0            estimate D2E/DX2                !
 ! D114  D(22,21,26,44)        180.0            estimate D2E/DX2                !
 ! D115  D(28,21,26,25)        180.0            estimate D2E/DX2                !
 ! D116  D(28,21,26,44)          0.0            estimate D2E/DX2                !
 ! D117  D(22,21,28,27)          0.0            estimate D2E/DX2                !
 ! D118  D(22,21,28,29)        180.0            estimate D2E/DX2                !
 ! D119  D(26,21,28,27)        180.0            estimate D2E/DX2                !
 ! D120  D(26,21,28,29)          0.0            estimate D2E/DX2                !
 ! D121  D(19,22,23,17)          0.0            estimate D2E/DX2                !
 ! D122  D(19,22,23,24)        180.0            estimate D2E/DX2                !
 ! D123  D(21,22,23,17)        180.0            estimate D2E/DX2                !
 ! D124  D(21,22,23,24)          0.0            estimate D2E/DX2                !
 ! D125  D(17,23,24,2)           0.0            estimate D2E/DX2                !
 ! D126  D(17,23,24,25)        180.0            estimate D2E/DX2                !
 ! D127  D(22,23,24,2)         180.0            estimate D2E/DX2                !
 ! D128  D(22,23,24,25)          0.0            estimate D2E/DX2                !
 ! D129  D(2,24,25,26)         180.0            estimate D2E/DX2                !
 ! D130  D(2,24,25,43)           0.0            estimate D2E/DX2                !
 ! D131  D(23,24,25,26)          0.0            estimate D2E/DX2                !
 ! D132  D(23,24,25,43)        180.0            estimate D2E/DX2                !
 ! D133  D(24,25,26,21)          0.0            estimate D2E/DX2                !
 ! D134  D(24,25,26,44)        180.0            estimate D2E/DX2                !
 ! D135  D(43,25,26,21)        180.0            estimate D2E/DX2                !
 ! D136  D(43,25,26,44)          0.0            estimate D2E/DX2                !
 ! D137  D(20,27,28,21)          0.0            estimate D2E/DX2                !
 ! D138  D(20,27,28,29)        180.0            estimate D2E/DX2                !
 ! D139  D(32,27,28,21)        180.0            estimate D2E/DX2                !
 ! D140  D(32,27,28,29)          0.0            estimate D2E/DX2                !
 ! D141  D(20,27,32,31)        180.0            estimate D2E/DX2                !
 ! D142  D(20,27,32,48)          0.0            estimate D2E/DX2                !
 ! D143  D(28,27,32,31)          0.0            estimate D2E/DX2                !
 ! D144  D(28,27,32,48)        180.0            estimate D2E/DX2                !
 ! D145  D(21,28,29,30)        180.0            estimate D2E/DX2                !
 ! D146  D(21,28,29,45)          0.0            estimate D2E/DX2                !
 ! D147  D(27,28,29,30)          0.0            estimate D2E/DX2                !
 ! D148  D(27,28,29,45)        180.0            estimate D2E/DX2                !
 ! D149  D(28,29,30,31)          0.0            estimate D2E/DX2                !
 ! D150  D(28,29,30,46)        180.0            estimate D2E/DX2                !
 ! D151  D(45,29,30,31)        180.0            estimate D2E/DX2                !
 ! D152  D(45,29,30,46)          0.0            estimate D2E/DX2                !
 ! D153  D(29,30,31,32)          0.0            estimate D2E/DX2                !
 ! D154  D(29,30,31,47)        180.0            estimate D2E/DX2                !
 ! D155  D(46,30,31,32)        180.0            estimate D2E/DX2                !
 ! D156  D(46,30,31,47)          0.0            estimate D2E/DX2                !
 ! D157  D(30,31,32,27)          0.0            estimate D2E/DX2                !
 ! D158  D(30,31,32,48)        180.0            estimate D2E/DX2                !
 ! D159  D(47,31,32,27)        180.0            estimate D2E/DX2                !
 ! D160  D(47,31,32,48)          0.0            estimate D2E/DX2                !
 --------------------------------------------------------------------------------
 Trust Radius=3.00D-01 FncErr=1.00D-07 GrdErr=1.00D-06
 Number of steps in this run=    288 maximum allowed number of steps=    288.
 GradGradGradGradGradGradGradGradGradGradGradGradGradGradGradGradGradGrad

 Leave Link  103 at Sat Jul 27 13:37:16 2019, MaxMem=  4194304000 cpu:         0.1
 (Enter /home/minenky/programs//g09/l202.exe)
                          Input orientation:                          
 ---------------------------------------------------------------------
 Center     Atomic      Atomic             Coordinates (Angstroms)
 Number     Number       Type             X           Y           Z
 ---------------------------------------------------------------------
      1          6           0        0.510023    1.825417    0.000000
      2          6           0       -0.468193   -3.158732    0.000000
      3          6           0       -1.718569   -2.517096    0.000000
      4          6           0       -4.144130   -2.648979    0.000000
      5          6           0       -2.936241   -3.272069    0.000000
      6          6           0       -4.231340   -1.221441    0.000000
      7          6           0       -5.580155    0.791977    0.000000
      8          6           0       -5.500443   -0.566160    0.000000
      9          6           0       -4.396976    1.595921    0.000000
     10          6           0       -2.065629    3.140757    0.000000
     11          6           0       -3.324517    3.761101    0.000000
     12          6           0       -4.474475    3.006815    0.000000
     13          6           0       -1.953832    1.760257    0.000000
     14          6           0       -3.135310    0.970064    0.000000
     15          6           0       -3.062797   -0.459817    0.000000
     16          6           0       -1.783478   -1.106871    0.000000
     17          6           0       -0.595975   -0.341782    0.000000
     18          6           0       -0.646796    1.104288    0.000000
     19          6           0        1.798960    1.189094    0.000000
     20          6           0        2.965726    1.930914    0.000000
     21          6           0        3.104238   -0.888792    0.000000
     22          6           0        1.864879   -0.237114    0.000000
     23          6           0        0.647917   -0.994539    0.000000
     24          6           0        0.705084   -2.416520    0.000000
     25          6           0        1.995314   -3.056126    0.000000
     26          6           0        3.134837   -2.326881    0.000000
     27          6           0        4.224802    1.290629    0.000000
     28          6           0        4.304350   -0.120476    0.000000
     29          6           0        5.588195   -0.734948    0.000000
     30          6           0        6.725893    0.021793    0.000000
     31          6           0        6.644340    1.435632    0.000000
     32          6           0        5.427014    2.055887    0.000000
     33          1           0        0.466193    2.926960    0.000000
     34          1           0       -0.424297   -4.254879    0.000000
     35          1           0       -5.074786   -3.228019    0.000000
     36          1           0       -2.869028   -4.366114    0.000000
     37          1           0       -6.552865    1.297168    0.000000
     38          1           0       -6.407075   -1.182063    0.000000
     39          1           0       -1.150304    3.752685    0.000000
     40          1           0       -3.380842    4.854695    0.000000
     41          1           0       -5.458729    3.488578    0.000000
     42          1           0        2.923054    3.027146    0.000000
     43          1           0        2.027610   -4.151737    0.000000
     44          1           0        4.124244   -2.809997    0.000000
     45          1           0        5.633458   -1.834807    0.000000
     46          1           0        7.711706   -0.454534    0.000000
     47          1           0        7.569284    2.021511    0.000000
     48          1           0        5.354632    3.149493    0.000000
 ---------------------------------------------------------------------
                    Distance matrix (angstroms):
                    1          2          3          4          5
     1  C    0.000000
     2  C    5.079237   0.000000
     3  C    4.880988   1.405396   0.000000
     4  C    6.456110   3.711113   2.429143   0.000000
     5  C    6.153138   2.470649   1.432728   1.359131   0.000000
     6  C    5.635944   4.232538   2.827143   1.430199   2.425357
     7  C    6.177238   6.460670   5.085451   3.728585   4.848376
     8  C    6.468798   5.660828   4.255435   2.485502   3.727879
     9  C    4.912363   6.167825   4.908236   4.252424   5.082428
    10  C    2.892076   6.498874   5.668488   6.151520   6.471654
    11  C    4.295413   7.486166   6.480342   6.462267   7.043880
    12  C    5.122589   7.352841   6.173217   5.665433   6.464561
    13  C    2.464717   5.138442   4.283819   4.923288   5.127323
    14  C    3.744340   4.915330   3.763966   3.757018   4.246801
    15  C    4.241148   3.743809   2.457507   2.441661   2.815098
    16  C    3.722695   2.437235   1.411719   2.819712   2.452947
    17  C    2.433101   2.819847   2.447900   4.232324   3.750124
    18  C    1.363179   4.266760   3.776655   5.130142   4.939034
    19  C    1.437451   4.903425   5.109683   7.074682   6.505698
    20  C    2.457968   6.139731   6.459676   8.457273   7.867926
    21  C    3.754582   4.232599   5.090270   7.459028   6.493643
    22  C    2.467726   3.738861   4.247284   6.474974   5.679939
    23  C    2.823326   2.435043   2.813972   5.069604   4.246567
    24  C    4.246420   1.388330   2.425740   4.854783   3.740483
    25  C    5.102505   2.465643   3.752796   6.152929   4.936280
    26  C    4.912354   3.697810   4.857132   7.286090   6.144214
    27  C    3.753076   6.466917   7.058500   9.249839   8.491098
    28  C    4.264202   5.657577   6.482233   8.818738   7.896753
    29  C    5.687117   6.523386   7.520961   9.918753   8.893987
    30  C    6.472257   7.865788   8.817874  11.193321  10.208152
    31  C    6.146688   8.467367   9.249989  11.535819  10.674735
    32  C    4.922390   7.870560   8.483604  10.665016   9.916207
    33  H    1.102415   6.157007   5.866084   7.235066   7.071388
    34  H    6.151663   1.097026   2.166802   4.051676   2.697365
    35  H    7.531754   4.607114   3.430685   1.096088   2.138999
    36  H    7.053584   2.687337   2.177711   2.138794   1.096108
    37  H    7.082615   7.541769   6.157843   4.623211   5.827341
    38  H    7.542624   6.259196   4.874874   2.696805   4.051520
    39  H    2.543825   6.944995   6.295481   7.067127   7.248223
    40  H    4.931061   8.526344   7.556882   7.542396   8.138917
    41  H    6.196137   8.312171   7.075091   6.276764   7.215906
    42  H    2.695713   7.054477   7.230718   9.064407   8.602991
    43  H    6.166802   2.686092   4.087286   6.352059   5.041193
    44  H    5.877896   4.605659   5.850151   8.269942   7.075589
    45  H    6.296573   6.243630   7.383618   9.811427   8.689388
    46  H    7.553967   8.615303   9.653199  12.057215  11.014413
    47  H    7.061984   9.562215  10.337465  12.610216  11.763845
    48  H    5.022291   8.584812   9.063135  11.128735  10.486898
                    6          7          8          9         10
     6  C    0.000000
     7  C    2.423459   0.000000
     8  C    1.428291   1.360474   0.000000
     9  C    2.822227   1.430468   2.427392   0.000000
    10  C    4.870223   4.227133   5.053630   2.796729   0.000000
    11  C    5.064391   3.728753   4.843536   2.416231   1.403433
    12  C    4.235240   2.475487   3.717359   1.413020   2.412567
    13  C    3.752008   3.753370   4.241541   2.448665   1.385019
    14  C    2.450301   2.451323   2.820255   1.408368   2.419943
    15  C    1.394835   2.811420   2.439965   2.450734   3.736104
    16  C    2.450541   4.245041   3.756088   3.759715   4.256988
    17  C    3.740278   5.111503   4.909599   4.266416   3.779942
    18  C    4.272934   4.943234   5.133058   3.782268   2.481994
    19  C    6.494243   7.389793   7.507477   6.209279   4.329439
    20  C    7.857169   8.621442   8.826744   7.370320   5.174771
    21  C    7.343117   8.845545   8.610728   7.902026   6.554754
    22  C    6.175175   7.515821   7.372669   6.524635   5.182558
    23  C    4.884530   6.479238   6.163266   5.671105   4.946110
    24  C    5.079026   7.056818   6.475524   6.490817   6.209684
    25  C    6.491324   8.496801   7.898500   7.905879   7.408955
    26  C    7.448662   9.256260   8.812957   8.492149   7.545854
    27  C    8.821384   9.817628   9.900912   8.627181   6.556866
    28  C    8.606401   9.926531   9.814918   8.868997   7.156276
    29  C    9.831579  11.272247  11.089923  10.253614   8.579168
    30  C   11.027538  12.330126  12.240466  11.233704   9.328387
    31  C   11.195555  12.241428  12.308652  11.042479   8.875303
    32  C   10.199249  11.079497  11.237636   9.834753   7.570776
    33  H    6.267060   6.412213   6.913945   5.042031   2.540833
    34  H    4.867785   7.214820   6.274864   7.072061   7.575580
    35  H    2.176639   4.051637   2.695678   4.871327   7.043886
    36  H    3.427078   5.827187   4.622121   6.154713   7.549739
    37  H    3.425327   1.096076   2.139996   2.176490   4.851196
    38  H    2.176091   2.140241   1.096046   3.428949   6.126575
    39  H    5.851043   5.328167   6.129937   3.897757   1.101034
    40  H    6.135371   4.619812   5.820514   3.413523   2.160410
    41  H    4.867315   2.699333   4.054952   2.170131   3.410881
    42  H    8.320808   8.792072   9.157901   7.458636   4.989977
    43  H    6.910940   9.072948   8.338342   8.620376   8.362720
    44  H    8.505251  10.351308   9.882784   9.592879   8.586385
    45  H    9.883848  11.517166  11.205946  10.600920   9.166907
    46  H   11.967644  13.350182  13.212621  12.281065  10.417409
    47  H   12.238115  13.206798  13.323431  11.973826   9.699705
    48  H   10.535460  11.186038  11.473392   9.874586   7.420266
                   11         12         13         14         15
    11  C    0.000000
    12  C    1.375264   0.000000
    13  C    2.425315   2.812036   0.000000
    14  C    2.797444   2.437564   1.421371   0.000000
    15  C    4.229025   3.743043   2.481639   1.431718   0.000000
    16  C    5.106070   4.915676   2.872184   2.478125   1.433643
    17  C    4.927331   5.124048   2.502468   2.858174   2.469644
    18  C    3.772114   4.274428   1.462409   2.492131   2.878104
    19  C    5.732822   6.531470   3.796008   4.939129   5.133769
    20  C    6.551087   7.517590   4.922518   6.176235   6.485267
    21  C    7.934129   8.521306   5.709776   6.510553   6.181936
    22  C    6.550997   7.121130   4.309530   5.143848   4.932706
    23  C    6.196479   6.499980   3.789196   4.262918   3.749043
    24  C    7.375683   7.499360   4.951293   5.120310   4.245658
    25  C    8.647265   8.866646   6.228427   6.521771   5.685534
    26  C    8.876192   9.292467   6.526810   7.084108   6.472757
    27  C    7.943264   8.866945   6.196456   7.367089   7.494875
    28  C    8.559571   9.319213   6.534677   7.519163   7.374958
    29  C    9.982530  10.735834   7.944069   8.888566   8.655366
    30  C   10.723487  11.591316   8.852113   9.906692   9.800531
    31  C   10.236499  11.229277   8.604298   9.790725   9.890461
    32  C    8.916112   9.947048   7.386765   8.630898   8.854697
    33  H    3.881401   4.941313   2.686581   4.098813   4.891220
    34  H    8.524507   8.314815   6.206557   5.886393   4.622140
    35  H    7.204946   6.263667   5.884153   4.624442   3.422140
    36  H    8.139970   7.545697   6.194353   5.342818   3.911100
    37  H    4.061182   2.691208   4.622289   3.433174   3.907375
    38  H    5.825550   4.613203   5.337473   3.916133   3.421379
    39  H    2.174229   3.406822   2.148354   3.418074   4.626316
    40  H    1.095044   2.147253   3.407625   3.892384   5.324021
    41  H    2.151542   1.095834   3.907863   3.426542   4.618476
    42  H    6.290535   7.397557   5.038752   6.398074   6.927432
    43  H    9.552920   9.670676   7.127662   7.272454   6.288283
    44  H    9.932944  10.381391   7.604620   8.184741   7.561541
    45  H   10.562173  11.207659   8.395919   9.206442   8.804285
    46  H   11.813966  12.668226   9.916044  10.940166  10.774504
    47  H   11.031821  12.083996   9.526699  10.756109  10.917790
    48  H    8.700672   9.830142   7.439330   8.765217   9.158615
                   16         17         18         19         20
    16  C    0.000000
    17  C    1.412631   0.000000
    18  C    2.486216   1.446962   0.000000
    19  C    4.255034   2.842410   2.447226   0.000000
    20  C    5.637648   4.225028   3.705891   1.382621   0.000000
    21  C    4.892579   3.740427   4.247662   2.453846   2.823106
    22  C    3.750599   2.463079   2.847433   1.427730   2.431503
    23  C    2.433989   1.404763   2.466041   2.468431   3.732360
    24  C    2.812139   2.448937   3.771428   3.767892   4.900070
    25  C    4.251925   3.752658   4.928467   4.249758   5.080578
    26  C    5.067371   4.226059   5.106238   3.761202   4.261152
    27  C    6.468959   5.089661   4.875160   2.427965   1.412528
    28  C    6.167223   4.905320   5.100382   2.827004   2.449513
    29  C    7.381050   6.196655   6.500608   4.249734   3.739541
    30  C    8.583897   7.330889   7.451735   5.063325   4.217061
    31  C    8.802979   7.455290   7.298661   4.851647   3.711806
    32  C    7.873642   6.482685   6.147903   3.730162   2.464459
    33  H    4.618746   3.436986   2.135621   2.190080   2.690683
    34  H    3.428897   3.916862   5.363784   5.880452   7.053814
    35  H    3.915607   5.328238   6.194835   8.170635   9.553242
    36  H    3.435271   4.621907   5.904542   7.256063   8.584691
    37  H    5.341016   6.178244   5.909218   8.352525   9.539666
    38  H    4.624208   5.871538   6.197436   8.541744   9.876235
    39  H    4.900631   4.131820   2.695835   3.907705   4.501173
    40  H    6.171859   5.895665   4.641181   6.345628   6.987663
    41  H    5.884353   6.190157   5.370246   7.613257   8.567250
    42  H    6.264307   4.871677   4.054776   2.154535   1.097062
    43  H    4.878074   4.625901   5.897309   5.345723   6.154568
    44  H    6.148319   5.326589   6.171260   4.625978   4.880410
    45  H    7.452572   6.405853   6.933965   4.883375   4.614916
    46  H    9.517567   8.308446   8.502617   6.136943   5.311750
    47  H    9.862096   8.500388   8.267120   5.830056   4.604449
    48  H    8.310791   6.899182   6.340347   4.060291   2.681754
                   21         22         23         24         25
    21  C    0.000000
    22  C    1.400248   0.000000
    23  C    2.458596   1.433419   0.000000
    24  C    2.844273   2.468792   1.423130   0.000000
    25  C    2.434553   2.822028   2.462848   1.440065   0.000000
    26  C    1.438414   2.445387   2.821330   2.431405   1.352890
    27  C    2.450620   2.811268   4.244537   5.111884   4.885171
    28  C    1.424984   2.442258   3.759453   4.269254   3.734929
    29  C    2.488717   3.756450   4.947094   5.164538   4.277460
    30  C    3.734374   4.867904   6.162364   6.495807   5.643755
    31  C    4.235005   5.063726   6.470148   7.079112   6.464467
    32  C    3.750523   4.236349   5.669644   6.503771   6.157048
    33  H    4.638885   3.459435   3.925708   5.348818   6.175397
    34  H    4.876587   4.624151   3.432122   2.157561   2.700283
    35  H    8.506963   7.556750   6.143107   5.836560   7.072189
    36  H    6.911706   6.281602   4.872004   4.071265   5.037648
    37  H    9.901418   8.556427   7.556665   8.152871   9.592838
    38  H    9.515833   8.325752   7.057484   7.218497   8.608847
    39  H    6.296383   5.000982   5.076390   6.442170   7.500321
    40  H    8.662789   7.310548   7.102425   8.340586   9.564735
    41  H    9.616953   8.216814   7.575584   8.535970   9.919471
    42  H    3.920128   3.431490   4.620627   5.878170   6.153609
    43  H    3.435977   3.918005   3.445498   2.181754   1.096087
    44  H    2.175187   3.424100   3.921828   3.441726   2.143111
    45  H    2.700351   4.093264   5.055854   4.962585   3.837670
    46  H    4.627887   5.850868   7.084400   7.276135   6.280559
    47  H    5.329775   6.135276   7.549959   8.173944   7.539996
    48  H    4.622988   4.862867   6.271058   7.252502   7.056538
                   26         27         28         29         30
    26  C    0.000000
    27  C    3.778148   0.000000
    28  C    2.497195   1.413345   0.000000
    29  C    2.924588   2.441681   1.423318   0.000000
    30  C    4.290915   2.804533   2.425719   1.366387   0.000000
    31  C    5.145203   2.423879   2.810164   2.413889   1.416190
    32  C    4.945981   1.425109   2.448863   2.795485   2.413426
    33  H    5.892750   4.099356   4.900849   6.296386   6.901004
    34  H    4.047791   7.236489   6.281194   6.967064   8.331575
    35  H    8.258932  10.339270   9.880538  10.950551  12.239988
    36  H    6.340731   9.073101   8.335635   9.203803  10.550652
    37  H   10.343370  10.777669  10.949377  12.309949  13.339866
    38  H    9.610342  10.915631  10.763902  12.003600  13.188029
    39  H    7.437980   5.912147   6.689890   8.096062   8.715162
    40  H    9.696861   8.399309   9.155027  10.568243  11.202815
    41  H   10.376364   9.929842  10.408794  11.826780  12.668214
    42  H    5.358214   2.170263   3.437369   4.610459   4.847034
    43  H    2.134491   5.869157   4.629754   4.934797   6.284284
    44  H    1.101058   4.101858   2.695545   2.539484   3.845466
    45  H    2.546614   3.428216   2.169207   1.100790   2.154154
    46  H    4.945040   3.899243   3.423692   2.141946   1.094858
    47  H    6.210703   3.423412   3.904856   3.394522   2.170295
    48  H    5.909159   2.175291   3.434499   3.891457   3.415094
                   31         32         33         34         35
    31  C    0.000000
    32  C    1.366234   0.000000
    33  H    6.355592   5.036717   0.000000
    34  H    9.074555   8.606022   7.236836   0.000000
    35  H   12.612991  11.756167   8.281680   4.762509   0.000000
    36  H   11.142909  10.491254   8.019516   2.447260   2.482061
    37  H   13.197931  12.003882   7.205790   8.269497   4.760466
    38  H   13.311339  12.269066   8.007864   6.725759   2.441501
    39  H    8.131741   6.792661   1.815182   8.040409   8.008232
    40  H   10.592180   9.241844   4.303004   9.577344   8.258312
    41  H   12.275947  10.979619   5.951480   9.236159   6.727562
    42  H    4.047331   2.685733   2.458903   8.014528  10.153449
    43  H    7.247958   7.077468   7.248861   2.454075   7.162212
    44  H    4.937230   5.037264   6.803971   4.772517   9.208523
    45  H    3.423106   3.896167   7.026739   6.523277  10.798496
    46  H    2.170714   3.394411   7.995747   8.979820  13.083830
    47  H    1.094886   2.142546   7.160569  10.163189  13.690510
    48  H    2.144916   1.095999   4.893501   9.392590  12.224787
                   36         37         38         39         40
    36  H    0.000000
    37  H    6.755991   0.000000
    38  H    4.759827   2.483514   0.000000
    39  H    8.298729   5.934411   7.210088   0.000000
    40  H    9.235003   4.766312   6.752817   2.487916   0.000000
    41  H    8.270595   2.449370   4.765946   4.316513   2.486743
    42  H    9.391939   9.632542  10.235660   4.137469   6.563463
    43  H    4.901328  10.164405   8.942196   8.519333  10.505579
    44  H    7.164312  11.439820  10.656399   8.419599  10.727247
    45  H    8.871290  12.582358  12.058213   8.788600  11.225286
    46  H   11.280621  14.371724  14.137513   9.809991  12.297664
    47  H   12.237652  14.140714  14.338811   8.889780  11.310712
    48  H   11.140599  12.050709  12.533959   6.532843   8.900350
                   41         42         43         44         45
    41  H    0.000000
    42  H    8.394475   0.000000
    43  H   10.696714   7.234514   0.000000
    44  H   11.467582   5.959454   2.489206   0.000000
    45  H   12.303457   5.566406   4.286059   1.796864   0.000000
    46  H   13.748036   5.920582   6.780728   4.291630   2.494849
    47  H   13.110356   4.753815   8.295731   5.933950   4.314929
    48  H   10.818677   2.434654   8.023530   6.085176   4.992093
                   46         47         48
    46  H    0.000000
    47  H    2.480137   0.000000
    48  H    4.306368   2.485363   0.000000
 Stoichiometry    C32H16
 Framework group  CS[SG(C32H16)]
 Deg. of freedom    93
 Full point group                 CS      NOp   2
 Largest Abelian subgroup         CS      NOp   2
 Largest concise Abelian subgroup C1      NOp   1
                         Standard orientation:                         
 ---------------------------------------------------------------------
 Center     Atomic      Atomic             Coordinates (Angstroms)
 Number     Number       Type             X           Y           Z
 ---------------------------------------------------------------------
      1          6           0        1.331826   -1.337257    0.000000
      2          6           0       -2.508499    1.986982    0.000000
      3          6           0       -1.330627    2.753634    0.000000
      4          6           0       -0.240544    4.924453    0.000000
      5          6           0       -1.381218    4.185469    0.000000
      6          6           0        1.041832    4.291222    0.000000
      7          6           0        3.459261    4.462078    0.000000
      8          6           0        2.240847    5.067353    0.000000
      9          6           0        3.569487    3.035864    0.000000
     10          6           0        3.752598    0.245135    0.000000
     11          6           0        4.916216    1.029749    0.000000
     12          6           0        4.832593    2.402468    0.000000
     13          6           0        2.498840    0.833666    0.000000
     14          6           0        2.399704    2.251575    0.000000
     15          6           0        1.122593    2.898727    0.000000
     16          6           0       -0.074353    2.109644    0.000000
     17          6           0        0.000000    0.698971    0.000000
     18          6           0        1.280390    0.024952    0.000000
     19          6           0        0.139416   -2.140018    0.000000
     20          6           0        0.203871   -3.521135    0.000000
     21          6           0       -2.312349   -2.241070    0.000000
     22          6           0       -1.131232   -1.488967    0.000000
     23          6           0       -1.184304   -0.056531    0.000000
     24          6           0       -2.446937    0.600017    0.000000
     25          6           0       -3.642838   -0.202235    0.000000
     26          6           0       -3.575769   -1.553461    0.000000
     27          6           0       -0.977148   -4.296010    0.000000
     28          6           0       -2.241456   -3.664289    0.000000
     29          6           0       -3.412371   -4.473482    0.000000
     30          6           0       -3.320530   -5.836779    0.000000
     31          6           0       -2.052853   -6.468117    0.000000
     32          6           0       -0.909953   -5.719533    0.000000
     33          1           0        2.309703   -1.846249    0.000000
     34          1           0       -3.481726    2.493237    0.000000
     35          1           0       -0.280964    6.019796    0.000000
     36          1           0       -2.364200    4.670442    0.000000
     37          1           0        4.380810    5.055484    0.000000
     38          1           0        2.156500    6.160149    0.000000
     39          1           0        3.829178   -0.853233    0.000000
     40          1           0        5.893399    0.535549    0.000000
     41          1           0        5.739541    3.017529    0.000000
     42          1           0        1.176564   -4.028495    0.000000
     43          1           0       -4.609839    0.313823    0.000000
     44          1           0       -4.486450   -2.172322    0.000000
     45          1           0       -4.389498   -3.966569    0.000000
     46          1           0       -4.223532   -6.455891    0.000000
     47          1           0       -2.003660   -7.561898    0.000000
     48          1           0        0.075215   -6.199802    0.000000
 ---------------------------------------------------------------------
 Rotational constants (GHZ):      0.3195153      0.0941352      0.0727127
 Leave Link  202 at Sat Jul 27 13:37:16 2019, MaxMem=  4194304000 cpu:         2.2
 (Enter /home/minenky/programs//g09/l301.exe)
 Standard basis: def2TZVP (5D, 7F)
 ======================================================================================================
                                       Pseudopotential Parameters
 ======================================================================================================
  Center     Atomic      Valence      Angular      Power
  Number     Number     Electrons     Momentum     of R      Exponent        Coefficient   SO-Coeffient
 ======================================================================================================
    1          6
                                   No pseudopotential on this center.
    2          6
                                   No pseudopotential on this center.
    3          6
                                   No pseudopotential on this center.
    4          6
                                   No pseudopotential on this center.
    5          6
                                   No pseudopotential on this center.
    6          6
                                   No pseudopotential on this center.
    7          6
                                   No pseudopotential on this center.
    8          6
                                   No pseudopotential on this center.
    9          6
                                   No pseudopotential on this center.
   10          6
                                   No pseudopotential on this center.
   11          6
                                   No pseudopotential on this center.
   12          6
                                   No pseudopotential on this center.
   13          6
                                   No pseudopotential on this center.
   14          6
                                   No pseudopotential on this center.
   15          6
                                   No pseudopotential on this center.
   16          6
                                   No pseudopotential on this center.
   17          6
                                   No pseudopotential on this center.
   18          6
                                   No pseudopotential on this center.
   19          6
                                   No pseudopotential on this center.
   20          6
                                   No pseudopotential on this center.
   21          6
                                   No pseudopotential on this center.
   22          6
                                   No pseudopotential on this center.
   23          6
                                   No pseudopotential on this center.
   24          6
                                   No pseudopotential on this center.
   25          6
                                   No pseudopotential on this center.
   26          6
                                   No pseudopotential on this center.
   27          6
                                   No pseudopotential on this center.
   28          6
                                   No pseudopotential on this center.
   29          6
                                   No pseudopotential on this center.
   30          6
                                   No pseudopotential on this center.
   31          6
                                   No pseudopotential on this center.
   32          6
                                   No pseudopotential on this center.
   33          1
                                   No pseudopotential on this center.
   34          1
                                   No pseudopotential on this center.
   35          1
                                   No pseudopotential on this center.
   36          1
                                   No pseudopotential on this center.
   37          1
                                   No pseudopotential on this center.
   38          1
                                   No pseudopotential on this center.
   39          1
                                   No pseudopotential on this center.
   40          1
                                   No pseudopotential on this center.
   41          1
                                   No pseudopotential on this center.
   42          1
                                   No pseudopotential on this center.
   43          1
                                   No pseudopotential on this center.
   44          1
                                   No pseudopotential on this center.
   45          1
                                   No pseudopotential on this center.
   46          1
                                   No pseudopotential on this center.
   47          1
                                   No pseudopotential on this center.
   48          1
                                   No pseudopotential on this center.
 ======================================================================================================
 Ernie: Thresh=  0.10000D-02 Tol=  0.10000D-05 Strict=F.
 AO basis set (Overlap normalization):
 Atom C1       Shell     1 S   6     bf    1 -     1          2.516785458038         -2.527049323926          0.000000000000
      0.1357534968D+05  0.6064550360D-03
      0.2035233368D+04  0.4697908888D-02
      0.4632256236D+03  0.2433247765D-01
      0.1312001960D+03  0.9739996831D-01
      0.4285301589D+02  0.3019558425D+00
      0.1558418577D+02  0.6623360914D+00
 Atom C1       Shell     2 S   2     bf    2 -     2          2.516785458038         -2.527049323926          0.000000000000
      0.6206713851D+01  0.6559530854D+00
      0.2576489653D+01  0.3758563329D+00
 Atom C1       Shell     3 S   1     bf    3 -     3          2.516785458038         -2.527049323926          0.000000000000
      0.5769633942D+00  0.1000000000D+01
 Atom C1       Shell     4 S   1     bf    4 -     4          2.516785458038         -2.527049323926          0.000000000000
      0.2297283136D+00  0.1000000000D+01
 Atom C1       Shell     5 S   1     bf    5 -     5          2.516785458038         -2.527049323926          0.000000000000
      0.9516444003D-01  0.1000000000D+01
 Atom C1       Shell     6 P   4     bf    6 -     8          2.516785458038         -2.527049323926          0.000000000000
      0.3469723224D+02  0.1132722000D-01
      0.7958262283D+01  0.7616965920D-01
      0.2378082688D+01  0.3019225220D+00
      0.8143320818D+00  0.7278502735D+00
 Atom C1       Shell     7 P   1     bf    9 -    11          2.516785458038         -2.527049323926          0.000000000000
      0.2888754725D+00  0.1000000000D+01
 Atom C1       Shell     8 P   1     bf   12 -    14          2.516785458038         -2.527049323926          0.000000000000
      0.1005682367D+00  0.1000000000D+01
 Atom C1       Shell     9 D   1     bf   15 -    19          2.516785458038         -2.527049323926          0.000000000000
      0.1097000000D+01  0.1000000000D+01
 Atom C1       Shell    10 D   1     bf   20 -    24          2.516785458038         -2.527049323926          0.000000000000
      0.3180000000D+00  0.1000000000D+01
 Atom C1       Shell    11 F   1     bf   25 -    31          2.516785458038         -2.527049323926          0.000000000000
      0.7610000000D+00  0.1000000000D+01
 Atom C2       Shell    12 S   6     bf   32 -    32         -4.740375770721          3.754851102345          0.000000000000
      0.1357534968D+05  0.6064550360D-03
      0.2035233368D+04  0.4697908888D-02
      0.4632256236D+03  0.2433247765D-01
      0.1312001960D+03  0.9739996831D-01
      0.4285301589D+02  0.3019558425D+00
      0.1558418577D+02  0.6623360914D+00
 Atom C2       Shell    13 S   2     bf   33 -    33         -4.740375770721          3.754851102345          0.000000000000
      0.6206713851D+01  0.6559530854D+00
      0.2576489653D+01  0.3758563329D+00
 Atom C2       Shell    14 S   1     bf   34 -    34         -4.740375770721          3.754851102345          0.000000000000
      0.5769633942D+00  0.1000000000D+01
 Atom C2       Shell    15 S   1     bf   35 -    35         -4.740375770721          3.754851102345          0.000000000000
      0.2297283136D+00  0.1000000000D+01
 Atom C2       Shell    16 S   1     bf   36 -    36         -4.740375770721          3.754851102345          0.000000000000
      0.9516444003D-01  0.1000000000D+01
 Atom C2       Shell    17 P   4     bf   37 -    39         -4.740375770721          3.754851102345          0.000000000000
      0.3469723224D+02  0.1132722000D-01
      0.7958262283D+01  0.7616965920D-01
      0.2378082688D+01  0.3019225220D+00
      0.8143320818D+00  0.7278502735D+00
 Atom C2       Shell    18 P   1     bf   40 -    42         -4.740375770721          3.754851102345          0.000000000000
      0.2888754725D+00  0.1000000000D+01
 Atom C2       Shell    19 P   1     bf   43 -    45         -4.740375770721          3.754851102345          0.000000000000
      0.1005682367D+00  0.1000000000D+01
 Atom C2       Shell    20 D   1     bf   46 -    50         -4.740375770721          3.754851102345          0.000000000000
      0.1097000000D+01  0.1000000000D+01
 Atom C2       Shell    21 D   1     bf   51 -    55         -4.740375770721          3.754851102345          0.000000000000
      0.3180000000D+00  0.1000000000D+01
 Atom C2       Shell    22 F   1     bf   56 -    62         -4.740375770721          3.754851102345          0.000000000000
      0.7610000000D+00  0.1000000000D+01
 Atom C3       Shell    23 S   6     bf   63 -    63         -2.514521314439          5.203614835228          0.000000000000
      0.1357534968D+05  0.6064550360D-03
      0.2035233368D+04  0.4697908888D-02
      0.4632256236D+03  0.2433247765D-01
      0.1312001960D+03  0.9739996831D-01
      0.4285301589D+02  0.3019558425D+00
      0.1558418577D+02  0.6623360914D+00
 Atom C3       Shell    24 S   2     bf   64 -    64         -2.514521314439          5.203614835228          0.000000000000
      0.6206713851D+01  0.6559530854D+00
      0.2576489653D+01  0.3758563329D+00
 Atom C3       Shell    25 S   1     bf   65 -    65         -2.514521314439          5.203614835228          0.000000000000
      0.5769633942D+00  0.1000000000D+01
 Atom C3       Shell    26 S   1     bf   66 -    66         -2.514521314439          5.203614835228          0.000000000000
      0.2297283136D+00  0.1000000000D+01
 Atom C3       Shell    27 S   1     bf   67 -    67         -2.514521314439          5.203614835228          0.000000000000
      0.9516444003D-01  0.1000000000D+01
 Atom C3       Shell    28 P   4     bf   68 -    70         -2.514521314439          5.203614835228          0.000000000000
      0.3469723224D+02  0.1132722000D-01
      0.7958262283D+01  0.7616965920D-01
      0.2378082688D+01  0.3019225220D+00
      0.8143320818D+00  0.7278502735D+00
 Atom C3       Shell    29 P   1     bf   71 -    73         -2.514521314439          5.203614835228          0.000000000000
      0.2888754725D+00  0.1000000000D+01
 Atom C3       Shell    30 P   1     bf   74 -    76         -2.514521314439          5.203614835228          0.000000000000
      0.1005682367D+00  0.1000000000D+01
 Atom C3       Shell    31 D   1     bf   77 -    81         -2.514521314439          5.203614835228          0.000000000000
      0.1097000000D+01  0.1000000000D+01
 Atom C3       Shell    32 D   1     bf   82 -    86         -2.514521314439          5.203614835228          0.000000000000
      0.3180000000D+00  0.1000000000D+01
 Atom C3       Shell    33 F   1     bf   87 -    93         -2.514521314439          5.203614835228          0.000000000000
      0.7610000000D+00  0.1000000000D+01
 Atom C4       Shell    34 S   6     bf   94 -    94         -0.454561409891          9.305868205208          0.000000000000
      0.1357534968D+05  0.6064550360D-03
      0.2035233368D+04  0.4697908888D-02
      0.4632256236D+03  0.2433247765D-01
      0.1312001960D+03  0.9739996831D-01
      0.4285301589D+02  0.3019558425D+00
      0.1558418577D+02  0.6623360914D+00
 Atom C4       Shell    35 S   2     bf   95 -    95         -0.454561409891          9.305868205208          0.000000000000
      0.6206713851D+01  0.6559530854D+00
      0.2576489653D+01  0.3758563329D+00
 Atom C4       Shell    36 S   1     bf   96 -    96         -0.454561409891          9.305868205208          0.000000000000
      0.5769633942D+00  0.1000000000D+01
 Atom C4       Shell    37 S   1     bf   97 -    97         -0.454561409891          9.305868205208          0.000000000000
      0.2297283136D+00  0.1000000000D+01
 Atom C4       Shell    38 S   1     bf   98 -    98         -0.454561409891          9.305868205208          0.000000000000
      0.9516444003D-01  0.1000000000D+01
 Atom C4       Shell    39 P   4     bf   99 -   101         -0.454561409891          9.305868205208          0.000000000000
      0.3469723224D+02  0.1132722000D-01
      0.7958262283D+01  0.7616965920D-01
      0.2378082688D+01  0.3019225220D+00
      0.8143320818D+00  0.7278502735D+00
 Atom C4       Shell    40 P   1     bf  102 -   104         -0.454561409891          9.305868205208          0.000000000000
      0.2888754725D+00  0.1000000000D+01
 Atom C4       Shell    41 P   1     bf  105 -   107         -0.454561409891          9.305868205208          0.000000000000
      0.1005682367D+00  0.1000000000D+01
 Atom C4       Shell    42 D   1     bf  108 -   112         -0.454561409891          9.305868205208          0.000000000000
      0.1097000000D+01  0.1000000000D+01
 Atom C4       Shell    43 D   1     bf  113 -   117         -0.454561409891          9.305868205208          0.000000000000
      0.3180000000D+00  0.1000000000D+01
 Atom C4       Shell    44 F   1     bf  118 -   124         -0.454561409891          9.305868205208          0.000000000000
      0.7610000000D+00  0.1000000000D+01
 Atom C5       Shell    45 S   6     bf  125 -   125         -2.610124525679          7.909389364379          0.000000000000
      0.1357534968D+05  0.6064550360D-03
      0.2035233368D+04  0.4697908888D-02
      0.4632256236D+03  0.2433247765D-01
      0.1312001960D+03  0.9739996831D-01
      0.4285301589D+02  0.3019558425D+00
      0.1558418577D+02  0.6623360914D+00
 Atom C5       Shell    46 S   2     bf  126 -   126         -2.610124525679          7.909389364379          0.000000000000
      0.6206713851D+01  0.6559530854D+00
      0.2576489653D+01  0.3758563329D+00
 Atom C5       Shell    47 S   1     bf  127 -   127         -2.610124525679          7.909389364379          0.000000000000
      0.5769633942D+00  0.1000000000D+01
 Atom C5       Shell    48 S   1     bf  128 -   128         -2.610124525679          7.909389364379          0.000000000000
      0.2297283136D+00  0.1000000000D+01
 Atom C5       Shell    49 S   1     bf  129 -   129         -2.610124525679          7.909389364379          0.000000000000
      0.9516444003D-01  0.1000000000D+01
 Atom C5       Shell    50 P   4     bf  130 -   132         -2.610124525679          7.909389364379          0.000000000000
      0.3469723224D+02  0.1132722000D-01
      0.7958262283D+01  0.7616965920D-01
      0.2378082688D+01  0.3019225220D+00
      0.8143320818D+00  0.7278502735D+00
 Atom C5       Shell    51 P   1     bf  133 -   135         -2.610124525679          7.909389364379          0.000000000000
      0.2888754725D+00  0.1000000000D+01
 Atom C5       Shell    52 P   1     bf  136 -   138         -2.610124525679          7.909389364379          0.000000000000
      0.1005682367D+00  0.1000000000D+01
 Atom C5       Shell    53 D   1     bf  139 -   143         -2.610124525679          7.909389364379          0.000000000000
      0.1097000000D+01  0.1000000000D+01
 Atom C5       Shell    54 D   1     bf  144 -   148         -2.610124525679          7.909389364379          0.000000000000
      0.3180000000D+00  0.1000000000D+01
 Atom C5       Shell    55 F   1     bf  149 -   155         -2.610124525679          7.909389364379          0.000000000000
      0.7610000000D+00  0.1000000000D+01
 Atom C6       Shell    56 S   6     bf  156 -   156          1.968777919760          8.109233704165          0.000000000000
      0.1357534968D+05  0.6064550360D-03
      0.2035233368D+04  0.4697908888D-02
      0.4632256236D+03  0.2433247765D-01
      0.1312001960D+03  0.9739996831D-01
      0.4285301589D+02  0.3019558425D+00
      0.1558418577D+02  0.6623360914D+00
[...]
 0000273,0.,-0.00000062,-0.00000010,0.,0.00001290,-0.00000674,0.,0.0598
 6087,-0.00003558,-0.00001724,0.,-0.00163585,0.00107419,0.,0.00042827,0
 .00009996,0.,0.00007436,-0.00009045,0.,-0.00008857,-0.00009631,0.,0.00
 004771,0.00007037,0.,0.00003553,0.00001477,0.,-0.00000285,-0.00002907,
 0.,-0.00000312,-0.00000729,0.,0.00003714,-0.00001998,0.,-0.00001270,0.
 00000086,0.,0.00000789,0.00000251,0.,-0.00005651,-0.00007252,0.,0.0000
 1254,-0.00001481,0.,-0.00005872,0.00010056,0.,0.00005197,0.00024529,0.
 ,-0.00067042,-0.00069114,0.,0.00027350,0.00003115,0.,0.00006821,0.0000
 0230,0.,-0.00003926,0.00005311,0.,-0.00294571,0.00090075,0.,0.00007603
 ,0.00055611,0.,0.00260109,0.00068925,0.,-0.00216600,-0.01149772,0.,0.0
 0974953,-0.33898942,0.,0.00313707,-0.01268286,0.,-0.00030085,-0.000059
 52,0.,0.00049361,-0.00063042,0.,-0.00000409,-0.00002444,0.,-0.00000154
 ,0.00000556,0.,-0.00002682,-0.00002477,0.,0.00003911,-0.00006812,0.,0.
 00000084,-0.00002204,0.,0.00080384,0.00039636,0.,0.00001352,0.00000013
 ,0.,0.00001215,0.00002404,0.,0.00000326,-0.00000335,0.,0.00000897,0.00
 000240,0.,-0.00000580,0.00000331,0.,0.00000346,-0.00000740,0.,0.000005
 04,-0.00000055,0.,-0.00000359,-0.00002587,0.,-0.00952172,0.35992240,0.
 ,0.,0.00004322,0.,0.,-0.00194951,0.,0.,-0.00023313,0.,0.,-0.00001085,0
 .,0.,0.00009269,0.,0.,0.00001258,0.,0.,-0.00000021,0.,0.,-0.00000651,0
 .,0.,-0.00000088,0.,0.,-0.00000532,0.,0.,0.00000062,0.,0.,-0.00000118,
 0.,0.,-0.00000075,0.,0.,-0.00000851,0.,0.,0.00003017,0.,0.,-0.00003893
 ,0.,0.,0.00016593,0.,0.,0.00004398,0.,0.,-0.00081314,0.,0.,0.00011854,
 0.,0.,0.01037706,0.,0.,-0.00096235,0.,0.,0.00387587,0.,0.,0.00268707,0
 .,0.,-0.03620197,0.,0.,0.00381177,0.,0.,-0.00071450,0.,0.,0.00004667,0
 .,0.,0.00034571,0.,0.,-0.00007911,0.,0.,0.00007822,0.,0.,-0.00001166,0
 .,0.,0.00000216,0.,0.,0.00025356,0.,0.,-0.00000698,0.,0.,0.00000618,0.
 ,0.,0.00000182,0.,0.,0.00000251,0.,0.,0.00000418,0.,0.,0.00000011,0.,0
 .,0.00000059,0.,0.,0.00013397,0.,0.,0.02489545,0.00002106,0.00001919,0
 .,-0.00053176,0.00108437,0.,-0.00041876,-0.00026428,0.,-0.00008896,-0.
 00000048,0.,0.00000035,0.00013565,0.,0.00000552,-0.00006836,0.,-0.0000
 0679,-0.00001548,0.,-0.00000752,0.00002016,0.,0.00000989,0.00001987,0.
 ,-0.00001780,0.00001439,0.,0.00000818,-0.00000274,0.,-0.00001007,-0.00
 000437,0.,0.00001935,0.00000256,0.,-0.00001071,0.00001801,0.,0.0000372
 4,-0.00002462,0.,-0.00002492,-0.00012118,0.,0.00014915,0.00007535,0.,-
 0.00001158,-0.00003091,0.,0.00000571,-0.00016881,0.,0.00011833,0.00005
 280,0.,0.00335779,0.00013719,0.,0.00101842,-0.00072647,0.,0.00012180,-
 0.00036789,0.,-0.00222198,-0.00418967,0.,-0.02076628,0.01568773,0.,-0.
 27473094,0.12266624,0.,0.00000303,0.00019656,0.,-0.00137360,0.00021402
 ,0.,-0.00170346,-0.00214582,0.,0.00015225,-0.00025440,0.,-0.00008533,0
 .00000635,0.,0.00001295,0.00006581,0.,-0.00000274,-0.00000126,0.,-0.00
 001210,-0.00006130,0.,-0.00001824,0.00000696,0.,0.00000268,-0.00001121
 ,0.,-0.00000360,0.00000297,0.,-0.00000327,-0.00000271,0.,0.00000361,-0
 .00000557,0.,-0.00000127,0.00000453,0.,-0.00000406,0.00000104,0.,-0.00
 000140,0.00001221,0.,0.00085806,-0.00035791,0.,0.29895177,-0.00023115,
 -0.00050217,0.,-0.00021399,0.00067988,0.,-0.00029545,-0.00004217,0.,-0
 .00004111,0.00004811,0.,0.00001489,0.00007060,0.,-0.00000277,-0.000049
 78,0.,-0.00001988,-0.00001695,0.,-0.00000478,0.00002734,0.,0.00001089,
 0.,0.,0.00001182,-0.00001469,0.,0.00000557,0.00001407,0.,0.00001335,-0
 .00000755,0.,-0.00001908,0.00002738,0.,-0.00000011,-0.00000028,0.,0.00
 005804,-0.00000919,0.,-0.00009144,-0.00017067,0.,0.00025046,0.00008135
 ,0.,-0.00003964,0.00007185,0.,0.00168462,0.00004893,0.,0.00001016,-0.0
 0005674,0.,0.02826471,-0.00882377,0.,-0.00184710,-0.00561694,0.,-0.000
 78428,-0.00032668,0.,-0.00316402,-0.00170844,0.,-0.01719548,0.01170234
 ,0.,0.12436428,-0.12925566,0.,0.00007750,-0.00011967,0.,0.00069417,0.0
 0114800,0.,0.00001680,-0.00157436,0.,-0.00049870,0.00065254,0.,0.00003
 424,0.00011285,0.,0.00007817,0.00023918,0.,0.00013999,-0.00008890,0.,0
 .00000952,-0.00002771,0.,-0.00000873,0.00000432,0.,0.00000443,0.000000
 36,0.,0.00000193,0.00000008,0.,0.00000038,0.00000102,0.,-0.00000135,0.
 00001626,0.,0.00000141,-0.00000205,0.,0.00000246,0.00000061,0.,-0.0000
 5829,-0.00001588,0.,-0.00002647,0.00091934,0.,-0.12847354,0.13248291,0
 .,0.,-0.00010572,0.,0.,0.00005395,0.,0.,-0.00099412,0.,0.,0.00008672,0
 .,0.,-0.00005610,0.,0.,-0.00001481,0.,0.,-0.00000275,0.,0.,-0.00001121
 ,0.,0.,-0.00000495,0.,0.,0.00001642,0.,0.,-0.00000645,0.,0.,-0.0000009
 6,0.,0.,-0.00000150,0.,0.,-0.00000151,0.,0.,0.00007423,0.,0.,0.0001120
 6,0.,0.,-0.00062517,0.,0.,0.00007604,0.,0.,0.00019680,0.,0.,-0.0001006
 4,0.,0.,0.00169972,0.,0.,0.00407865,0.,0.,-0.00085648,0.,0.,0.01094657
 ,0.,0.,0.00398291,0.,0.,-0.03603727,0.,0.,-0.00012287,0.,0.,-0.0012738
 4,0.,0.,-0.00071348,0.,0.,-0.00004767,0.,0.,-0.00000601,0.,0.,0.000032
 92,0.,0.,-0.00000857,0.,0.,0.00029709,0.,0.,0.00000812,0.,0.,-0.000012
 43,0.,0.,0.00000313,0.,0.,0.00000174,0.,0.,0.00000168,0.,0.,0.00000117
 ,0.,0.,0.00000133,0.,0.,0.00004047,0.,0.,-0.00589424,0.,0.,0.02346546,
 -0.00004323,-0.00012675,0.,-0.00000044,-0.00013802,0.,0.00005298,-0.00
 002715,0.,0.00003380,-0.00000623,0.,-0.00002332,-0.00003409,0.,-0.0000
 0276,0.00001728,0.,0.00001599,-0.00000118,0.,0.00000165,-0.00001429,0.
 ,-0.00000737,0.00000334,0.,-0.00000160,0.00000512,0.,-0.00000803,-0.00
 002122,0.,-0.00001081,0.00002109,0.,0.00002664,-0.00000282,0.,0.000009
 09,0.00001300,0.,-0.00003455,0.00001514,0.,0.00006517,-0.00001098,0.,-
 0.00003678,0.00002927,0.,-0.00002505,0.00008155,0.,0.00020127,0.000116
 10,0.,0.00035570,0.00143868,0.,0.00108999,-0.00038774,0.,0.00015055,-0
 .00017630,0.,0.00012880,-0.00002824,0.,0.00006491,0.00013234,0.,0.0003
 2944,-0.00056395,0.,-0.00191682,0.00060592,0.,-0.00511432,0.00119526,0
 .,0.00381252,0.02825997,0.,-0.06211835,0.03147742,0.,0.00611997,-0.028
 29281,0.,-0.00395359,-0.00262145,0.,-0.00117719,-0.00010064,0.,0.00002
 098,-0.00001131,0.,-0.00001224,-0.00000070,0.,0.00000411,-0.00000154,0
 .,-0.00000195,0.00000171,0.,0.00000134,-0.00000147,0.,0.00000143,0.000
 00007,0.,-0.00000135,-0.00000120,0.,-0.00000018,-0.00000061,0.,0.00000
 166,-0.00000169,0.,-0.00042155,0.00023482,0.,-0.00002013,0.00000239,0.
 ,-0.00281855,-0.00271123,0.,0.06420160,-0.00005650,0.00008088,0.,-0.00
 010115,0.00006713,0.,0.00002778,-0.00002258,0.,0.00000710,-0.00003384,
 0.,-0.00002838,-0.00000002,0.,0.00001849,0.00003127,0.,0.00000326,0.00
 000919,0.,-0.00000537,-0.00000656,0.,0.00000793,-0.00001824,0.,0.00001
 188,-0.00001890,0.,-0.00000399,0.00002189,0.,0.00001635,-0.00000953,0.
 ,-0.00003486,0.00000711,0.,0.00000254,-0.00001424,0.,-0.00000640,0.000
 00735,0.,0.00002091,0.00004091,0.,0.00001948,-0.00008240,0.,0.00006273
 ,0.00003752,0.,0.00010375,0.00010671,0.,-0.00053806,-0.00058757,0.,-0.
 00101680,-0.00132505,0.,0.00028362,-0.00002355,0.,-0.00006384,-0.00012
 942,0.,-0.00001625,-0.00004127,0.,-0.00033132,0.00054470,0.,-0.0015945
 8,-0.00082476,0.,0.00232472,0.00113317,0.,0.00031345,-0.00928718,0.,0.
 03016877,-0.34111733,0.,0.00439667,-0.01465383,0.,-0.00356090,0.000081
 32,0.,-0.00011651,0.00068203,0.,-0.00000202,-0.00000201,0.,0.00000724,
 0.00000294,0.,0.00000320,0.00000137,0.,-0.00000026,0.00000357,0.,0.000
 00146,-0.00000165,0.,0.00000283,0.00000234,0.,-0.00000181,0.00000343,0
 .,0.00000070,-0.00000387,0.,0.00000237,0.00000086,0.,0.00018153,-0.000
 09750,0.,0.00000429,-0.00000986,0.,-0.00314656,-0.00000485,0.,-0.02727
 002,0.36534848,0.,0.,0.00006586,0.,0.,0.00003776,0.,0.,-0.00000142,0.,
 0.,-0.00000168,0.,0.,-0.00001708,0.,0.,0.,0.,0.,0.00000105,0.,0.,-0.00
 000194,0.,0.,-0.00000335,0.,0.,-0.00000644,0.,0.,-0.00000114,0.,0.,0.0
 0000133,0.,0.,-0.00000563,0.,0.,0.00000278,0.,0.,0.00000209,0.,0.,-0.0
 0000269,0.,0.,0.00000095,0.,0.,-0.00000123,0.,0.,-0.00028868,0.,0.,0.0
 0016344,0.,0.,-0.00202632,0.,0.,-0.00014909,0.,0.,0.00014791,0.,0.,0.0
 0000876,0.,0.,-0.00002538,0.,0.,-0.00076207,0.,0.,0.00524497,0.,0.,0.0
 0230328,0.,0.,-0.03567894,0.,0.,0.00380731,0.,0.,0.00932385,0.,0.,-0.0
 0093092,0.,0.,-0.00001235,0.,0.,0.00000949,0.,0.,0.00000397,0.,0.,0.00
 000240,0.,0.,0.00000033,0.,0.,0.00000097,0.,0.,0.00000576,0.,0.,0.0000
 0104,0.,0.,0.00000035,0.,0.,0.00019077,0.,0.,-0.00004210,0.,0.,0.00170
 219,0.,0.,0.02331514,0.00007109,-0.00001412,0.,0.00005214,0.00001360,0
 .,-0.00004323,0.00001030,0.,-0.00002365,0.00001618,0.,0.00002539,0.000
 02013,0.,-0.00001116,-0.00002793,0.,-0.00000747,-0.00000406,0.,0.00000
 445,0.00000868,0.,-0.00000282,0.00001151,0.,-0.00000988,0.00001603,0.,
 0.00000678,-0.00000727,0.,-0.00000836,-0.00000182,0.,0.00002106,-0.000
 01015,0.,-0.00000827,0.00000461,0.,0.00001508,-0.00001679,0.,-0.000032
 14,-0.00001282,0.,-0.00002238,0.00000383,0.,-0.00003310,-0.00006740,0.
 ,-0.00007671,-0.00016751,0.,0.00026384,0.00005031,0.,-0.00049101,0.001
 14918,0.,-0.00038658,-0.00026658,0.,-0.00004161,0.00014353,0.,-0.00005
 664,-0.00002297,0.,0.00005576,-0.00004444,0.,-0.00005253,0.00002313,0.
 ,0.00009110,-0.00060193,0.,-0.00216378,-0.00407559,0.,-0.01906932,0.01
 396602,0.,-0.28801095,0.11038182,0.,0.00205312,-0.00180530,0.,0.001682
 15,0.00002960,0.,-0.00000025,0.00000815,0.,-0.00000261,-0.00000796,0.,
 -0.00000482,-0.00000026,0.,0.00000016,-0.00000508,0.,-0.00000239,0.000
 00232,0.,-0.00000324,-0.00000219,0.,0.00000271,-0.00000442,0.,-0.00000
 053,0.00000376,0.,-0.00000332,0.00000029,0.,-0.00001737,0.00002774,0.,
 -0.00002066,-0.00002053,0.,-0.00000352,-0.00000357,0.,0.00082387,-0.00
 032196,0.,0.30486539,0.00010893,0.00001520,0.,0.00011253,0.00001127,0.
 ,-0.00007425,0.00004806,0.,-0.00002025,0.00003616,0.,0.00004253,0.0000
 0280,0.,-0.00000288,-0.00003358,0.,-0.00000413,-0.00001112,0.,-0.00001
 095,0.00000932,0.,0.00000508,0.00001025,0.,-0.00000484,0.00000257,0.,0
 .00001074,0.00000376,0.,-0.00000267,-0.00001253,0.,-0.00000158,-0.0000
 0333,0.,0.00000562,-0.00000252,0.,0.00002556,-0.00000089,0.,-0.0000655
 9,-0.00003961,0.,0.00002438,0.00006692,0.,-0.00004551,-0.00008903,0.,-
 0.00021504,-0.00024856,0.,0.00049571,0.00012359,0.,-0.00020603,0.00086
 200,0.,-0.00033409,0.00003378,0.,-0.00004302,0.00010868,0.,-0.00008914
 ,-0.00002443,0.,0.00011453,-0.00001740,0.,-0.00000958,-0.00006008,0.,-
 0.00113574,-0.00055289,0.,-0.00348308,-0.00191203,0.,-0.01808800,0.011
 43013,0.,0.11155259,-0.11428739,0.,0.02976009,-0.00777421,0.,-0.000721
 83,-0.00601402,0.,-0.00000899,0.00000413,0.,0.00000024,-0.00000002,0.,
 0.00000072,0.00000081,0.,-0.00000018,0.00000043,0.,0.00000075,-0.00000
 086,0.,0.00000083,0.00000098,0.,-0.00000096,0.00000187,0.,-0.00000020,
 -0.00000088,0.,0.00000107,-0.00000013,0.,-0.00007058,0.00004292,0.,-0.
 00000707,-0.00000414,0.,-0.00000383,-0.00002402,0.,0.00013969,0.000968
 50,0.,-0.11870050,0.11703258,0.,0.,0.00009722,0.,0.,0.00000504,0.,0.,-
 0.00002354,0.,0.,0.00000326,0.,0.,-0.00000303,0.,0.,-0.00000133,0.,0.,
 -0.00000124,0.,0.,-0.00000517,0.,0.,0.00000218,0.,0.,-0.00000232,0.,0.
 ,0.00000077,0.,0.,-0.00000170,0.,0.,-0.00001367,0.,0.,-0.00000088,0.,0
 .,0.00002073,0.,0.,0.00000863,0.,0.,0.00001684,0.,0.,-0.00002116,0.,0.
 ,0.00009517,0.,0.,-0.00074466,0.,0.,0.00023633,0.,0.,-0.00078182,0.,0.
 ,-0.00005028,0.,0.,0.00007547,0.,0.,-0.00008910,0.,0.,0.00032471,0.,0.
 ,-0.00096914,0.,0.,0.00967261,0.,0.,0.00305262,0.,0.,-0.03655084,0.,0.
 ,0.00215631,0.,0.,0.00547932,0.,0.,0.00000013,0.,0.,0.00000463,0.,0.,0
 .00000100,0.,0.,0.00000075,0.,0.,0.00000147,0.,0.,0.00000060,0.,0.,0.0
 0000119,0.,0.,0.00000099,0.,0.,0.00000038,0.,0.,0.00005201,0.,0.,-0.00
 000345,0.,0.,-0.00004151,0.,0.,-0.00522244,0.,0.,0.02561988,0.00002357
 ,-0.00015472,0.,0.00006730,-0.00000047,0.,-0.00003462,0.00002230,0.,-0
 .00001596,0.00003299,0.,0.00002711,0.00001422,0.,-0.00002066,-0.000034
 54,0.,-0.00001208,-0.00000569,0.,0.00001023,0.00001184,0.,-0.00000790,
 0.00001472,0.,-0.00001660,0.00002025,0.,0.00000799,-0.00001650,0.,-0.0
 0001422,0.00000511,0.,0.00002991,-0.00001695,0.,-0.00001277,0.00001280
 ,0.,0.00002405,-0.00001271,0.,-0.00004251,-0.00003982,0.,0.00002027,0.
 00008654,0.,-0.00009449,-0.00002991,0.,-0.00052453,0.00017654,0.,-0.00
 037035,-0.00125550,0.,0.00032414,0.00003953,0.,-0.00006749,0.00019651,
 0.,0.00003288,0.00002943,0.,-0.00007291,-0.00004620,0.,0.00008115,-0.0
 0003666,0.,-0.00006965,-0.00003686,0.,-0.00316765,0.00396430,0.,-0.000
 24820,0.00061250,0.,0.00144511,0.00105240,0.,0.00571812,0.00362986,0.,
 -0.25533288,-0.12983213,0.,-0.01869443,-0.01875005,0.,0.00000363,0.000
 01268,0.,0.00000050,-0.00000254,0.,-0.00000521,-0.00000095,0.,0.000001
 76,-0.00000326,0.,-0.00000239,0.00000245,0.,-0.00000358,-0.00000263,0.
 ,0.00000400,-0.00000480,0.,-0.00000235,0.00000606,0.,-0.00000362,-0.00
 000038,0.,-0.00001040,0.00006223,0.,-0.00000722,-0.00000607,0.,0.00000
 525,-0.00000939,0.,0.00010344,0.00022247,0.,0.00062187,-0.00048961,0.,
 0.26943674,-0.00006639,0.00004614,0.,-0.00009439,0.00000201,0.,0.00006
 853,-0.00003893,0.,0.00001774,-0.00002604,0.,-0.00003622,0.00000247,0.
 ,-0.00000355,0.00002875,0.,-0.00000111,0.00000963,0.,0.00001424,-0.000
 00514,0.,-0.00000572,-0.00000713,0.,0.00000111,-0.00000319,0.,-0.00001
 045,-0.00000516,0.,0.00000159,0.00001411,0.,0.00000891,0.00001518,0.,-
 0.00000659,0.00000231,0.,-0.00002104,-0.00000694,0.,0.00004192,0.00004
 112,0.,-0.00003224,-0.00008230,0.,0.00005946,0.00007470,0.,0.00037098,
 0.00009954,0.,-0.00001826,0.00057828,0.,-0.00042291,-0.00002647,0.,0.0
 0014296,-0.00023042,0.,-0.00004269,-0.00001569,0.,0.00007410,0.0000035
 4,0.,-0.00008975,0.00004506,0.,0.00005900,-0.00001113,0.,0.00328782,-0
 .00088348,0.,0.00121912,-0.00028915,0.,0.00180418,-0.00558939,0.,-0.02
 790564,-0.01116850,0.,-0.13077863,-0.14768292,0.,0.01334950,0.01186849
 ,0.,-0.00000392,0.00000309,0.,0.00000097,-0.00000012,0.,-0.00000249,-0
 .00000098,0.,0.00000099,-0.00000103,0.,-0.00000092,0.00000157,0.,-0.00
 000200,-0.00000140,0.,0.00000106,-0.00000040,0.,-0.00000017,0.00000197
 ,0.,-0.00000142,0.00000025,0.,-0.00000912,-0.00001607,0.,-0.00000239,-
 0.00000298,0.,-0.00001271,0.00009806,0.,-0.00126907,-0.00076838,0.,0.0
 0045048,0.00089252,0.,0.14021823,0.15221435,0.,0.,-0.00005752,0.,0.,0.
 00001572,0.,0.,-0.00000046,0.,0.,-0.00000105,0.,0.,-0.00000521,0.,0.,0
 .00000029,0.,0.,-0.00000141,0.,0.,-0.00000026,0.,0.,0.00000019,0.,0.,-
 0.00000199,0.,0.,-0.00000228,0.,0.,-0.00000071,0.,0.,0.00000735,0.,0.,
 -0.00000338,0.,0.,0.00000089,0.,0.,-0.00000510,0.,0.,-0.00000937,0.,0.
 ,0.00007110,0.,0.,-0.00077552,0.,0.,0.00016912,0.,0.,-0.00077927,0.,0.
 ,0.00009195,0.,0.,0.00006121,0.,0.,-0.00000456,0.,0.,-0.00005033,0.,0.
 ,0.00003194,0.,0.,0.00988308,0.,0.,-0.00085158,0.,0.,0.00555275,0.,0.,
 0.00204617,0.,0.,-0.03735266,0.,0.,0.00349597,0.,0.,-0.00000995,0.,0.,
 0.00000286,0.,0.,0.00000143,0.,0.,0.00000090,0.,0.,0.00000041,0.,0.,0.
 00000065,0.,0.,0.00000326,0.,0.,0.00000166,0.,0.,0.00000094,0.,0.,0.00
 020322,0.,0.,0.00000048,0.,0.,0.00005033,0.,0.,0.00002703,0.,0.,-0.002
 48269,0.,0.,0.02589984,-0.00005739,0.00001065,0.,-0.00004715,0.0000159
 1,0.,0.00001414,-0.00001846,0.,-0.00000143,-0.00002566,0.,-0.00001353,
 0.00000304,0.,0.00001347,0.00001744,0.,0.00000154,0.00000584,0.,-0.000
 00148,-0.00000385,0.,0.00000497,-0.00000840,0.,-0.00000361,-0.00001517
 ,0.,-0.00000087,0.00001544,0.,0.00000769,-0.00000378,0.,-0.00001008,0.
 00000374,0.,0.00000274,-0.00000971,0.,-0.00001163,-0.00000193,0.,0.000
 02538,0.00003977,0.,-0.00003458,-0.00008150,0.,0.00004045,0.00002819,0
 .,0.00017940,0.00051275,0.,0.00117257,-0.00181077,0.,0.00030931,-0.001
 36194,0.,0.00023690,-0.00021100,0.,-0.00003383,0.00007822,0.,0.0000693
 3,0.00002235,0.,-0.00000327,-0.00012272,0.,-0.00038536,-0.00000781,0.,
 0.00535624,-0.02611891,0.,-0.00412671,-0.00175649,0.,-0.00109782,-0.00
 008619,0.,-0.00493446,0.00176362,0.,0.00274672,0.03017074,0.,-0.061197
 05,0.02111842,0.,-0.00003894,0.00001080,0.,0.00000058,0.00000081,0.,0.
 00000193,0.00000090,0.,-0.00000119,0.00000070,0.,0.00000087,-0.0000007
 8,0.,0.00000136,0.00000144,0.,-0.00000176,0.00000419,0.,-0.00000115,-0
 .00000152,0.,0.00000196,0.00000081,0.,-0.00061971,0.00075169,0.,-0.000
 03347,-0.00002279,0.,0.00001678,-0.00000823,0.,0.00013331,0.00000202,0
 .,-0.00004568,0.00143854,0.,0.00086566,-0.00035313,0.,0.06149883,0.000
 08688,-0.00008802,0.,0.00004941,0.00002735,0.,-0.00005288,0.00001457,0
 .,-0.00003209,0.00001412,0.,0.00002828,0.00002452,0.,-0.00000720,-0.00
 003380,0.,-0.00001165,-0.00000298,0.,0.00000570,0.00001151,0.,-0.00000
 116,0.00001225,0.,-0.00002037,0.00001355,0.,0.00001294,0.00000070,0.,-
 0.00000828,-0.00000553,0.,0.00002420,-0.00001826,0.,-0.00000995,-0.000
 00335,0.,0.00002530,-0.00001821,0.,-0.00003455,-0.00001648,0.,-0.00000
 670,0.00003194,0.,-0.00006814,-0.00008333,0.,-0.00044222,0.00015103,0.
 ,0.00192241,0.00096307,0.,0.00079892,-0.00068053,0.,-0.00002492,0.0002
 0829,0.,-0.00000579,0.00010918,0.,-0.00004314,-0.00001809,0.,0.0000827
 6,-0.00008782,0.,-0.00032640,-0.00006963,0.,0.00388459,-0.01438012,0.,
 -0.00316588,0.00037550,0.,-0.00028481,0.00063144,0.,0.00284796,0.00103
 992,0.,-0.00195412,-0.00960961,0.,0.02140902,-0.33718053,0.,-0.0000202
 7,0.00002279,0.,0.00000223,-0.00000451,0.,-0.00000371,0.00000035,0.,0.
 00000032,-0.00000360,0.,-0.00000206,0.00000200,0.,-0.00000232,-0.00000
 145,0.,0.00000324,-0.00000132,0.,-0.00000301,0.00000488,0.,-0.00000247
 ,0.00000056,0.,-0.00089795,0.00047685,0.,-0.00002981,-0.00002246,0.,0.
 00001812,0.00001174,0.,0.00003255,-0.00009829,0.,-0.00012806,-0.000595
 52,0.,0.00034237,0.00082020,0.,-0.02398725,0.35805512,0.,0.,0.00015293
 ,0.,0.,-0.00000563,0.,0.,0.00000165,0.,0.,-0.00000078,0.,0.,-0.0000006
 0,0.,0.,0.00000002,0.,0.,-0.00000111,0.,0.,-0.00000145,0.,0.,0.0000005
 8,0.,0.,-0.00000512,0.,0.,-0.00000191,0.,0.,-0.00000183,0.,0.,-0.00002
 694,0.,0.,0.00000126,0.,0.,0.00000014,0.,0.,-0.00000167,0.,0.,0.000013
 18,0.,0.,0.00000394,0.,0.,-0.00018926,0.,0.,-0.00272152,0.,0.,0.000045
 51,0.,0.,-0.00007983,0.,0.,0.00002145,0.,0.,0.00002162,0.,0.,0.0000056
 3,0.,0.,0.00024870,0.,0.,0.00290714,0.,0.,0.00489544,0.,0.,-0.00083360
 ,0.,0.,0.00906329,0.,0.,0.00410173,0.,0.,-0.03658980,0.,0.,0.00000602,
 0.,0.,-0.00000396,0.,0.,0.00000093,0.,0.,0.00000068,0.,0.,0.00000153,0
 .,0.,0.00000086,0.,0.,0.00000829,0.,0.,0.00000327,0.,0.,0.00000123,0.,
 0.,0.00026373,0.,0.,-0.00004584,0.,0.,0.00001058,0.,0.,-0.00118986,0.,
 0.,0.00007974,0.,0.,-0.00522544,0.,0.,0.02506506\\0.00000105,0.0000008
 0,0.,-0.00000179,-0.00000018,0.,0.00000114,-0.00000106,0.,0.00000017,-
 0.00000092,0.,0.00000079,-0.00000052,0.,-0.00000385,-0.00000072,0.,0.0
 0000202,0.00000392,0.,0.00000251,-0.00000484,0.,-0.00000241,-0.0000042
 9,0.,0.00000170,-0.00000369,0.,-0.00000437,-0.00000126,0.,0.00000172,0
 .00000333,0.,0.00000149,0.00000399,0.,-0.00000190,-0.00000447,0.,0.000
 00208,0.00000310,0.,0.00000065,0.00000110,0.,-0.00000239,-0.00000013,0
 .,-0.00000005,-0.00000131,0.,-0.00000018,-0.00000068,0.,0.00000164,0.0
 0000029,0.,0.00000312,-0.00000264,0.,-0.00000634,-0.00000005,0.,0.0000
 0406,0.00000191,0.,0.00000329,-0.00000205,0.,-0.00000459,-0.00000003,0
 .,0.00000021,0.00000197,0.,-0.00000023,0.00000423,0.,0.00000097,-0.000
 00144,0.,0.00000062,0.00000129,0.,0.00000098,0.00000280,0.,-0.00000029
 ,-0.00000136,0.,-0.00000073,0.00000087,0.,-0.00000122,0.00000071,0.,0.
 00000079,0.00000004,0.,0.00000053,-0.00000059,0.,0.00000049,-0.0000002
 8,0.,-0.00000040,-0.00000146,0.,-0.00000012,-0.00000027,0.,0.00000027,
 0.00000035,0.,-0.00000003,-0.00000026,0.,-0.00000059,-0.00000099,0.,-0
 .00000103,0.00000026,0.,0.00000122,0.00000020,0.,-0.00000089,0.0000003
 9,0.,0.00000055,0.00000165,0.,0.00000009,0.00000088,0.,-0.00000019,0.0
 0000096,0.,-0.00000059,0.00000046,0.\\\@


 LIVE PURE, SPEAK TRUE, RIGHT WRONG, FOLLOW THE KING...
 ELSE, WHEREFORE BORN......
           IDYLLS OF THE KING, TENNYSON
 Job cpu time:       4 days 17 hours 41 minutes  8.1 seconds.
 File lengths (MBytes):  RWF=   4430 Int=      0 D2E=      0 Chk=     85 Scr=      1
 Normal termination of Gaussian 09 at Sun Jul 28 01:23:24 2019.
