 Entering Gaussian System, Link 0=g09
 Initial command:
 /home/minenky/programs//g09/l1.exe "/local/scratch/minenky/m1_00_120835-93-0-C32H16_wB97XD/Gau-429707.inp" -scrdir="/local/scratch/minenky/m1_00_120835-93-0-C32H16_wB97XD/"
 Entering Link 1 = /home/minenky/programs//g09/l1.exe PID=    429708.
  
 Copyright (c) 1988,1990,1992,1993,1995,1998,2003,2009,2013,
            Gaussian, Inc.  All Rights Reserved.
  
 This is part of the Gaussian(R) 09 program.  It is based on
 the Gaussian(R) 03 system (copyright 2003, Gaussian, Inc.),
 the Gaussian(R) 98 system (copyright 1998, Gaussian, Inc.),
 the Gaussian(R) 94 system (copyright 1995, Gaussian, Inc.),
 the Gaussian 92(TM) system (copyright 1992, Gaussian, Inc.),
 the Gaussian 90(TM) system (copyright 1990, Gaussian, Inc.),
 the Gaussian 88(TM) system (copyright 1988, Gaussian, Inc.),
 the Gaussian 86(TM) system (copyright 1986, Carnegie Mellon
 University), and the Gaussian 82(TM) system (copyright 1983,
 Carnegie Mellon University). Gaussian is a federally registered
 trademark of Gaussian, Inc.
  
 This software contains proprietary and confidential information,
 including trade secrets, belonging to Gaussian, Inc.
  
 This software is provided under written license and may be
 used, copied, transmitted, or stored only in accord with that
 written license.
  
 The following legend is applicable only to US Government
 contracts under FAR:
  
                    RESTRICTED RIGHTS LEGEND
  
 Use, reproduction and disclosure by the US Government is
 subject to restrictions as set forth in subparagraphs (a)
 and (c) of the Commercial Computer Software - Restricted
 Rights clause in FAR 52.227-19.
  
 Gaussian, Inc.
 340 Quinnipiac St., Bldg. 40, Wallingford CT 06492
  
  
 ---------------------------------------------------------------
 Warning -- This program may not be used in any manner that
 competes with the business of Gaussian, Inc. or will provide
 assistance to any competitor of Gaussian, Inc.  The licensee
 of this program is prohibited from giving any competitor of
 Gaussian, Inc. access to this program.  By using this program,
 the user acknowledges that Gaussian, Inc. is engaged in the
 business of creating and licensing software in the field of
 computational chemistry and represents and warrants to the
 licensee that it is not a competitor of Gaussian, Inc. and that
 it will not use this program in any manner prohibited above.
 ---------------------------------------------------------------
  

 Cite this work as:
 Gaussian 09, Revision D.01,
 M. J. Frisch, G. W. Trucks, H. B. Schlegel, G. E. Scuseria, 
 M. A. Robb, J. R. Cheeseman, G. Scalmani, V. Barone, B. Mennucci, 
 G. A. Petersson, H. Nakatsuji, M. Caricato, X. Li, H. P. Hratchian, 
 A. F. Izmaylov, J. Bloino, G. Zheng, J. L. Sonnenberg, M. Hada, 
 M. Ehara, K. Toyota, R. Fukuda, J. Hasegawa, M. Ishida, T. Nakajima, 
 Y. Honda, O. Kitao, H. Nakai, T. Vreven, J. A. Montgomery, Jr., 
 J. E. Peralta, F. Ogliaro, M. Bearpark, J. J. Heyd, E. Brothers, 
 K. N. Kudin, V. N. Staroverov, T. Keith, R. Kobayashi, J. Normand, 
 K. Raghavachari, A. Rendell, J. C. Burant, S. S. Iyengar, J. Tomasi, 
 M. Cossi, N. Rega, J. M. Millam, M. Klene, J. E. Knox, J. B. Cross, 
 V. Bakken, C. Adamo, J. Jaramillo, R. Gomperts, R. E. Stratmann, 
 O. Yazyev, A. J. Austin, R. Cammi, C. Pomelli, J. W. Ochterski, 
 R. L. Martin, K. Morokuma, V. G. Zakrzewski, G. A. Voth, 
 P. Salvador, J. J. Dannenberg, S. Dapprich, A. D. Daniels, 
 O. Farkas, J. B. Foresman, J. V. Ortiz, J. Cioslowski, 
 and D. J. Fox, Gaussian, Inc., Wallingford CT, 2013.
 
 ******************************************
 Gaussian 09:  AM64L-G09RevD.01 24-Apr-2013
                27-Jul-2019 
 ******************************************
 %Mem=32000MB
 %NProcShared=16
 Will use up to   16 processors via shared memory.
 %Chk=m1_00_120835-93-0-C32H16_wB97XD
 ----------------------------------------------------------------------
 #P wB97XD/def2tzvp opt=(tight) freq integral(Grid=ultrafine) # SCF(Max
 Cycle=380) 5d 7f GFPrint
 ----------------------------------------------------------------------
 1/7=10,14=-1,18=20,19=15,26=4,38=1/1,3;
 2/9=110,12=2,17=6,18=5,40=1/2;
 3/5=44,7=101,8=11,11=2,16=1,24=100,25=1,30=1,71=1,74=-58,75=-5/1,2,3;
 4//1;
 5/5=2,7=380,38=5/2;
 6/7=2,8=2,9=2,10=2,28=1/1;
 7//1,2,3,16;
 1/7=10,14=-1,18=20,19=15,26=4/3(2);
 2/9=110/2;
 99//99;
 2/9=110/2;
 3/5=44,7=101,8=11,11=2,16=1,25=1,30=1,71=1,74=-58,75=-5/1,2,3;
 4/5=5,16=3,69=1/1;
 5/5=2,7=380,38=5/2;
 7//1,2,3,16;
 1/7=10,14=-1,18=20,19=15,26=4/3(-5);
 2/9=110/2;
 6/7=2,8=2,9=2,10=2,19=2,28=1/1;
 99/9=1/99;
 Leave Link    1 at Sat Jul 27 11:07:59 2019, MaxMem=  4194304000 cpu:         0.9
 (Enter /home/minenky/programs//g09/l101.exe)
 ---------------------------------------
 The PBEPBE optimization and frequencies
 ---------------------------------------
 Symbolic Z-matrix:
 Charge =  0 Multiplicity = 1
 C                     3.10625   1.18427   0. 
 C                     1.76834  -1.30405   0. 
 C                     1.08207  -2.53155   0. 
 C                    -2.53312   1.05584   0. 
 C                    -2.62346   3.48157   0. 
 C                    -3.26363   2.27965   0. 
 C                    -1.19879   3.54291   0. 
 C                     1.59296   3.6382    0. 
 C                     0.8466    4.82859   0. 
 C                    -0.52579   4.78773   0. 
 C                     0.96651   2.4046    0. 
 C                    -0.4556    2.34551   0. 
 C                    -1.14115   1.08999   0. 
 C                    -0.37469  -0.13269   0. 
 C                     1.0398   -0.09651   0. 
 C                     1.74008   1.16404   0. 
 C                    -3.22998  -0.21478   0. 
 C                    -4.6284   -0.29069   0. 
 C                    -5.27202  -1.51943   0. 
 C                    -4.53886  -2.70115   0. 
 C                    -2.47931  -1.41088   0. 
 C                    -3.14338  -2.65975   0. 
 C                    -2.36169  -3.87318   0. 
 C                    -1.01222  -3.83388   0. 
 C                    -0.30292  -2.57631   0. 
 C                    -1.04546  -1.36549   0. 
 C                     3.87068  -0.02394   0. 
 C                     3.21402  -1.2669    0. 
 C                     3.98669  -2.44879   0. 
 C                     5.3609   -2.38819   0. 
 C                     6.01456  -1.14389   0. 
 C                     5.28321   0.02095   0. 
 H                     3.63945   2.14908   0. 
 H                     1.6692   -3.46422   0. 
 H                    -3.19044   4.4195    0. 
 H                    -4.3632    2.22271   0. 
 H                     2.69306   3.68345   0. 
 H                     1.37323   5.78865   0. 
 H                    -1.11403   5.71231   0. 
 H                    -5.21024   0.64376   0. 
 H                    -6.36641  -1.55905   0. 
 H                    -5.05487  -3.66794   0. 
 H                    -2.89945  -4.82836   0. 
 H                    -0.41943  -4.75587   0. 
 H                     3.46348  -3.41723   0. 
 H                     5.95405  -3.30848   0. 
 H                     7.10894  -1.11051   0. 
 H                     5.78655   0.99446   0. 
 
 NAtoms=     48 NQM=       48 NQMF=       0 NMMI=      0 NMMIF=      0
                NMic=       0 NMicF=      0.
                    Isotopes and Nuclear Properties:
 (Nuclear quadrupole moments (NQMom) in fm**2, nuclear magnetic moments (NMagM)
  in nuclear magnetons)

  Atom         1           2           3           4           5           6           7           8           9          10
 IAtWgt=          12          12          12          12          12          12          12          12          12          12
 AtmWgt=  12.0000000  12.0000000  12.0000000  12.0000000  12.0000000  12.0000000  12.0000000  12.0000000  12.0000000  12.0000000
 NucSpn=           0           0           0           0           0           0           0           0           0           0
 AtZEff=   0.0000000   0.0000000   0.0000000   0.0000000   0.0000000   0.0000000   0.0000000   0.0000000   0.0000000   0.0000000
 NQMom=    0.0000000   0.0000000   0.0000000   0.0000000   0.0000000   0.0000000   0.0000000   0.0000000   0.0000000   0.0000000
 NMagM=    0.0000000   0.0000000   0.0000000   0.0000000   0.0000000   0.0000000   0.0000000   0.0000000   0.0000000   0.0000000
 AtZNuc=   6.0000000   6.0000000   6.0000000   6.0000000   6.0000000   6.0000000   6.0000000   6.0000000   6.0000000   6.0000000

  Atom        11          12          13          14          15          16          17          18          19          20
 IAtWgt=          12          12          12          12          12          12          12          12          12          12
 AtmWgt=  12.0000000  12.0000000  12.0000000  12.0000000  12.0000000  12.0000000  12.0000000  12.0000000  12.0000000  12.0000000
 NucSpn=           0           0           0           0           0           0           0           0           0           0
 AtZEff=   0.0000000   0.0000000   0.0000000   0.0000000   0.0000000   0.0000000   0.0000000   0.0000000   0.0000000   0.0000000
 NQMom=    0.0000000   0.0000000   0.0000000   0.0000000   0.0000000   0.0000000   0.0000000   0.0000000   0.0000000   0.0000000
 NMagM=    0.0000000   0.0000000   0.0000000   0.0000000   0.0000000   0.0000000   0.0000000   0.0000000   0.0000000   0.0000000
 AtZNuc=   6.0000000   6.0000000   6.0000000   6.0000000   6.0000000   6.0000000   6.0000000   6.0000000   6.0000000   6.0000000

  Atom        21          22          23          24          25          26          27          28          29          30
 IAtWgt=          12          12          12          12          12          12          12          12          12          12
 AtmWgt=  12.0000000  12.0000000  12.0000000  12.0000000  12.0000000  12.0000000  12.0000000  12.0000000  12.0000000  12.0000000
 NucSpn=           0           0           0           0           0           0           0           0           0           0
 AtZEff=   0.0000000   0.0000000   0.0000000   0.0000000   0.0000000   0.0000000   0.0000000   0.0000000   0.0000000   0.0000000
 NQMom=    0.0000000   0.0000000   0.0000000   0.0000000   0.0000000   0.0000000   0.0000000   0.0000000   0.0000000   0.0000000
 NMagM=    0.0000000   0.0000000   0.0000000   0.0000000   0.0000000   0.0000000   0.0000000   0.0000000   0.0000000   0.0000000
 AtZNuc=   6.0000000   6.0000000   6.0000000   6.0000000   6.0000000   6.0000000   6.0000000   6.0000000   6.0000000   6.0000000

  Atom        31          32          33          34          35          36          37          38          39          40
 IAtWgt=          12          12           1           1           1           1           1           1           1           1
 AtmWgt=  12.0000000  12.0000000   1.0078250   1.0078250   1.0078250   1.0078250   1.0078250   1.0078250   1.0078250   1.0078250
 NucSpn=           0           0           1           1           1           1           1           1           1           1
 AtZEff=   0.0000000   0.0000000   0.0000000   0.0000000   0.0000000   0.0000000   0.0000000   0.0000000   0.0000000   0.0000000
 NQMom=    0.0000000   0.0000000   0.0000000   0.0000000   0.0000000   0.0000000   0.0000000   0.0000000   0.0000000   0.0000000
 NMagM=    0.0000000   0.0000000   2.7928460   2.7928460   2.7928460   2.7928460   2.7928460   2.7928460   2.7928460   2.7928460
 AtZNuc=   6.0000000   6.0000000   1.0000000   1.0000000   1.0000000   1.0000000   1.0000000   1.0000000   1.0000000   1.0000000

  Atom        41          42          43          44          45          46          47          48
 IAtWgt=           1           1           1           1           1           1           1           1
 AtmWgt=   1.0078250   1.0078250   1.0078250   1.0078250   1.0078250   1.0078250   1.0078250   1.0078250
 NucSpn=           1           1           1           1           1           1           1           1
 AtZEff=   0.0000000   0.0000000   0.0000000   0.0000000   0.0000000   0.0000000   0.0000000   0.0000000
 NQMom=    0.0000000   0.0000000   0.0000000   0.0000000   0.0000000   0.0000000   0.0000000   0.0000000
 NMagM=    2.7928460   2.7928460   2.7928460   2.7928460   2.7928460   2.7928460   2.7928460   2.7928460
 AtZNuc=   1.0000000   1.0000000   1.0000000   1.0000000   1.0000000   1.0000000   1.0000000   1.0000000
 Leave Link  101 at Sat Jul 27 11:07:59 2019, MaxMem=  4194304000 cpu:         5.1
 (Enter /home/minenky/programs//g09/l103.exe)

 GradGradGradGradGradGradGradGradGradGradGradGradGradGradGradGradGradGrad
 Berny optimization.
 Initialization pass.
                           ----------------------------
                           !    Initial Parameters    !
                           ! (Angstroms and Degrees)  !
 --------------------------                            --------------------------
 ! Name  Definition              Value          Derivative Info.                !
 --------------------------------------------------------------------------------
 ! R1    R(1,16)                 1.3663         estimate D2E/DX2                !
 ! R2    R(1,27)                 1.4297         estimate D2E/DX2                !
 ! R3    R(1,33)                 1.1023         estimate D2E/DX2                !
 ! R4    R(2,3)                  1.4063         estimate D2E/DX2                !
 ! R5    R(2,15)                 1.4103         estimate D2E/DX2                !
 ! R6    R(2,28)                 1.4462         estimate D2E/DX2                !
 ! R7    R(3,25)                 1.3857         estimate D2E/DX2                !
 ! R8    R(3,34)                 1.1021         estimate D2E/DX2                !
 ! R9    R(4,6)                  1.4252         estimate D2E/DX2                !
 ! R10   R(4,13)                 1.3924         estimate D2E/DX2                !
 ! R11   R(4,17)                 1.4492         estimate D2E/DX2                !
 ! R12   R(5,6)                  1.3618         estimate D2E/DX2                !
 ! R13   R(5,7)                  1.426          estimate D2E/DX2                !
 ! R14   R(5,35)                 1.096          estimate D2E/DX2                !
 ! R15   R(6,36)                 1.101          estimate D2E/DX2                !
 ! R16   R(7,10)                 1.4151         estimate D2E/DX2                !
 ! R17   R(7,12)                 1.4093         estimate D2E/DX2                !
 ! R18   R(8,9)                  1.405          estimate D2E/DX2                !
 ! R19   R(8,11)                 1.3835         estimate D2E/DX2                !
 ! R20   R(8,37)                 1.101          estimate D2E/DX2                !
 ! R21   R(9,10)                 1.373          estimate D2E/DX2                !
 ! R22   R(9,38)                 1.095          estimate D2E/DX2                !
 ! R23   R(10,39)                1.0958         estimate D2E/DX2                !
 ! R24   R(11,12)                1.4233         estimate D2E/DX2                !
 ! R25   R(11,16)                1.462          estimate D2E/DX2                !
 ! R26   R(12,13)                1.4305         estimate D2E/DX2                !
 ! R27   R(13,14)                1.4431         estimate D2E/DX2                !
 ! R28   R(14,15)                1.415          estimate D2E/DX2                !
 ! R29   R(14,26)                1.4035         estimate D2E/DX2                !
 ! R30   R(15,16)                1.442          estimate D2E/DX2                !
 ! R31   R(17,18)                1.4005         estimate D2E/DX2                !
 ! R32   R(17,21)                1.4121         estimate D2E/DX2                !
 ! R33   R(18,19)                1.3871         estimate D2E/DX2                !
 ! R34   R(18,40)                1.1008         estimate D2E/DX2                !
 ! R35   R(19,20)                1.3907         estimate D2E/DX2                !
 ! R36   R(19,41)                1.0951         estimate D2E/DX2                !
 ! R37   R(20,22)                1.3961         estimate D2E/DX2                !
 ! R38   R(20,42)                1.0959         estimate D2E/DX2                !
 ! R39   R(21,22)                1.4144         estimate D2E/DX2                !
 ! R40   R(21,26)                1.4346         estimate D2E/DX2                !
 ! R41   R(22,23)                1.4434         estimate D2E/DX2                !
 ! R42   R(23,24)                1.35           estimate D2E/DX2                !
 ! R43   R(23,43)                1.0962         estimate D2E/DX2                !
 ! R44   R(24,25)                1.4438         estimate D2E/DX2                !
 ! R45   R(24,44)                1.0961         estimate D2E/DX2                !
 ! R46   R(25,26)                1.4204         estimate D2E/DX2                !
 ! R47   R(27,28)                1.4058         estimate D2E/DX2                !
 ! R48   R(27,32)                1.4132         estimate D2E/DX2                !
 ! R49   R(28,29)                1.4121         estimate D2E/DX2                !
 ! R50   R(29,30)                1.3756         estimate D2E/DX2                !
 ! R51   R(29,45)                1.1007         estimate D2E/DX2                !
 ! R52   R(30,31)                1.4055         estimate D2E/DX2                !
 ! R53   R(30,46)                1.0949         estimate D2E/DX2                !
 ! R54   R(31,32)                1.3754         estimate D2E/DX2                !
 ! R55   R(31,47)                1.0949         estimate D2E/DX2                !
 ! R56   R(32,48)                1.0959         estimate D2E/DX2                !
 ! A1    A(16,1,27)            121.4734         estimate D2E/DX2                !
 ! A2    A(16,1,33)            119.7754         estimate D2E/DX2                !
 ! A3    A(27,1,33)            118.7512         estimate D2E/DX2                !
 ! A4    A(3,2,15)             119.6878         estimate D2E/DX2                !
 ! A5    A(3,2,28)             120.6806         estimate D2E/DX2                !
 ! A6    A(15,2,28)            119.6316         estimate D2E/DX2                !
 ! A7    A(2,3,25)             121.0599         estimate D2E/DX2                !
 ! A8    A(2,3,34)             118.6002         estimate D2E/DX2                !
 ! A9    A(25,3,34)            120.3399         estimate D2E/DX2                !
 ! A10   A(6,4,13)             119.4284         estimate D2E/DX2                !
 ! A11   A(6,4,17)             120.4247         estimate D2E/DX2                !
 ! A12   A(13,4,17)            120.147          estimate D2E/DX2                !
 ! A13   A(6,5,7)              120.5064         estimate D2E/DX2                !
 ! A14   A(6,5,35)             120.8066         estimate D2E/DX2                !
 ! A15   A(7,5,35)             118.687          estimate D2E/DX2                !
 ! A16   A(4,6,5)              121.1258         estimate D2E/DX2                !
 ! A17   A(4,6,36)             117.8695         estimate D2E/DX2                !
 ! A18   A(5,6,36)             121.0048         estimate D2E/DX2                !
 ! A19   A(5,7,10)             120.8632         estimate D2E/DX2                !
 ! A20   A(5,7,12)             119.3609         estimate D2E/DX2                !
 ! A21   A(10,7,12)            119.7759         estimate D2E/DX2                !
 ! A22   A(9,8,11)             120.9904         estimate D2E/DX2                !
 ! A23   A(9,8,37)             119.7317         estimate D2E/DX2                !
 ! A24   A(11,8,37)            119.2779         estimate D2E/DX2                !
 ! A25   A(8,9,10)             120.3818         estimate D2E/DX2                !
 ! A26   A(8,9,38)             119.1662         estimate D2E/DX2                !
 ! A27   A(10,9,38)            120.4521         estimate D2E/DX2                !
 ! A28   A(7,10,9)             120.1029         estimate D2E/DX2                !
 ! A29   A(7,10,39)            119.137          estimate D2E/DX2                !
 ! A30   A(9,10,39)            120.7601         estimate D2E/DX2                !
 ! A31   A(8,11,12)            119.3016         estimate D2E/DX2                !
 ! A32   A(8,11,16)            121.1311         estimate D2E/DX2                !
 ! A33   A(12,11,16)           119.5673         estimate D2E/DX2                !
 ! A34   A(7,12,11)            119.4474         estimate D2E/DX2                !
 ! A35   A(7,12,13)            119.5379         estimate D2E/DX2                !
 ! A36   A(11,12,13)           121.0147         estimate D2E/DX2                !
 ! A37   A(4,13,12)            120.0407         estimate D2E/DX2                !
 ! A38   A(4,13,14)            120.677          estimate D2E/DX2                !
 ! A39   A(12,13,14)           119.2823         estimate D2E/DX2                !
 ! A40   A(13,14,15)           120.6169         estimate D2E/DX2                !
 ! A41   A(13,14,26)           119.3671         estimate D2E/DX2                !
 ! A42   A(15,14,26)           120.016          estimate D2E/DX2                !
 ! A43   A(2,15,14)            119.6383         estimate D2E/DX2                !
 ! A44   A(2,15,16)            119.8429         estimate D2E/DX2                !
 ! A45   A(14,15,16)           120.5187         estimate D2E/DX2                !
 ! A46   A(1,16,11)            121.0983         estimate D2E/DX2                !
 ! A47   A(1,16,15)            119.9016         estimate D2E/DX2                !
 ! A48   A(11,16,15)           119.0001         estimate D2E/DX2                !
 ! A49   A(4,17,18)            121.849          estimate D2E/DX2                !
 ! A50   A(4,17,21)            119.1461         estimate D2E/DX2                !
 ! A51   A(18,17,21)           119.0049         estimate D2E/DX2                !
 ! A52   A(17,18,19)           120.7528         estimate D2E/DX2                !
 ! A53   A(17,18,40)           118.8014         estimate D2E/DX2                !
 ! A54   A(19,18,40)           120.4458         estimate D2E/DX2                !
 ! A55   A(18,19,20)           120.5383         estimate D2E/DX2                !
 ! A56   A(18,19,41)           119.719          estimate D2E/DX2                !
 ! A57   A(20,19,41)           119.7427         estimate D2E/DX2                !
 ! A58   A(19,20,22)           120.1167         estimate D2E/DX2                !
 ! A59   A(19,20,42)           120.0937         estimate D2E/DX2                !
 ! A60   A(22,20,42)           119.7895         estimate D2E/DX2                !
 ! A61   A(17,21,22)           119.8869         estimate D2E/DX2                !
 ! A62   A(17,21,26)           120.2988         estimate D2E/DX2                !
 ! A63   A(22,21,26)           119.8143         estimate D2E/DX2                !
 ! A64   A(20,22,21)           119.7003         estimate D2E/DX2                !
 ! A65   A(20,22,23)           121.0902         estimate D2E/DX2                !
 ! A66   A(21,22,23)           119.2095         estimate D2E/DX2                !
 ! A67   A(22,23,24)           121.1216         estimate D2E/DX2                !
 ! A68   A(22,23,43)           117.8316         estimate D2E/DX2                !
 ! A69   A(24,23,43)           121.0468         estimate D2E/DX2                !
 ! A70   A(23,24,25)           121.092          estimate D2E/DX2                !
 ! A71   A(23,24,44)           121.071          estimate D2E/DX2                !
 ! A72   A(25,24,44)           117.8371         estimate D2E/DX2                !
 ! A73   A(3,25,24)            121.2753         estimate D2E/DX2                !
 ! A74   A(3,25,26)            119.6674         estimate D2E/DX2                !
 ! A75   A(24,25,26)           119.0573         estimate D2E/DX2                !
 ! A76   A(14,26,21)           120.364          estimate D2E/DX2                !
 ! A77   A(14,26,25)           119.9306         estimate D2E/DX2                !
 ! A78   A(21,26,25)           119.7054         estimate D2E/DX2                !
 ! A79   A(1,27,28)            119.8307         estimate D2E/DX2                !
 ! A80   A(1,27,32)            120.5012         estimate D2E/DX2                !
 ! A81   A(28,27,32)           119.6681         estimate D2E/DX2                !
 ! A82   A(2,28,27)            119.3198         estimate D2E/DX2                !
 ! A83   A(2,28,29)            121.7027         estimate D2E/DX2                !
 ! A84   A(27,28,29)           118.9775         estimate D2E/DX2                !
 ! A85   A(28,29,30)           120.6497         estimate D2E/DX2                !
 ! A86   A(28,29,45)           118.4447         estimate D2E/DX2                !
 ! A87   A(30,29,45)           120.9056         estimate D2E/DX2                !
 ! A88   A(29,30,31)           120.239          estimate D2E/DX2                !
 ! A89   A(29,30,46)           120.2776         estimate D2E/DX2                !
 ! A90   A(31,30,46)           119.4834         estimate D2E/DX2                !
 ! A91   A(30,31,32)           120.1633         estimate D2E/DX2                !
 ! A92   A(30,31,47)           119.4609         estimate D2E/DX2                !
 ! A93   A(32,31,47)           120.3757         estimate D2E/DX2                !
 ! A94   A(27,32,31)           120.3025         estimate D2E/DX2                !
 ! A95   A(27,32,48)           119.1609         estimate D2E/DX2                !
 ! A96   A(31,32,48)           120.5367         estimate D2E/DX2                !
 ! D1    D(27,1,16,11)         180.0            estimate D2E/DX2                !
 ! D2    D(27,1,16,15)           0.0            estimate D2E/DX2                !
 ! D3    D(33,1,16,11)           0.0            estimate D2E/DX2                !
 ! D4    D(33,1,16,15)         180.0            estimate D2E/DX2                !
 ! D5    D(16,1,27,28)           0.0            estimate D2E/DX2                !
 ! D6    D(16,1,27,32)         180.0            estimate D2E/DX2                !
 ! D7    D(33,1,27,28)         180.0            estimate D2E/DX2                !
 ! D8    D(33,1,27,32)           0.0            estimate D2E/DX2                !
 ! D9    D(15,2,3,25)            0.0            estimate D2E/DX2                !
 ! D10   D(15,2,3,34)          180.0            estimate D2E/DX2                !
 ! D11   D(28,2,3,25)          180.0            estimate D2E/DX2                !
 ! D12   D(28,2,3,34)            0.0            estimate D2E/DX2                !
 ! D13   D(3,2,15,14)            0.0            estimate D2E/DX2                !
 ! D14   D(3,2,15,16)          180.0            estimate D2E/DX2                !
 ! D15   D(28,2,15,14)         180.0            estimate D2E/DX2                !
 ! D16   D(28,2,15,16)           0.0            estimate D2E/DX2                !
 ! D17   D(3,2,28,27)          180.0            estimate D2E/DX2                !
 ! D18   D(3,2,28,29)            0.0            estimate D2E/DX2                !
 ! D19   D(15,2,28,27)           0.0            estimate D2E/DX2                !
 ! D20   D(15,2,28,29)         180.0            estimate D2E/DX2                !
 ! D21   D(2,3,25,24)          180.0            estimate D2E/DX2                !
 ! D22   D(2,3,25,26)            0.0            estimate D2E/DX2                !
 ! D23   D(34,3,25,24)           0.0            estimate D2E/DX2                !
 ! D24   D(34,3,25,26)         180.0            estimate D2E/DX2                !
 ! D25   D(13,4,6,5)             0.0            estimate D2E/DX2                !
 ! D26   D(13,4,6,36)          180.0            estimate D2E/DX2                !
 ! D27   D(17,4,6,5)           180.0            estimate D2E/DX2                !
 ! D28   D(17,4,6,36)            0.0            estimate D2E/DX2                !
 ! D29   D(6,4,13,12)            0.0            estimate D2E/DX2                !
 ! D30   D(6,4,13,14)          180.0            estimate D2E/DX2                !
 ! D31   D(17,4,13,12)         180.0            estimate D2E/DX2                !
 ! D32   D(17,4,13,14)           0.0            estimate D2E/DX2                !
 ! D33   D(6,4,17,18)            0.0            estimate D2E/DX2                !
 ! D34   D(6,4,17,21)          180.0            estimate D2E/DX2                !
 ! D35   D(13,4,17,18)         180.0            estimate D2E/DX2                !
 ! D36   D(13,4,17,21)           0.0            estimate D2E/DX2                !
 ! D37   D(7,5,6,4)              0.0            estimate D2E/DX2                !
 ! D38   D(7,5,6,36)           180.0            estimate D2E/DX2                !
 ! D39   D(35,5,6,4)           180.0            estimate D2E/DX2                !
 ! D40   D(35,5,6,36)            0.0            estimate D2E/DX2                !
 ! D41   D(6,5,7,10)           180.0            estimate D2E/DX2                !
 ! D42   D(6,5,7,12)             0.0            estimate D2E/DX2                !
 ! D43   D(35,5,7,10)            0.0            estimate D2E/DX2                !
 ! D44   D(35,5,7,12)          180.0            estimate D2E/DX2                !
 ! D45   D(5,7,10,9)           180.0            estimate D2E/DX2                !
 ! D46   D(5,7,10,39)            0.0            estimate D2E/DX2                !
 ! D47   D(12,7,10,9)            0.0            estimate D2E/DX2                !
 ! D48   D(12,7,10,39)         180.0            estimate D2E/DX2                !
 ! D49   D(5,7,12,11)          180.0            estimate D2E/DX2                !
 ! D50   D(5,7,12,13)            0.0            estimate D2E/DX2                !
 ! D51   D(10,7,12,11)           0.0            estimate D2E/DX2                !
 ! D52   D(10,7,12,13)         180.0            estimate D2E/DX2                !
 ! D53   D(11,8,9,10)            0.0            estimate D2E/DX2                !
 ! D54   D(11,8,9,38)          180.0            estimate D2E/DX2                !
 ! D55   D(37,8,9,10)          180.0            estimate D2E/DX2                !
 ! D56   D(37,8,9,38)            0.0            estimate D2E/DX2                !
 ! D57   D(9,8,11,12)            0.0            estimate D2E/DX2                !
 ! D58   D(9,8,11,16)          180.0            estimate D2E/DX2                !
 ! D59   D(37,8,11,12)         180.0            estimate D2E/DX2                !
 ! D60   D(37,8,11,16)           0.0            estimate D2E/DX2                !
 ! D61   D(8,9,10,7)             0.0            estimate D2E/DX2                !
 ! D62   D(8,9,10,39)          180.0            estimate D2E/DX2                !
 ! D63   D(38,9,10,7)          180.0            estimate D2E/DX2                !
 ! D64   D(38,9,10,39)           0.0            estimate D2E/DX2                !
 ! D65   D(8,11,12,7)            0.0            estimate D2E/DX2                !
 ! D66   D(8,11,12,13)         180.0            estimate D2E/DX2                !
 ! D67   D(16,11,12,7)         180.0            estimate D2E/DX2                !
 ! D68   D(16,11,12,13)          0.0            estimate D2E/DX2                !
 ! D69   D(8,11,16,1)            0.0            estimate D2E/DX2                !
 ! D70   D(8,11,16,15)         180.0            estimate D2E/DX2                !
 ! D71   D(12,11,16,1)         180.0            estimate D2E/DX2                !
 ! D72   D(12,11,16,15)          0.0            estimate D2E/DX2                !
 ! D73   D(7,12,13,4)            0.0            estimate D2E/DX2                !
 ! D74   D(7,12,13,14)         180.0            estimate D2E/DX2                !
 ! D75   D(11,12,13,4)         180.0            estimate D2E/DX2                !
 ! D76   D(11,12,13,14)          0.0            estimate D2E/DX2                !
 ! D77   D(4,13,14,15)         180.0            estimate D2E/DX2                !
 ! D78   D(4,13,14,26)           0.0            estimate D2E/DX2                !
 ! D79   D(12,13,14,15)          0.0            estimate D2E/DX2                !
 ! D80   D(12,13,14,26)        180.0            estimate D2E/DX2                !
 ! D81   D(13,14,15,2)         180.0            estimate D2E/DX2                !
 ! D82   D(13,14,15,16)          0.0            estimate D2E/DX2                !
 ! D83   D(26,14,15,2)           0.0            estimate D2E/DX2                !
 ! D84   D(26,14,15,16)        180.0            estimate D2E/DX2                !
 ! D85   D(13,14,26,21)          0.0            estimate D2E/DX2                !
 ! D86   D(13,14,26,25)        180.0            estimate D2E/DX2                !
 ! D87   D(15,14,26,21)        180.0            estimate D2E/DX2                !
 ! D88   D(15,14,26,25)          0.0            estimate D2E/DX2                !
 ! D89   D(2,15,16,1)            0.0            estimate D2E/DX2                !
 ! D90   D(2,15,16,11)         180.0            estimate D2E/DX2                !
 ! D91   D(14,15,16,1)         180.0            estimate D2E/DX2                !
 ! D92   D(14,15,16,11)          0.0            estimate D2E/DX2                !
 ! D93   D(4,17,18,19)         180.0            estimate D2E/DX2                !
 ! D94   D(4,17,18,40)           0.0            estimate D2E/DX2                !
 ! D95   D(21,17,18,19)          0.0            estimate D2E/DX2                !
 ! D96   D(21,17,18,40)        180.0            estimate D2E/DX2                !
 ! D97   D(4,17,21,22)         180.0            estimate D2E/DX2                !
 ! D98   D(4,17,21,26)           0.0            estimate D2E/DX2                !
 ! D99   D(18,17,21,22)          0.0            estimate D2E/DX2                !
 ! D100  D(18,17,21,26)        180.0            estimate D2E/DX2                !
 ! D101  D(17,18,19,20)          0.0            estimate D2E/DX2                !
 ! D102  D(17,18,19,41)        180.0            estimate D2E/DX2                !
 ! D103  D(40,18,19,20)        180.0            estimate D2E/DX2                !
 ! D104  D(40,18,19,41)          0.0            estimate D2E/DX2                !
 ! D105  D(18,19,20,22)          0.0            estimate D2E/DX2                !
 ! D106  D(18,19,20,42)        180.0            estimate D2E/DX2                !
 ! D107  D(41,19,20,22)        180.0            estimate D2E/DX2                !
 ! D108  D(41,19,20,42)          0.0            estimate D2E/DX2                !
 ! D109  D(19,20,22,21)          0.0            estimate D2E/DX2                !
 ! D110  D(19,20,22,23)        180.0            estimate D2E/DX2                !
 ! D111  D(42,20,22,21)        180.0            estimate D2E/DX2                !
 ! D112  D(42,20,22,23)          0.0            estimate D2E/DX2                !
 ! D113  D(17,21,22,20)          0.0            estimate D2E/DX2                !
 ! D114  D(17,21,22,23)        180.0            estimate D2E/DX2                !
 ! D115  D(26,21,22,20)        180.0            estimate D2E/DX2                !
 ! D116  D(26,21,22,23)          0.0            estimate D2E/DX2                !
 ! D117  D(17,21,26,14)          0.0            estimate D2E/DX2                !
 ! D118  D(17,21,26,25)        180.0            estimate D2E/DX2                !
 ! D119  D(22,21,26,14)        180.0            estimate D2E/DX2                !
 ! D120  D(22,21,26,25)          0.0            estimate D2E/DX2                !
 ! D121  D(20,22,23,24)        180.0            estimate D2E/DX2                !
 ! D122  D(20,22,23,43)          0.0            estimate D2E/DX2                !
 ! D123  D(21,22,23,24)          0.0            estimate D2E/DX2                !
 ! D124  D(21,22,23,43)        180.0            estimate D2E/DX2                !
 ! D125  D(22,23,24,25)          0.0            estimate D2E/DX2                !
 ! D126  D(22,23,24,44)        180.0            estimate D2E/DX2                !
 ! D127  D(43,23,24,25)        180.0            estimate D2E/DX2                !
 ! D128  D(43,23,24,44)          0.0            estimate D2E/DX2                !
 ! D129  D(23,24,25,3)         180.0            estimate D2E/DX2                !
 ! D130  D(23,24,25,26)          0.0            estimate D2E/DX2                !
 ! D131  D(44,24,25,3)           0.0            estimate D2E/DX2                !
 ! D132  D(44,24,25,26)        180.0            estimate D2E/DX2                !
 ! D133  D(3,25,26,14)           0.0            estimate D2E/DX2                !
 ! D134  D(3,25,26,21)         180.0            estimate D2E/DX2                !
 ! D135  D(24,25,26,14)        180.0            estimate D2E/DX2                !
 ! D136  D(24,25,26,21)          0.0            estimate D2E/DX2                !
 ! D137  D(1,27,28,2)            0.0            estimate D2E/DX2                !
 ! D138  D(1,27,28,29)         180.0            estimate D2E/DX2                !
 ! D139  D(32,27,28,2)         180.0            estimate D2E/DX2                !
 ! D140  D(32,27,28,29)          0.0            estimate D2E/DX2                !
 ! D141  D(1,27,32,31)         180.0            estimate D2E/DX2                !
 ! D142  D(1,27,32,48)           0.0            estimate D2E/DX2                !
 ! D143  D(28,27,32,31)          0.0            estimate D2E/DX2                !
 ! D144  D(28,27,32,48)        180.0            estimate D2E/DX2                !
 ! D145  D(2,28,29,30)         180.0            estimate D2E/DX2                !
 ! D146  D(2,28,29,45)           0.0            estimate D2E/DX2                !
 ! D147  D(27,28,29,30)          0.0            estimate D2E/DX2                !
 ! D148  D(27,28,29,45)        180.0            estimate D2E/DX2                !
 ! D149  D(28,29,30,31)          0.0            estimate D2E/DX2                !
 ! D150  D(28,29,30,46)        180.0            estimate D2E/DX2                !
 ! D151  D(45,29,30,31)        180.0            estimate D2E/DX2                !
 ! D152  D(45,29,30,46)          0.0            estimate D2E/DX2                !
 ! D153  D(29,30,31,32)          0.0            estimate D2E/DX2                !
 ! D154  D(29,30,31,47)        180.0            estimate D2E/DX2                !
 ! D155  D(46,30,31,32)        180.0            estimate D2E/DX2                !
 ! D156  D(46,30,31,47)          0.0            estimate D2E/DX2                !
 ! D157  D(30,31,32,27)          0.0            estimate D2E/DX2                !
 ! D158  D(30,31,32,48)        180.0            estimate D2E/DX2                !
 ! D159  D(47,31,32,27)        180.0            estimate D2E/DX2                !
 ! D160  D(47,31,32,48)          0.0            estimate D2E/DX2                !
 --------------------------------------------------------------------------------
 Trust Radius=3.00D-01 FncErr=1.00D-07 GrdErr=1.00D-06
 Number of steps in this run=    288 maximum allowed number of steps=    288.
 GradGradGradGradGradGradGradGradGradGradGradGradGradGradGradGradGradGrad

 Leave Link  103 at Sat Jul 27 11:07:59 2019, MaxMem=  4194304000 cpu:         0.2
 (Enter /home/minenky/programs//g09/l202.exe)
                          Input orientation:                          
 ---------------------------------------------------------------------
 Center     Atomic      Atomic             Coordinates (Angstroms)
 Number     Number       Type             X           Y           Z
 ---------------------------------------------------------------------
      1          6           0        3.106249    1.184269    0.000000
      2          6           0        1.768336   -1.304046    0.000000
      3          6           0        1.082066   -2.531548    0.000000
      4          6           0       -2.533125    1.055843    0.000000
      5          6           0       -2.623463    3.481566    0.000000
      6          6           0       -3.263630    2.279648    0.000000
      7          6           0       -1.198792    3.542914    0.000000
      8          6           0        1.592958    3.638198    0.000000
      9          6           0        0.846596    4.828593    0.000000
     10          6           0       -0.525791    4.787732    0.000000
     11          6           0        0.966509    2.404598    0.000000
     12          6           0       -0.455603    2.345513    0.000000
     13          6           0       -1.141148    1.089987    0.000000
     14          6           0       -0.374691   -0.132695    0.000000
     15          6           0        1.039802   -0.096513    0.000000
     16          6           0        1.740080    1.164044    0.000000
     17          6           0       -3.229977   -0.214781    0.000000
     18          6           0       -4.628404   -0.290692    0.000000
     19          6           0       -5.272020   -1.519428    0.000000
     20          6           0       -4.538864   -2.701149    0.000000
     21          6           0       -2.479315   -1.410880    0.000000
     22          6           0       -3.143379   -2.659749    0.000000
     23          6           0       -2.361692   -3.873178    0.000000
     24          6           0       -1.012218   -3.833884    0.000000
     25          6           0       -0.302917   -2.576313    0.000000
     26          6           0       -1.045456   -1.365487    0.000000
     27          6           0        3.870681   -0.023938    0.000000
     28          6           0        3.214018   -1.266896    0.000000
     29          6           0        3.986686   -2.448793    0.000000
     30          6           0        5.360904   -2.388192    0.000000
     31          6           0        6.014563   -1.143892    0.000000
     32          6           0        5.283212    0.020953    0.000000
     33          1           0        3.639452    2.149078    0.000000
     34          1           0        1.669205   -3.464225    0.000000
     35          1           0       -3.190440    4.419503    0.000000
     36          1           0       -4.363199    2.222714    0.000000
     37          1           0        2.693055    3.683448    0.000000
     38          1           0        1.373228    5.788648    0.000000
     39          1           0       -1.114029    5.712308    0.000000
     40          1           0       -5.210240    0.643758    0.000000
     41          1           0       -6.366412   -1.559049    0.000000
     42          1           0       -5.054869   -3.667936    0.000000
     43          1           0       -2.899447   -4.828363    0.000000
     44          1           0       -0.419431   -4.755867    0.000000
     45          1           0        3.463478   -3.417233    0.000000
     46          1           0        5.954051   -3.308482    0.000000
     47          1           0        7.108938   -1.110513    0.000000
     48          1           0        5.786548    0.994455    0.000000
 ---------------------------------------------------------------------
                    Distance matrix (angstroms):
                    1          2          3          4          5
     1  C    0.000000
     2  C    2.825194   0.000000
     3  C    4.231384   1.406316   0.000000
     4  C    5.640836   4.906285   5.093032   0.000000
     5  C    6.173100   6.495381   7.063177   2.427405   0.000000
     6  C    6.463374   6.177664   6.483261   1.425249   1.361771
     7  C    4.908827   5.683034   6.488559   2.822405   1.425991
     8  C    2.883022   4.945355   6.190862   4.867558   4.219329
     9  C    4.288021   6.201521   7.363906   5.065191   3.722337
    10  C    5.116314   6.509438   7.493802   4.237498   2.471092
    11  C    2.463269   3.794334   4.937498   3.750543   3.748033
    12  C    3.746368   4.273779   5.113721   2.445271   2.447495
    13  C    4.248443   3.767823   4.249493   1.392396   2.813700
    14  C    3.721738   2.442259   2.806535   2.464033   4.256742
    15  C    2.431174   1.410282   2.435401   3.754162   5.120757
    16  C    1.366319   2.468252   3.753716   4.274574   4.940790
    17  C    6.488844   5.115626   4.895010   1.449168   3.745776
    18  C    7.874031   6.476508   6.134403   2.490652   4.271968
    19  C    8.803713   7.043649   6.434189   3.759463   5.659045
    20  C    8.575793   6.460082   5.623489   4.258870   6.472613
    21  C    6.159003   4.248994   3.733541   2.467309   4.894568
    22  C    7.337188   5.095377   4.227390   3.765372   6.163283
    23  C    7.448232   4.863905   3.695869   4.932001   7.359401
    24  C    6.491812   3.759196   2.466192   5.120799   7.490788
    25  C    5.075864   2.430792   1.385707   4.262204   6.487128
    26  C    4.872156   2.814462   2.426118   2.841829   5.097452
    27  C    1.429727   2.461408   3.750263   6.494201   7.379868
    28  C    2.453533   1.446159   2.478822   6.198771   7.524896
    29  C    3.738223   2.496302   2.905798   7.402054   8.880497
    30  C    4.224446   3.752589   4.281239   8.612611   9.909802
    31  C    3.725402   4.249246   5.123974   8.826199   9.798486
    32  C    2.468294   3.756325   4.915779   7.884550   8.630837
    33  H    1.102344   3.927485   5.333711   6.268642   6.403095
    34  H    4.865551   2.162452   1.102097   6.171757   8.165231
    35  H    7.079197   7.572877   8.159131   3.427284   1.095988
    36  H    7.541287   7.073454   7.228687   2.170428   2.147415
    37  H    2.533106   5.072495   6.420394   5.849553   5.320350
    38  H    4.919722   7.103691   8.325289   6.136696   4.614777
    39  H    6.189821   7.585331   8.531353   4.867906   2.693437
    40  H    8.334035   7.245306   7.048098   2.708646   3.839866
    41  H    9.861901   8.138743   7.511696   4.640231   6.278333
    42  H    9.494616   7.221087   6.241262   5.354743   7.551629
    43  H    8.498242   5.848846   4.596500   5.895597   8.314510
    44  H    6.907650   4.086733   2.683671   6.184147   8.527195
    45  H    4.615348   2.709071   2.540779   7.481153   9.200232
    46  H    5.319285   4.640903   4.933544   9.543557  10.939766
    47  H    4.613843   5.344108   6.192134   9.882433  10.761358
    48  H    2.687012   4.629162   5.879187   8.319899   8.770062
                    6          7          8          9         10
     6  C    0.000000
     7  C    2.420619   0.000000
     8  C    5.043025   2.793375   0.000000
     9  C    4.836433   2.415902   1.405025   0.000000
    10  C    3.712983   1.415098   2.410504   1.372996   0.000000
    11  C    4.231983   2.446281   1.383549   2.426959   2.811812
    12  C    2.808799   1.409291   2.422320   2.803820   2.443228
    13  C    2.433150   2.453605   3.737474   4.234183   3.748598
    14  C    3.763690   3.766861   4.253384   5.109395   4.922747
    15  C    4.915858   4.272790   3.775454   4.928895   5.129029
    16  C    5.126566   3.781004   2.478524   3.771900   4.273791
    17  C    2.494656   4.271532   6.173018   6.484911   5.686630
    18  C    2.910198   5.143809   7.358092   7.495512   6.528539
    19  C    4.297279   6.497576   8.586561   8.816736   7.893476
    20  C    5.141455   7.081271   8.819669   9.257440   8.496358
    21  C    3.772949   5.116621   6.486647   7.070552   6.499157
    22  C    4.940860   6.500342   7.880166   8.484997   7.894095
    23  C    6.218582   7.506715   8.488818   9.274370   8.853356
    24  C    6.514915   7.379157   7.913213   8.859667   8.635327
    25  C    5.687370   6.184459   6.497268   7.493599   7.367417
    26  C    4.267001   4.910795   5.656685   6.476610   6.175124
    27  C    7.496992   6.198547   4.312686   5.717704   6.517756
    28  C    7.384977   6.527417   5.166022   6.539088   7.116509
    29  C    8.655936   7.923998   6.540749   7.925940   8.528175
    30  C    9.806697   8.843508   7.107376   8.512400   9.281545
    31  C    9.889665   8.602246   6.512985   7.898003   8.829519
    32  C    8.840260   7.377031   5.167440   6.541939   7.514433
    33  H    6.904316   5.035016   2.530932   3.870381   4.930695
    34  H    7.571323   7.571354   7.102832   8.333518   8.538900
    35  H    2.141107   2.176022   4.846786   4.057711   2.689971
    36  H    1.101042   3.428760   6.122042   5.825167   4.615736
    37  H    6.119865   3.894384   1.101028   2.172733   3.403001
    38  H    5.814941   3.414471   2.161647   1.095010   2.146650
    39  H    4.050178   2.171049   3.410236   2.150582   1.095839
    40  H    2.542721   4.949427   7.433046   7.361937   6.254326
    41  H    4.935874   7.261840   9.505942   9.634804   8.625223
    42  H    6.211464   8.177144   9.877914  10.344965   9.592229
    43  H    7.117334   8.542277   9.584589  10.358071   9.904722
    44  H    7.588671   8.335297   8.631920   9.667714   9.544192
    45  H    8.815238   8.377375   7.299175   8.651111   9.123362
    46  H   10.779278   9.904787   8.202164   9.607189  10.370007
    47  H   10.912532   9.522225   7.278482   8.630754   9.647715
    48  H    9.140975   7.435699   4.957376   6.253298   7.364413
                   11         12         13         14         15
    11  C    0.000000
    12  C    1.423338   0.000000
    13  C    2.484033   1.430496   0.000000
    14  C    2.869961   2.479528   1.443055   0.000000
    15  C    2.502185   2.863517   2.482806   1.414956   0.000000
    16  C    1.461980   2.493369   2.882179   2.480683   1.442011
    17  C    4.946882   3.775216   2.462849   2.856465   4.271416
    18  C    6.210284   4.935772   3.750630   4.256646   5.671531
    19  C    7.370022   6.175406   4.886015   5.089878   6.470222
    20  C    7.508514   6.491673   5.090892   4.892575   6.156756
    21  C    5.141164   4.266837   2.836375   2.462356   3.756560
    22  C    6.522177   5.681266   4.250817   3.748551   4.906035
    23  C    7.105449   6.504252   5.111041   4.235492   5.082653
    24  C    6.544770   6.204415   4.925558   3.755694   4.263651
    25  C    5.140128   4.924194   3.760902   2.444672   2.819982
    26  C    4.273352   3.757585   2.457337   1.403460   2.441023
    27  C    3.785763   4.932649   5.134126   4.246765   2.831809
    28  C    4.304785   5.149331   4.952006   3.763674   2.469213
    29  C    5.716370   6.536001   6.230381   4.938211   3.770590
    30  C    6.502427   7.499314   7.373901   6.163142   4.891188
    31  C    6.170465   7.351121   7.496293   6.468778   5.083822
    32  C    4.931095   6.191734   6.512698   5.659989   4.245036
    33  H    2.685129   4.099763   4.896510   4.617340   3.435238
    34  H    5.910742   6.186102   5.351535   3.908530   3.426022
    35  H    4.619531   3.432313   3.909639   5.352658   6.187839
    36  H    5.332810   3.909525   3.415360   4.632077   5.879730
    37  H    2.148586   3.421128   4.628948   4.896327   4.125695
    38  H    3.408403   3.898692   5.329119   6.173939   5.894599
    39  H    3.907631   3.430573   4.622401   5.891577   6.195272
    40  H    6.422833   5.050005   4.093487   4.897491   6.293729
    41  H    8.335600   7.084015   5.858393   6.159156   7.549239
    42  H    8.551763   7.570655   6.160766   5.865321   7.063998
    43  H    8.201301   7.578711   6.174016   5.331387   6.156954
    44  H    7.293359   7.101472   5.890236   4.623389   4.882513
    45  H    6.334712   6.969106   6.443416   5.051706   4.111130
    46  H    7.583856   8.547007   8.347956   7.080862   5.870825
    47  H    7.077108   8.316634   8.538508   7.547241   6.153260
    48  H    5.022079   6.386689   6.928354   6.263492   4.870504
                   16         17         18         19         20
    16  C    0.000000
    17  C    5.157773   0.000000
    18  C    6.532522   1.400486   0.000000
    19  C    7.508033   2.423230   1.387096   0.000000
    20  C    7.373253   2.809842   2.412119   1.390676   0.000000
    21  C    4.943028   1.412142   2.423511   2.794814   2.430337
    22  C    6.202384   2.446501   2.796020   2.414838   1.396099
    23  C    6.496010   3.760025   4.239362   3.743012   2.472596
    24  C    5.705648   4.244568   5.062708   4.847950   3.704096
    25  C    4.261938   3.760919   4.892229   5.080254   4.237786
    26  C    3.762676   2.469060   3.740682   4.229366   3.740040
    27  C    2.439419   7.103222   8.503270   9.264203   8.825412
    28  C    2.842880   6.529320   7.902946   8.489794   7.884431
    29  C    4.254391   7.554538   8.881282   9.305232   8.529284
    30  C    5.072352   8.861544  10.207144  10.668356   9.904714
    31  C    4.857754   9.291112  10.677110  11.292828  10.667702
    32  C    3.722962   8.516452   9.916514  10.667038  10.192302
    33  H    2.139604   7.264770   8.620320   9.637026   9.508394
    34  H    4.628812   5.878849   7.052034   7.208525   6.254791
    35  H    5.908302   4.634453   4.924802   6.293161   7.247202
    36  H    6.194416   2.688042   2.527358   3.850920   4.926995
    37  H    2.693614   7.090734   8.330519   9.513798   9.646955
    38  H    4.639131   7.565095   8.542714   9.877616  10.345506
    39  H    5.369603   6.293459   6.956065   8.341876   9.083818
    40  H    6.969767   2.158363   1.100786   2.164068   3.411619
    41  H    8.551634   3.412372   2.151604   1.095109   2.155069
    42  H    8.337827   3.905702   3.404064   2.159453   1.095873
    43  H    7.578532   4.625406   4.855898   4.071627   2.685652
    44  H    6.301495   5.340471   6.136224   5.832851   4.603433
    45  H    4.894712   7.420110   8.674895   8.939272   8.034317
    46  H    6.145002   9.691097  11.004336  11.367734  10.510477
    47  H    5.830802  10.377645  11.765939  12.387709  11.755910
    48  H    4.050020   9.097251  10.493942  11.340702  10.966842
                   21         22         23         24         25
    21  C    0.000000
    22  C    1.414445   0.000000
    23  C    2.465106   1.443414   0.000000
    24  C    2.832547   2.433196   1.350047   0.000000
    25  C    2.468794   2.841687   2.433190   1.443811   0.000000
    26  C    1.434578   2.465035   2.832137   2.468621   1.420375
    27  C    6.499696   7.492965   7.325239   6.193414   4.892191
    28  C    5.695153   6.508190   6.154774   4.944743   3.752786
    29  C    6.548773   7.133185   6.506211   5.187245   4.291498
    30  C    7.900897   8.508618   7.864076   6.535037   5.666945
    31  C    8.498072   9.282549   8.809691   7.524074   6.477838
    32  C    7.893476   8.842715   8.579559   7.381883   6.160409
    33  H    7.079026   8.314542   8.501841   7.578513   6.153990
    34  H    4.628870   4.879359   4.051589   2.706783   2.162788
    35  H    5.873590   7.079408   8.333990   8.535985   7.568305
    36  H    4.092923   5.032534   6.416068   6.921809   6.286219
    37  H    7.259862   8.619751   9.091374   8.380890   6.939774
    38  H    8.165494   9.579935  10.358596   9.913802   8.531239
    39  H    7.252848   8.614499   9.666344   9.546734   8.328214
    40  H    3.417527   3.896803   5.340125   6.137806   5.869470
    41  H    3.889920   3.405801   4.625254   5.817411   6.148235
    42  H    3.424585   2.161072   2.700986   4.046056   4.875724
    43  H    3.443211   2.182290   1.096156   2.133219   3.437105
    44  H    3.928366   3.437093   2.133429   1.096107   2.182666
    45  H    6.272339   6.650138   5.842987   4.495047   3.859129
    46  H    8.644221   9.120531   8.334894   6.986053   6.299660
    47  H    9.592957  10.368710   9.865352   8.565624   7.555407
    48  H    8.608723   9.648668   9.491453   8.338829   7.059176
                   26         27         28         29         30
    26  C    0.000000
    27  C    5.095895   0.000000
    28  C    4.260614   1.405756   0.000000
    29  C    5.147427   2.427629   1.412054   0.000000
    30  C    6.487478   2.794721   2.422071   1.375554   0.000000
    31  C    7.063495   2.418786   2.803245   2.411442   1.405543
    32  C    6.478754   1.413245   2.437237   2.789378   2.410397
    33  H    5.856665   2.185284   3.442364   4.610964   4.852856
    34  H    3.431338   4.084369   2.686019   2.530182   3.845321
    35  H    6.169851   8.342877   8.564591   9.934014  10.930243
    36  H    4.886983   8.534882   8.342157   9.567840  10.761906
    37  H    6.282373   3.889925   4.977681   6.267206   6.631910
    38  H    7.551932   6.326407   7.291722   8.642083   9.097377
    39  H    7.078127   7.599464   8.212264   9.623974  10.370287
    40  H    4.624121   9.105435   8.638213   9.702955  10.997355
    41  H    5.324476  10.351552   9.584883  10.391260  11.756591
    42  H    4.623491   9.640755   8.610428   9.123378  10.494097
    43  H    3.927950   8.301634   7.075203   7.285683   8.613236
    44  H    3.447693   6.387191   5.037347   4.973576   6.246452
    45  H    4.953801   3.417640   2.164759   1.100737   2.158507
    46  H    7.264181   3.889558   3.416995   2.146995   1.094878
    47  H    8.158379   3.415693   3.898059   3.396977   2.165199
    48  H    7.228111   2.169717   3.425145   3.885288   3.409322
                   31         32         33         34         35
    31  C    0.000000
    32  C    1.375405   0.000000
    33  H    4.060148   2.689026   0.000000
    34  H    4.926061   5.020709   5.949037   0.000000
    35  H   10.755624   9.547252   7.197379   9.261173   0.000000
    36  H   10.910177   9.894493   8.002989   8.290426   2.490230
    37  H    5.859661   4.485842   1.802764   7.220630   5.929359
    38  H    8.342787   6.968090   4.287452   9.257606   4.764622
    39  H    9.890616   8.562489   5.940723   9.589325   2.445982
    40  H   11.366261  10.511918   8.976806   8.012633   4.282038
    41  H   12.387933  11.756281  10.670872   8.258380   6.769777
    42  H   11.353550  10.976512  10.460825   6.727159   8.299564
    43  H    9.645460   9.511665   9.562524   4.767961   9.252443
    44  H    7.378525   7.438961   8.009544   2.455756   9.584671
    45  H    3.417033   3.890059   5.569092   1.794888  10.280519
    46  H    2.165436   3.396346   5.928097   4.287675  11.972614
    47  H    1.094885   2.147904   4.760490   5.927112  11.690093
    48  H    2.150470   1.095926   2.437862   6.068965   9.608187
                   36         37         38         39         40
    36  H    0.000000
    37  H    7.205863   0.000000
    38  H    6.754442   2.484715   0.000000
    39  H    4.768058   4.313950   2.488428   0.000000
    40  H    1.791810   8.467692   8.355355   6.516836   0.000000
    41  H    4.279555  10.466982  10.671958   8.969959   2.487788
    42  H    5.931118  10.680504  11.434483  10.174438   4.314492
    43  H    7.201406  10.184646  11.444504  10.690812   5.940022
    44  H    8.015853   8.994977  10.695814  10.491194   7.218574
    45  H    9.647065   7.142355   9.440201  10.212840   9.577319
    46  H   11.706398   7.714997  10.185368  11.460035  11.843209
    47  H   11.946561   6.517828   8.972001  10.684946  12.443457
    48  H   10.223794   4.098826   6.516262   8.359192  11.002379
                   41         42         43         44         45
    41  H    0.000000
    42  H    2.483455   0.000000
    43  H    4.765318   2.447945   0.000000
    44  H    6.751758   4.761395   2.481076   0.000000
    45  H   10.003978   8.522035   6.517522   4.107179   0.000000
    46  H   12.444048  11.014786   8.983009   6.535762   2.492946
    47  H   13.482813  12.429747  10.676619   8.364505   4.313970
    48  H   12.418326  11.801449  10.457137   8.460519   4.985945
                   46         47         48
    46  H    0.000000
    47  H    2.482909   0.000000
    48  H    4.306197   2.485882   0.000000
 Stoichiometry    C32H16
 Framework group  CS[SG(C32H16)]
 Deg. of freedom    93
 Full point group                 CS      NOp   2
 Largest Abelian subgroup         CS      NOp   2
 Largest concise Abelian subgroup C1      NOp   1
                         Standard orientation:                         
 ---------------------------------------------------------------------
 Center     Atomic      Atomic             Coordinates (Angstroms)
 Number     Number       Type             X           Y           Z
 ---------------------------------------------------------------------
      1          6           0        0.112191   -3.316032    0.000000
      2          6           0       -1.805121   -1.241028    0.000000
      3          6           0       -2.742392   -0.192578    0.000000
      4          6           0        1.826386    2.058032    0.000000
      5          6           0        4.149412    1.353872    0.000000
      6          6           0        3.221325    2.350403    0.000000
      7          6           0        3.743687   -0.013182    0.000000
      8          6           0        2.925061   -2.683912    0.000000
      9          6           0        4.293571   -2.365672    0.000000
     10          6           0        4.701651   -1.054722    0.000000
     11          6           0        1.962552   -1.690039    0.000000
     12          6           0        2.369585   -0.326141    0.000000
     13          6           0        1.405579    0.730746    0.000000
     14          6           0        0.000000    0.404015    0.000000
     15          6           0       -0.426209   -0.945224    0.000000
     16          6           0        0.537759   -2.017679    0.000000
     17          6           0        0.851785    3.130525    0.000000
     18          6           0        1.235200    4.477505    0.000000
     19          6           0        0.282876    5.486026    0.000000
     20          6           0       -1.073133    5.177450    0.000000
     21          6           0       -0.523517    2.810075    0.000000
     22          6           0       -1.488220    3.844485    0.000000
     23          6           0       -2.890009    3.500342    0.000000
     24          6           0       -3.292111    2.211567    0.000000
     25          6           0       -2.333905    1.131553    0.000000
     26          6           0       -0.947320    1.439527    0.000000
     27          6           0       -1.279043   -3.645560    0.000000
     28          6           0       -2.240566   -2.620073    0.000000
     29          6           0       -3.609604   -2.965953    0.000000
     30          6           0       -3.999614   -4.285059    0.000000
     31          6           0       -3.035844   -5.308142    0.000000
     32          6           0       -1.696378   -4.995779    0.000000
     33          1           0        0.850899   -4.134245    0.000000
     34          1           0       -3.815392   -0.444153    0.000000
     35          1           0        5.220823    1.584672    0.000000
     36          1           0        3.525403    3.408624    0.000000
     37          1           0        2.609763   -3.738828    0.000000
     38          1           0        5.029923   -3.176124    0.000000
     39          1           0        5.767348   -0.799471    0.000000
     40          1           0        2.308149    4.723490    0.000000
     41          1           0        0.601641    6.533716    0.000000
     42          1           0       -1.819309    5.980045    0.000000
     43          1           0       -3.618135    4.319725    0.000000
     44          1           0       -4.356838    1.951170    0.000000
     45          1           0       -4.354999   -2.156008    0.000000
     46          1           0       -5.062857   -4.546347    0.000000
     47          1           0       -3.360504   -6.353784    0.000000
     48          1           0       -0.939729   -5.788581    0.000000
 ---------------------------------------------------------------------
 Rotational constants (GHZ):      0.2075651      0.1350183      0.0818051
 Leave Link  202 at Sat Jul 27 11:07:59 2019, MaxMem=  4194304000 cpu:         0.6
 (Enter /home/minenky/programs//g09/l301.exe)
 Standard basis: def2TZVP (5D, 7F)
 ======================================================================================================
                                       Pseudopotential Parameters
 ======================================================================================================
  Center     Atomic      Valence      Angular      Power
  Number     Number     Electrons     Momentum     of R      Exponent        Coefficient   SO-Coeffient
 ======================================================================================================
    1          6
                                   No pseudopotential on this center.
    2          6
                                   No pseudopotential on this center.
    3          6
                                   No pseudopotential on this center.
    4          6
                                   No pseudopotential on this center.
    5          6
                                   No pseudopotential on this center.
    6          6
                                   No pseudopotential on this center.
    7          6
                                   No pseudopotential on this center.
    8          6
                                   No pseudopotential on this center.
    9          6
                                   No pseudopotential on this center.
   10          6
                                   No pseudopotential on this center.
   11          6
                                   No pseudopotential on this center.
   12          6
                                   No pseudopotential on this center.
   13          6
                                   No pseudopotential on this center.
   14          6
                                   No pseudopotential on this center.
   15          6
                                   No pseudopotential on this center.
   16          6
                                   No pseudopotential on this center.
   17          6
                                   No pseudopotential on this center.
   18          6
                                   No pseudopotential on this center.
   19          6
                                   No pseudopotential on this center.
   20          6
                                   No pseudopotential on this center.
   21          6
                                   No pseudopotential on this center.
   22          6
                                   No pseudopotential on this center.
   23          6
                                   No pseudopotential on this center.
   24          6
                                   No pseudopotential on this center.
   25          6
                                   No pseudopotential on this center.
   26          6
                                   No pseudopotential on this center.
   27          6
                                   No pseudopotential on this center.
   28          6
                                   No pseudopotential on this center.
   29          6
                                   No pseudopotential on this center.
   30          6
                                   No pseudopotential on this center.
   31          6
                                   No pseudopotential on this center.
   32          6
                                   No pseudopotential on this center.
   33          1
                                   No pseudopotential on this center.
   34          1
                                   No pseudopotential on this center.
   35          1
                                   No pseudopotential on this center.
   36          1
                                   No pseudopotential on this center.
   37          1
                                   No pseudopotential on this center.
   38          1
                                   No pseudopotential on this center.
   39          1
                                   No pseudopotential on this center.
   40          1
                                   No pseudopotential on this center.
   41          1
                                   No pseudopotential on this center.
   42          1
                                   No pseudopotential on this center.
   43          1
                                   No pseudopotential on this center.
   44          1
                                   No pseudopotential on this center.
   45          1
                                   No pseudopotential on this center.
   46          1
                                   No pseudopotential on this center.
   47          1
                                   No pseudopotential on this center.
   48          1
                                   No pseudopotential on this center.
 ======================================================================================================
 Ernie: Thresh=  0.10000D-02 Tol=  0.10000D-05 Strict=F.
 AO basis set (Overlap normalization):
 Atom C1       Shell     1 S   6     bf    1 -     1          0.212009840235         -6.266392305661          0.000000000000
      0.1357534968D+05  0.6064550360D-03
      0.2035233368D+04  0.4697908888D-02
      0.4632256236D+03  0.2433247765D-01
      0.1312001960D+03  0.9739996831D-01
      0.4285301589D+02  0.3019558425D+00
      0.1558418577D+02  0.6623360914D+00
 Atom C1       Shell     2 S   2     bf    2 -     2          0.212009840235         -6.266392305661          0.000000000000
      0.6206713851D+01  0.6559530854D+00
      0.2576489653D+01  0.3758563329D+00
 Atom C1       Shell     3 S   1     bf    3 -     3          0.212009840235         -6.266392305661          0.000000000000
      0.5769633942D+00  0.1000000000D+01
 Atom C1       Shell     4 S   1     bf    4 -     4          0.212009840235         -6.266392305661          0.000000000000
      0.2297283136D+00  0.1000000000D+01
 Atom C1       Shell     5 S   1     bf    5 -     5          0.212009840235         -6.266392305661          0.000000000000
      0.9516444003D-01  0.1000000000D+01
 Atom C1       Shell     6 P   4     bf    6 -     8          0.212009840235         -6.266392305661          0.000000000000
      0.3469723224D+02  0.1132722000D-01
      0.7958262283D+01  0.7616965920D-01
      0.2378082688D+01  0.3019225220D+00
      0.8143320818D+00  0.7278502735D+00
 Atom C1       Shell     7 P   1     bf    9 -    11          0.212009840235         -6.266392305661          0.000000000000
      0.2888754725D+00  0.1000000000D+01
 Atom C1       Shell     8 P   1     bf   12 -    14          0.212009840235         -6.266392305661          0.000000000000
      0.1005682367D+00  0.1000000000D+01
 Atom C1       Shell     9 D   1     bf   15 -    19          0.212009840235         -6.266392305661          0.000000000000
      0.1097000000D+01  0.1000000000D+01
 Atom C1       Shell    10 D   1     bf   20 -    24          0.212009840235         -6.266392305661          0.000000000000
      0.3180000000D+00  0.1000000000D+01
 Atom C1       Shell    11 F   1     bf   25 -    31          0.212009840235         -6.266392305661          0.000000000000
      0.7610000000D+00  0.1000000000D+01
 Atom C2       Shell    12 S   6     bf   32 -    32         -3.411183475161         -2.345203215536          0.000000000000
      0.1357534968D+05  0.6064550360D-03
      0.2035233368D+04  0.4697908888D-02
      0.4632256236D+03  0.2433247765D-01
      0.1312001960D+03  0.9739996831D-01
      0.4285301589D+02  0.3019558425D+00
      0.1558418577D+02  0.6623360914D+00
 Atom C2       Shell    13 S   2     bf   33 -    33         -3.411183475161         -2.345203215536          0.000000000000
      0.6206713851D+01  0.6559530854D+00
      0.2576489653D+01  0.3758563329D+00
 Atom C2       Shell    14 S   1     bf   34 -    34         -3.411183475161         -2.345203215536          0.000000000000
      0.5769633942D+00  0.1000000000D+01
 Atom C2       Shell    15 S   1     bf   35 -    35         -3.411183475161         -2.345203215536          0.000000000000
      0.2297283136D+00  0.1000000000D+01
 Atom C2       Shell    16 S   1     bf   36 -    36         -3.411183475161         -2.345203215536          0.000000000000
      0.9516444003D-01  0.1000000000D+01
 Atom C2       Shell    17 P   4     bf   37 -    39         -3.411183475161         -2.345203215536          0.000000000000
      0.3469723224D+02  0.1132722000D-01
      0.7958262283D+01  0.7616965920D-01
      0.2378082688D+01  0.3019225220D+00
      0.8143320818D+00  0.7278502735D+00
 Atom C2       Shell    18 P   1     bf   40 -    42         -3.411183475161         -2.345203215536          0.000000000000
      0.2888754725D+00  0.1000000000D+01
 Atom C2       Shell    19 P   1     bf   43 -    45         -3.411183475161         -2.345203215536          0.000000000000
      0.1005682367D+00  0.1000000000D+01
 Atom C2       Shell    20 D   1     bf   46 -    50         -3.411183475161         -2.345203215536          0.000000000000
      0.1097000000D+01  0.1000000000D+01
 Atom C2       Shell    21 D   1     bf   51 -    55         -3.411183475161         -2.345203215536          0.000000000000
      0.3180000000D+00  0.1000000000D+01
 Atom C2       Shell    22 F   1     bf   56 -    62         -3.411183475161         -2.345203215536          0.000000000000
      0.7610000000D+00  0.1000000000D+01
 Atom C3       Shell    23 S   6     bf   63 -    63         -5.182369514373         -0.363919543452          0.000000000000
      0.1357534968D+05  0.6064550360D-03
      0.2035233368D+04  0.4697908888D-02
      0.4632256236D+03  0.2433247765D-01
      0.1312001960D+03  0.9739996831D-01
      0.4285301589D+02  0.3019558425D+00
      0.1558418577D+02  0.6623360914D+00
 Atom C3       Shell    24 S   2     bf   64 -    64         -5.182369514373         -0.363919543452          0.000000000000
      0.6206713851D+01  0.6559530854D+00
      0.2576489653D+01  0.3758563329D+00
 Atom C3       Shell    25 S   1     bf   65 -    65         -5.182369514373         -0.363919543452          0.000000000000
      0.5769633942D+00  0.1000000000D+01
 Atom C3       Shell    26 S   1     bf   66 -    66         -5.182369514373         -0.363919543452          0.000000000000
      0.2297283136D+00  0.1000000000D+01
 Atom C3       Shell    27 S   1     bf   67 -    67         -5.182369514373         -0.363919543452          0.000000000000
      0.9516444003D-01  0.1000000000D+01
 Atom C3       Shell    28 P   4     bf   68 -    70         -5.182369514373         -0.363919543452          0.000000000000
      0.3469723224D+02  0.1132722000D-01
      0.7958262283D+01  0.7616965920D-01
      0.2378082688D+01  0.3019225220D+00
      0.8143320818D+00  0.7278502735D+00
 Atom C3       Shell    29 P   1     bf   71 -    73         -5.182369514373         -0.363919543452          0.000000000000
      0.2888754725D+00  0.1000000000D+01
 Atom C3       Shell    30 P   1     bf   74 -    76         -5.182369514373         -0.363919543452          0.000000000000
      0.1005682367D+00  0.1000000000D+01
 Atom C3       Shell    31 D   1     bf   77 -    81         -5.182369514373         -0.363919543452          0.000000000000
      0.1097000000D+01  0.1000000000D+01
 Atom C3       Shell    32 D   1     bf   82 -    86         -5.182369514373         -0.363919543452          0.000000000000
      0.3180000000D+00  0.1000000000D+01
 Atom C3       Shell    33 F   1     bf   87 -    93         -5.182369514373         -0.363919543452          0.000000000000
      0.7610000000D+00  0.1000000000D+01
 Atom C4       Shell    34 S   6     bf   94 -    94          3.451369012292          3.889117054684          0.000000000000
      0.1357534968D+05  0.6064550360D-03
      0.2035233368D+04  0.4697908888D-02
      0.4632256236D+03  0.2433247765D-01
      0.1312001960D+03  0.9739996831D-01
      0.4285301589D+02  0.3019558425D+00
      0.1558418577D+02  0.6623360914D+00
 Atom C4       Shell    35 S   2     bf   95 -    95          3.451369012292          3.889117054684          0.000000000000
      0.6206713851D+01  0.6559530854D+00
      0.2576489653D+01  0.3758563329D+00
 Atom C4       Shell    36 S   1     bf   96 -    96          3.451369012292          3.889117054684          0.000000000000
      0.5769633942D+00  0.1000000000D+01
 Atom C4       Shell    37 S   1     bf   97 -    97          3.451369012292          3.889117054684          0.000000000000
      0.2297283136D+00  0.1000000000D+01
 Atom C4       Shell    38 S   1     bf   98 -    98          3.451369012292          3.889117054684          0.000000000000
      0.9516444003D-01  0.1000000000D+01
 Atom C4       Shell    39 P   4     bf   99 -   101          3.451369012292          3.889117054684          0.000000000000
      0.3469723224D+02  0.1132722000D-01
      0.7958262283D+01  0.7616965920D-01
      0.2378082688D+01  0.3019225220D+00
      0.8143320818D+00  0.7278502735D+00
 Atom C4       Shell    40 P   1     bf  102 -   104          3.451369012292          3.889117054684          0.000000000000
      0.2888754725D+00  0.1000000000D+01
 Atom C4       Shell    41 P   1     bf  105 -   107          3.451369012292          3.889117054684          0.000000000000
      0.1005682367D+00  0.1000000000D+01
 Atom C4       Shell    42 D   1     bf  108 -   112          3.451369012292          3.889117054684          0.000000000000
      0.1097000000D+01  0.1000000000D+01
 Atom C4       Shell    43 D   1     bf  113 -   117          3.451369012292          3.889117054684          0.000000000000
      0.3180000000D+00  0.1000000000D+01
 Atom C4       Shell    44 F   1     bf  118 -   124          3.451369012292          3.889117054684          0.000000000000
      0.7610000000D+00  0.1000000000D+01
 Atom C5       Shell    45 S   6     bf  125 -   125          7.841252939382          2.558448129744          0.000000000000
      0.1357534968D+05  0.6064550360D-03
      0.2035233368D+04  0.4697908888D-02
      0.4632256236D+03  0.2433247765D-01
      0.1312001960D+03  0.9739996831D-01
      0.4285301589D+02  0.3019558425D+00
      0.1558418577D+02  0.6623360914D+00
 Atom C5       Shell    46 S   2     bf  126 -   126          7.841252939382          2.558448129744          0.000000000000
      0.6206713851D+01  0.6559530854D+00
      0.2576489653D+01  0.3758563329D+00
 Atom C5       Shell    47 S   1     bf  127 -   127          7.841252939382          2.558448129744          0.000000000000
      0.5769633942D+00  0.1000000000D+01
 Atom C5       Shell    48 S   1     bf  128 -   128          7.841252939382          2.558448129744          0.000000000000
      0.2297283136D+00  0.1000000000D+01
 Atom C5       Shell    49 S   1     bf  129 -   129          7.841252939382          2.558448129744          0.000000000000
      0.9516444003D-01  0.1000000000D+01
 Atom C5       Shell    50 P   4     bf  130 -   132          7.841252939382          2.558448129744          0.000000000000
      0.3469723224D+02  0.1132722000D-01
      0.7958262283D+01  0.7616965920D-01
      0.2378082688D+01  0.3019225220D+00
      0.8143320818D+00  0.7278502735D+00
 Atom C5       Shell    51 P   1     bf  133 -   135          7.841252939382          2.558448129744          0.000000000000
      0.2888754725D+00  0.1000000000D+01
 Atom C5       Shell    52 P   1     bf  136 -   138          7.841252939382          2.558448129744          0.000000000000
      0.1005682367D+00  0.1000000000D+01
 Atom C5       Shell    53 D   1     bf  139 -   143          7.841252939382          2.558448129744          0.000000000000
      0.1097000000D+01  0.1000000000D+01
 Atom C5       Shell    54 D   1     bf  144 -   148          7.841252939382          2.558448129744          0.000000000000
      0.3180000000D+00  0.1000000000D+01
 Atom C5       Shell    55 F   1     bf  149 -   155          7.841252939382          2.558448129744          0.000000000000
      0.7610000000D+00  0.1000000000D+01
 Atom C6       Shell    56 S   6     bf  156 -   156          6.087421877105          4.441618664832          0.000000000000
      0.1357534968D+05  0.6064550360D-03
      0.2035233368D+04  0.4697908888D-02
      0.4632256236D+03  0.2433247765D-01
      0.1312001960D+03  0.9739996831D-01
      0.4285301589D+02  0.3019558425D+00
      0.1558418577D+02  0.6623360914D+00
[...]
 62,0.,-0.00002551,-0.00003168,0.,0.00000839,-0.00001852,0.,-0.00038631
 ,-0.00042843,0.,0.12937056,0.00000162,0.00001826,0.,-0.00004098,0.0000
 9421,0.,-0.00007022,-0.00006873,0.,0.00041116,-0.00016763,0.,0.0000537
 2,-0.00003259,0.,-0.00013223,-0.00010190,0.,-0.00000097,-0.00000947,0.
 ,-0.00001190,-0.00000597,0.,-0.00001446,-0.00000550,0.,-0.00000574,0.0
 0001649,0.,0.00001471,-0.00001985,0.,-0.00000297,0.00001544,0.,-0.0000
 3339,0.00005802,0.,-0.00010313,-0.00006600,0.,0.00008049,-0.00002049,0
 .,-0.00000727,-0.00001859,0.,-0.00136226,-0.00069650,0.,0.00015198,0.0
 0019185,0.,0.00033351,-0.00001338,0.,-0.00185671,0.00117247,0.,0.00409
 295,-0.00231239,0.,-0.01486878,-0.01903336,0.,-0.11839018,-0.27534877,
 0.,0.00198330,0.00315303,0.,0.00073298,0.00148189,0.,0.00065290,0.0003
 1920,0.,-0.00002221,0.00000928,0.,0.00000491,0.00001101,0.,-0.00000500
 ,-0.00001119,0.,-0.00000802,-0.00000855,0.,-0.00001375,0.00000763,0.,0
 .00000894,0.00000386,0.,-0.00000121,-0.00000339,0.,-0.00001221,0.00000
 502,0.,-0.00000707,-0.00001987,0.,0.00000910,0.00001252,0.,-0.00000532
 ,-0.00000393,0.,-0.00000331,-0.00000300,0.,0.00000270,-0.00000311,0.,0
 .00006980,0.00003892,0.,0.00003516,-0.00003430,0.,0.00124672,0.0002420
 7,0.,0.12738476,0.29023890,0.,0.,-0.00002660,0.,0.,-0.00098329,0.,0.,0
 .00004424,0.,0.,-0.00000780,0.,0.,-0.00000393,0.,0.,-0.00002437,0.,0.,
 0.00000386,0.,0.,0.00000225,0.,0.,-0.00000007,0.,0.,-0.00000425,0.,0.,
 -0.00000583,0.,0.,-0.00000310,0.,0.,0.00006706,0.,0.,-0.00066085,0.,0.
 ,0.00012890,0.,0.,0.00008812,0.,0.,0.00008954,0.,0.,0.00001042,0.,0.,-
 0.00018529,0.,0.,-0.00176706,0.,0.,0.00345148,0.,0.,0.00270236,0.,0.,-
 0.03737437,0.,0.,0.00453779,0.,0.,0.01079040,0.,0.,-0.00071306,0.,0.,0
 .00007942,0.,0.,-0.00003488,0.,0.,-0.00002359,0.,0.,0.00000041,0.,0.,-
 0.00000791,0.,0.,0.00000089,0.,0.,-0.00001259,0.,0.,0.00031672,0.,0.,0
 .00000496,0.,0.,0.00000402,0.,0.,0.00000007,0.,0.,0.00000103,0.,0.,0.0
 0000095,0.,0.,0.00003928,0.,0.,0.00006684,0.,0.,0.00024110,0.,0.,0.025
 18603,0.00001149,-0.00002133,0.,0.00005980,0.00039324,0.,0.00136736,-0
 .00153705,0.,-0.00003994,-0.00000319,0.,0.00000094,0.00000433,0.,0.000
 02834,0.00002400,0.,-0.00001999,-0.00000290,0.,-0.00000243,0.00000837,
 0.,0.00000489,0.00000498,0.,0.00000988,-0.00000955,0.,0.00001696,0.000
 00718,0.,0.00004347,-0.00006148,0.,-0.00017258,-0.00012323,0.,0.000469
 62,-0.00064469,0.,0.00022505,-0.00009761,0.,-0.00002292,0.00002901,0.,
 0.00020398,-0.00001236,0.,-0.00008689,-0.00011885,0.,-0.00051909,0.000
 00411,0.,0.00002163,0.00151237,0.,-0.00038628,-0.00026196,0.,-0.005009
 40,-0.00244658,0.,-0.01243626,0.02948782,0.,-0.13825688,0.12582941,0.,
 0.00993646,-0.01332340,0.,-0.00163596,-0.00249681,0.,0.00000962,0.0000
 1951,0.,-0.00005743,0.00001969,0.,0.00002538,-0.00006044,0.,-0.0000091
 7,0.00001831,0.,0.00000843,0.00001085,0.,0.00001393,0.00000203,0.,0.00
 000034,0.00000369,0.,-0.00036180,0.00037988,0.,0.00000083,0.00000590,0
 .,0.00000282,-0.00001253,0.,0.00000153,-0.00000209,0.,0.00000151,0.000
 00274,0.,-0.00000320,0.00000008,0.,-0.00000535,0.00001504,0.,-0.000088
 89,0.00013739,0.,-0.00002390,-0.00005872,0.,0.00075516,-0.00028937,0.,
 0.14593220,-0.00009104,-0.00006908,0.,-0.00046316,0.00008136,0.,0.0019
 3578,0.00121265,0.,0.00002404,0.00005651,0.,0.00001498,-0.00000582,0.,
 -0.00000257,-0.00000486,0.,-0.00004324,-0.00003397,0.,-0.00000806,-0.0
 0000190,0.,-0.00000743,-0.00000257,0.,0.00001548,-0.00000151,0.,0.0000
 1405,0.00001573,0.,0.00013473,-0.00008991,0.,-0.00040888,-0.00023239,0
 .,0.00142670,-0.00069270,0.,-0.00004483,0.00015660,0.,-0.00004675,0.00
 014843,0.,0.00008978,-0.00006558,0.,-0.00008765,-0.00000656,0.,0.00006
 924,0.00010542,0.,0.00001711,0.00002535,0.,-0.00067553,0.00025909,0.,-
 0.00107637,0.00130118,0.,-0.00297986,0.00482408,0.,0.12684534,-0.25974
 254,0.,0.01678645,-0.01904475,0.,-0.00406070,-0.00262228,0.,0.00005784
 ,-0.00008630,0.,0.00010252,-0.00005898,0.,-0.00005666,-0.00008809,0.,0
 .00000860,0.00007508,0.,-0.00000612,-0.00002754,0.,-0.00001931,0.00004
 475,0.,-0.00001015,0.00000345,0.,-0.00136067,0.00020378,0.,0.00000221,
 -0.00000559,0.,0.00001118,-0.00001043,0.,-0.00000336,0.00000247,0.,-0.
 00000231,-0.00000378,0.,0.00000051,-0.00000846,0.,0.00001850,-0.000007
 78,0.,-0.00000813,0.00000529,0.,0.00001110,0.00000216,0.,0.00027644,0.
 00091737,0.,-0.13636065,0.27343467,0.,0.,0.00000486,0.,0.,-0.00014326,
 0.,0.,-0.00183600,0.,0.,0.00004216,0.,0.,-0.00000579,0.,0.,-0.00000208
 ,0.,0.,0.00000204,0.,0.,-0.00000295,0.,0.,-0.00000122,0.,0.,-0.0000000
 4,0.,0.,-0.00000897,0.,0.,-0.00000995,0.,0.,0.00000780,0.,0.,0.0002255
 9,0.,0.,-0.00007924,0.,0.,0.00004423,0.,0.,-0.00075172,0.,0.,0.0001269
 3,0.,0.,-0.00084267,0.,0.,0.00001463,0.,0.,-0.00070823,0.,0.,0.0106953
 7,0.,0.,0.00450995,0.,0.,-0.03714573,0.,0.,0.00270905,0.,0.,0.00339050
 ,0.,0.,0.00000929,0.,0.,0.00004353,0.,0.,-0.00003005,0.,0.,-0.00000834
 ,0.,0.,-0.00000215,0.,0.,-0.00000865,0.,0.,-0.00000223,0.,0.,0.0002628
 8,0.,0.,0.00000057,0.,0.,0.00000457,0.,0.,0.00000229,0.,0.,0.00000084,
 0.,0.,0.00000158,0.,0.,0.00011020,0.,0.,-0.00002130,0.,0.,0.00025687,0
 .,0.,-0.00603456,0.,0.,0.02512322,0.00054673,0.00072230,0.,-0.00038764
 ,-0.00129454,0.,-0.00193476,0.00168234,0.,0.00002657,0.00000241,0.,0.0
 0002906,-0.00001901,0.,-0.00002235,-0.00001260,0.,0.00000199,-0.000004
 64,0.,0.00000140,0.00000925,0.,-0.00002570,-0.00001386,0.,-0.00000286,
 0.00002423,0.,-0.00001252,-0.00003230,0.,0.00002566,0.00001862,0.,-0.0
 0001829,0.00006499,0.,0.00009589,-0.00011313,0.,0.00011183,-0.00013250
 ,0.,0.00021995,0.00005041,0.,-0.00000980,-0.00001649,0.,0.00004735,0.0
 0000128,0.,-0.00000459,-0.00003884,0.,-0.00002745,0.00000177,0.,-0.000
 01375,-0.00006103,0.,0.00004011,0.00001373,0.,-0.00003275,0.00004462,0
 .,0.00002061,0.00002117,0.,-0.00007774,-0.00031313,0.,0.00004064,-0.00
 004469,0.,-0.00181709,0.00317956,0.,0.01335118,0.01457098,0.,-0.109066
 10,-0.10815339,0.,-0.00987826,-0.03099698,0.,-0.00570879,0.00069715,0.
 ,-0.00085032,0.00085482,0.,-0.00013860,0.00025546,0.,-0.00446398,0.000
 15160,0.,-0.00000075,-0.00000376,0.,0.00000409,-0.00000039,0.,-0.00001
 165,-0.00001568,0.,-0.00000184,-0.00000243,0.,0.00000046,-0.00000286,0
 .,0.00000534,-0.00000247,0.,0.00000686,-0.00000221,0.,-0.00000018,0.00
 000483,0.,0.00001328,0.00000307,0.,-0.00002344,-0.00002813,0.,0.119637
 24,-0.00113538,-0.00069157,0.,-0.00172780,-0.00009569,0.,-0.00067887,-
 0.00061076,0.,0.00000488,0.00001300,0.,-0.00002794,0.00002992,0.,0.000
 02778,0.00001574,0.,-0.00000760,-0.00002438,0.,-0.00000008,-0.00007217
 ,0.,0.00004072,0.00005299,0.,0.00002856,-0.00005783,0.,-0.00003324,0.0
 0011203,0.,-0.00003393,-0.00004944,0.,0.00005060,-0.00005468,0.,-0.000
 09163,0.00002325,0.,0.00012854,-0.00010106,0.,-0.00002417,0.00001199,0
 .,-0.00003343,-0.00002509,0.,-0.00001496,0.00002946,0.,0.00000664,0.00
 000931,0.,0.00000640,0.00001508,0.,-0.00002049,0.00012028,0.,0.0000193
 8,-0.00001274,0.,0.00000999,-0.00004352,0.,0.00002233,0.00002916,0.,0.
 00002367,0.00088034,0.,-0.00017161,-0.00001444,0.,0.00414426,-0.002227
 36,0.,-0.01339506,-0.01869625,0.,-0.10925755,-0.29333410,0.,0.00158935
 ,0.00148092,0.,-0.00009950,0.00175950,0.,0.00079515,0.00026949,0.,0.00
 020435,-0.00036400,0.,-0.00026796,0.00190043,0.,0.00000313,0.00000002,
 0.,0.00000153,-0.00000084,0.,0.00002306,0.00003100,0.,-0.00000017,-0.0
 0000533,0.,0.00000526,0.00000115,0.,-0.00000891,0.00000002,0.,-0.00000
 280,0.00000201,0.,0.00000146,-0.00000068,0.,-0.00001282,0.00000077,0.,
 0.00002079,0.00002979,0.,0.12009934,0.30882082,0.,0.,0.00019044,0.,0.,
 -0.00253879,0.,0.,-0.00063324,0.,0.,0.00003327,0.,0.,0.00001061,0.,0.,
 -0.00003116,0.,0.,-0.00000638,0.,0.,-0.00002517,0.,0.,0.00000139,0.,0.
 ,-0.00001083,0.,0.,0.00007294,0.,0.,0.00001051,0.,0.,-0.00003256,0.,0.
 ,0.00018660,0.,0.,-0.00012227,0.,0.,-0.00025820,0.,0.,-0.00000883,0.,0
 .,-0.00000530,0.,0.,-0.00000105,0.,0.,0.00000687,0.,0.,0.00006852,0.,0
 .,-0.00001079,0.,0.,-0.00000059,0.,0.,-0.00006217,0.,0.,-0.00016820,0.
 ,0.,-0.00001984,0.,0.,0.00619680,0.,0.,0.00240332,0.,0.,-0.03606981,0.
 ,0.,0.00349240,0.,0.,0.00888425,0.,0.,-0.00099134,0.,0.,0.00004102,0.,
 0.,0.00190997,0.,0.,0.00000096,0.,0.,0.00001022,0.,0.,0.00000702,0.,0.
 ,0.00000179,0.,0.,0.00000338,0.,0.,-0.00000387,0.,0.,0.00000215,0.,0.,
 -0.00000265,0.,0.,0.00000184,0.,0.,0.00004323,0.,0.,0.02330519,0.00036
 465,-0.00010301,0.,0.00022840,0.00157689,0.,-0.00009958,-0.00001429,0.
 ,-0.00003502,-0.00000594,0.,-0.00001117,0.00000156,0.,-0.00000029,0.00
 000408,0.,0.00000538,0.00001247,0.,-0.00000494,0.00002617,0.,0.0000126
 1,-0.00000812,0.,-0.00001272,-0.00000373,0.,0.00002413,-0.00002425,0.,
 -0.00000878,-0.00000483,0.,-0.00001812,-0.00005126,0.,-0.00009254,0.00
 014138,0.,-0.00039806,-0.00001330,0.,-0.00022080,-0.00017958,0.,0.0000
 2419,0.00002825,0.,-0.00003151,-0.00002225,0.,-0.00000969,0.00003368,0
 .,0.00003072,-0.00001314,0.,0.00003126,0.00000152,0.,-0.00004491,0.000
 00512,0.,0.00001742,-0.00003489,0.,-0.00005249,0.00002740,0.,0.0001231
 8,-0.00007313,0.,-0.00002033,0.00007700,0.,-0.00089618,-0.00065981,0.,
 -0.00549381,-0.00169650,0.,-0.01239221,0.02839743,0.,-0.14253597,0.127
 62470,0.,0.01189134,-0.01359528,0.,-0.00053153,-0.00322225,0.,-0.00001
 972,0.00006721,0.,-0.00001004,-0.00001061,0.,-0.00000083,0.00000255,0.
 ,-0.00000387,0.00000201,0.,-0.00000011,-0.00000320,0.,0.00000068,0.000
 00389,0.,-0.00000191,0.00000189,0.,-0.00000157,0.00000159,0.,-0.000002
 89,0.00000055,0.,-0.00000224,-0.00000364,0.,-0.00000830,-0.00000296,0.
 ,0.00000154,-0.00001091,0.,0.00081869,-0.00021925,0.,0.14830563,0.0002
 2104,-0.00005237,0.,0.00002864,0.00014883,0.,-0.00000736,-0.00007634,0
 .,-0.00001122,-0.00001351,0.,-0.00000346,-0.00000502,0.,-0.00000398,0.
 00000768,0.,0.00000844,0.00000190,0.,-0.00001274,-0.00001240,0.,0.0000
 1292,0.00000731,0.,-0.00000241,-0.00001204,0.,-0.00000042,0.00001936,0
 .,0.00000489,-0.00001930,0.,0.00002106,0.00000575,0.,-0.00007423,0.000
 01092,0.,0.00008147,0.00013785,0.,-0.00011654,-0.00005529,0.,0.0000265
 6,0.00000763,0.,-0.00001642,-0.00000803,0.,0.00000275,0.00002325,0.,0.
 00002433,-0.00001344,0.,-0.00000529,0.00000511,0.,-0.00001395,0.000010
 94,0.,0.00002270,-0.00000171,0.,-0.00001092,-0.00002902,0.,0.00006205,
 -0.00002674,0.,0.00001256,0.00004738,0.,-0.00099873,0.00028671,0.,-0.0
 0122064,0.00148684,0.,-0.00348245,0.00496629,0.,0.12851733,-0.26009636
 ,0.,0.01795571,-0.01766604,0.,-0.00385682,-0.00364097,0.,-0.00003552,0
 .00005396,0.,-0.00001238,-0.00001695,0.,0.00000130,-0.00000300,0.,0.00
 000304,0.00000048,0.,0.00000163,0.00001236,0.,-0.00000187,-0.00000285,
 0.,0.00000353,-0.00000202,0.,0.00000067,-0.00000255,0.,0.00000333,0.00
 000031,0.,0.00000134,0.00000290,0.,0.00000447,0.00000236,0.,-0.0000036
 1,0.00000252,0.,0.00027844,0.00097429,0.,-0.13789710,0.27372381,0.,0.,
 -0.00088220,0.,0.,0.00019301,0.,0.,0.00030586,0.,0.,0.00000239,0.,0.,-
 0.00000394,0.,0.,0.00001165,0.,0.,0.00000094,0.,0.,-0.00001688,0.,0.,-
 0.00000060,0.,0.,-0.00000489,0.,0.,0.00010226,0.,0.,-0.00001415,0.,0.,
 -0.00004222,0.,0.,-0.00001746,0.,0.,-0.00050282,0.,0.,0.00012627,0.,0.
 ,-0.00000948,0.,0.,0.00000516,0.,0.,-0.00000129,0.,0.,-0.00000582,0.,0
 .,-0.00000717,0.,0.,0.00001233,0.,0.,-0.00001594,0.,0.,0.00001122,0.,0
 .,-0.00010825,0.,0.,0.00007439,0.,0.,-0.00111484,0.,0.,0.00896188,0.,0
 .,0.00262050,0.,0.,-0.03629354,0.,0.,0.00220382,0.,0.,0.00641807,0.,0.
 ,0.00004165,0.,0.,-0.00005717,0.,0.,-0.00000071,0.,0.,0.00000352,0.,0.
 ,0.00000362,0.,0.,0.00000236,0.,0.,0.00000246,0.,0.,-0.00000331,0.,0.,
 0.00000085,0.,0.,0.00000360,0.,0.,0.00000239,0.,0.,0.00000731,0.,0.,-0
 .00474768,0.,0.,0.02563368,-0.00069812,-0.00051307,0.,0.00003092,0.000
 01110,0.,-0.00005569,-0.00004402,0.,-0.00001012,-0.00000188,0.,-0.0000
 0631,0.00000478,0.,0.00001078,-0.00000510,0.,-0.00000806,0.00001220,0.
 ,-0.00000786,0.00003885,0.,-0.00001253,-0.00002615,0.,-0.00001180,0.00
 002995,0.,-0.00001816,-0.00008281,0.,-0.00000706,0.00005623,0.,-0.0000
 0322,-0.00001539,0.,0.00000336,-0.00001060,0.,0.00004107,0.00004811,0.
 ,-0.00010507,0.00029937,0.,-0.00000119,0.00001913,0.,-0.00001266,-0.00
 000144,0.,0.00000836,0.00000110,0.,-0.00000875,-0.00000135,0.,0.000006
 14,0.00000157,0.,-0.00000759,-0.00001235,0.,-0.00000136,-0.00002084,0.
 ,-0.00000942,0.00002357,0.,0.00002039,-0.00000315,0.,-0.00000255,0.000
 00262,0.,0.00058556,0.00311465,0.,0.00061240,0.00010485,0.,0.00084741,
 -0.00281712,0.,-0.00962416,0.00256688,0.,-0.34187118,-0.01358252,0.,-0
 .01278747,-0.00396221,0.,0.00001262,0.00003024,0.,0.00002238,0.0000385
 0,0.,-0.00000243,0.00000428,0.,-0.00000522,-0.00000060,0.,-0.00000115,
 -0.00001346,0.,0.00000086,0.00001070,0.,-0.00000492,0.00000216,0.,0.00
 000013,0.00000284,0.,-0.00000536,0.00000004,0.,-0.00000023,-0.00000367
 ,0.,-0.00000542,-0.00000209,0.,0.00000562,-0.00000138,0.,-0.00059008,0
 .00011613,0.,0.00069398,-0.00035876,0.,0.36216067,0.00086304,0.0007720
 3,0.,-0.00035844,0.00012138,0.,0.00010519,0.00000357,0.,0.00003464,0.0
 0002988,0.,0.00000510,0.00000253,0.,0.00000234,-0.00000569,0.,0.000004
 15,-0.00000982,0.,0.00000003,-0.00002979,0.,-0.00000948,0.00001674,0.,
 0.00001813,-0.00000245,0.,0.00008879,0.00009571,0.,0.00000905,-0.00003
 837,0.,-0.00003980,0.00000490,0.,0.00009029,0.00004432,0.,-0.00018865,
 -0.00026936,0.,0.00039882,-0.00027023,0.,-0.00003800,-0.00002767,0.,0.
 00003271,0.00002221,0.,0.00000204,-0.00003701,0.,-0.00003350,0.0000190
 3,0.,-0.00001284,0.00000431,0.,0.00003639,-0.00001005,0.,-0.00002576,0
 .00001378,0.,0.00002832,0.00001367,0.,-0.00010106,0.00009949,0.,0.0000
 0408,-0.00008166,0.,0.00252999,-0.00450168,0.,0.00054706,-0.00129098,0
 .,-0.00217885,-0.00483568,0.,-0.02896550,0.00413576,0.,-0.01421342,-0.
 06138072,0.,0.02796337,0.00627905,0.,-0.00002311,-0.00002307,0.,0.0000
 3752,0.00008218,0.,0.00000211,-0.00000034,0.,0.00000044,0.00000011,0.,
 0.00000396,0.00000993,0.,0.00000137,-0.00000510,0.,0.00000171,-0.00000
 034,0.,-0.00000046,0.00000032,0.,-0.00000009,-0.00000029,0.,-0.0000001
 3,0.00000033,0.,-0.00000130,0.00000013,0.,0.00000363,0.00000542,0.,-0.
 00137400,-0.00007162,0.,0.00055398,0.00083003,0.,0.01461365,0.05945449
 ,0.,0.,0.00020154,0.,0.,-0.00090970,0.,0.,0.00002841,0.,0.,-0.00000442
 ,0.,0.,0.00000083,0.,0.,0.00000018,0.,0.,0.00000085,0.,0.,-0.00001295,
 0.,0.,0.00000022,0.,0.,-0.00000233,0.,0.,-0.00001859,0.,0.,0.00002468,
 0.,0.,-0.00000905,0.,0.,0.00003930,0.,0.,0.00009461,0.,0.,-0.00051688,
 0.,0.,0.00000496,0.,0.,-0.00000717,0.,0.,0.00000117,0.,0.,-0.00000281,
 0.,0.,0.00001726,0.,0.,0.00000217,0.,0.,-0.00000523,0.,0.,-0.00000077,
 0.,0.,-0.00005545,0.,0.,-0.00000065,0.,0.,0.00918053,0.,0.,-0.00098697
 ,0.,0.,0.00648101,0.,0.,0.00212800,0.,0.,-0.03710023,0.,0.,0.00305181,
 0.,0.,0.00012299,0.,0.,0.00008462,0.,0.,0.00000104,0.,0.,0.00000008,0.
 ,0.,0.00000160,0.,0.,0.00000242,0.,0.,0.00000110,0.,0.,0.00000181,0.,0
 .,0.00000080,0.,0.,0.00000087,0.,0.,0.00000161,0.,0.,0.00000298,0.,0.,
 -0.00001333,0.,0.,-0.00298815,0.,0.,0.02591677,0.00116029,-0.00218190,
 0.,-0.00014309,-0.00163988,0.,-0.00049295,0.00023989,0.,0.00000189,0.0
 0000382,0.,-0.00001705,0.00001743,0.,0.00001715,0.00000642,0.,0.000008
 51,-0.00000956,0.,-0.00009655,-0.00003155,0.,0.00005288,0.00003929,0.,
 0.00000698,-0.00001826,0.,-0.00002199,-0.00000121,0.,-0.00002792,-0.00
 001823,0.,-0.00001664,-0.00004102,0.,0.00004302,0.00012006,0.,0.000117
 19,-0.00020353,0.,0.00015595,0.00049419,0.,-0.00002326,-0.00001331,0.,
 0.00000598,0.00000609,0.,-0.00001411,-0.00000079,0.,0.00000331,0.00001
 431,0.,0.00002164,0.00001922,0.,0.00000106,-0.00000748,0.,-0.00000959,
 -0.00001773,0.,-0.00004781,0.00002864,0.,-0.00001719,-0.00013929,0.,-0
 .00000750,-0.00000469,0.,-0.00951273,-0.02897005,0.,-0.00524726,0.0013
 1220,0.,-0.00092714,0.00084787,0.,-0.00124002,0.00332465,0.,0.01201825
 ,0.01702653,0.,-0.11616032,-0.11182326,0.,-0.00044697,0.00136961,0.,0.
 00002516,-0.00001189,0.,0.00000182,-0.00000022,0.,0.00000045,0.0000007
 6,0.,0.00001065,0.00005484,0.,-0.00000414,0.00000415,0.,0.00000835,0.,
 0.,-0.00000574,0.00000035,0.,-0.00000029,0.00000070,0.,-0.00000049,-0.
 00000061,0.,-0.00000750,-0.00000081,0.,0.00000303,0.00000127,0.,0.0000
 7635,-0.00010816,0.,0.00038832,0.00084661,0.,0.00082249,-0.00041753,0.
 ,0.11953753,0.00194318,0.00093493,0.,0.00050100,-0.00011944,0.,-0.0001
 5727,-0.00003452,0.,-0.00003248,-0.00002138,0.,-0.00001176,0.00000618,
 0.,0.00000955,0.00000202,0.,-0.00000207,0.00001179,0.,-0.00001140,0.00
 004918,0.,0.00000980,-0.00001530,0.,-0.00001738,0.00000933,0.,0.000003
 97,-0.00008646,0.,-0.00002105,0.00002239,0.,0.00002407,-0.00003157,0.,
 -0.00006933,-0.00000808,0.,0.00012037,0.00028720,0.,-0.00044068,0.0000
 9320,0.,0.00001374,0.00002376,0.,-0.00002806,-0.00001468,0.,-0.0000057
 6,0.00002642,0.,0.00002047,-0.00000514,0.,0.00001979,0.00001056,0.,-0.
 00002971,-0.00000303,0.,0.00001446,-0.00002018,0.,-0.00002778,0.000005
 84,0.,0.00009874,-0.00002742,0.,-0.00002472,0.00006672,0.,0.00087551,0
 .00030837,0.,0.00010500,0.00145625,0.,0.00062673,0.00033671,0.,0.00422
 447,-0.00267916,0.,-0.01490626,-0.01858886,0.,-0.11188764,-0.28237327,
 0.,-0.00035432,0.00030432,0.,0.00001762,0.00001187,0.,-0.00000176,0.00
 000336,0.,-0.00000361,-0.00000050,0.,-0.00000222,-0.00000765,0.,-0.000
 00005,0.00000877,0.,-0.00000319,0.00000206,0.,-0.00000263,0.00000209,0
 .,-0.00000383,0.00000064,0.,-0.00000034,-0.00000339,0.,-0.00000433,-0.
 00000221,0.,0.00000405,0.00000021,0.,-0.00007331,-0.00005923,0.,-0.000
 71813,-0.00102082,0.,0.00032650,0.00083065,0.,0.11988203,0.30030744,0.
 ,0.,-0.00327295,0.,0.,0.00005877,0.,0.,0.00016066,0.,0.,-0.00000360,0.
 ,0.,-0.00000259,0.,0.,0.00000198,0.,0.,-0.00000875,0.,0.,-0.00003814,0
 .,0.,-0.00000561,0.,0.,-0.00000228,0.,0.,0.00017104,0.,0.,0.00000200,0
 .,0.,0.00001060,0.,0.,0.00002455,0.,0.,-0.00000723,0.,0.,-0.00011598,0
 .,0.,0.00000235,0.,0.,-0.00000157,0.,0.,-0.00000159,0.,0.,-0.00000024,
 0.,0.,-0.00000575,0.,0.,-0.00000106,0.,0.,-0.00000371,0.,0.,-0.0000474
 4,0.,0.,0.00000671,0.,0.,-0.00000135,0.,0.,0.00298433,0.,0.,0.00561161
 ,0.,0.,-0.00086045,0.,0.,0.00859480,0.,0.,0.00358269,0.,0.,-0.03649078
 ,0.,0.,0.00026021,0.,0.,0.00000312,0.,0.,-0.00000031,0.,0.,0.00000033,
 0.,0.,0.00004359,0.,0.,0.00000710,0.,0.,0.00000287,0.,0.,0.00000115,0.
 ,0.,0.00000077,0.,0.,0.00000169,0.,0.,0.00000937,0.,0.,0.00000265,0.,0
 .,-0.00112065,0.,0.,0.00008734,0.,0.,-0.00476149,0.,0.,0.02512122\\0.0
 0000771,-0.00000508,0.,0.00000807,-0.00000275,0.,-0.00000522,0.0000001
 0,0.,-0.00000814,0.00000073,0.,0.00000742,0.00000254,0.,0.00000219,-0.
 00000482,0.,-0.00000391,0.00001077,0.,0.00000252,0.00000405,0.,0.00000
 307,-0.00000191,0.,0.00000071,-0.00000359,0.,-0.00000076,-0.00000109,0
 .,0.00000084,-0.00000735,0.,0.00000898,0.00000740,0.,-0.00000143,-0.00
 000245,0.,0.00000017,0.00000432,0.,-0.00000393,-0.00000481,0.,0.000002
 28,0.00000241,0.,-0.00000188,0.00000127,0.,-0.00000011,0.00000330,0.,0
 .00000175,0.00000193,0.,0.00000644,0.00000279,0.,-0.00000661,-0.000006
 25,0.,-0.00000355,0.00000431,0.,0.00000079,0.00000470,0.,0.00000608,-0
 .00000593,0.,-0.00000938,0.00000464,0.,-0.00000003,0.00000584,0.,-0.00
 000725,-0.00000469,0.,-0.00000188,-0.00000008,0.,0.00000044,-0.0000025
 4,0.,-0.00000122,-0.00000078,0.,0.00000262,-0.00000549,0.,-0.00000039,
 -0.00000284,0.,-0.00000158,-0.00000075,0.,0.00000047,0.00000052,0.,0.0
 0000083,0.00000384,0.,-0.00000022,0.00000009,0.,0.00000157,-0.00000053
 ,0.,0.00000244,0.00000077,0.,0.00000025,0.00000177,0.,-0.00000032,0.00
 000249,0.,-0.00000163,0.00000237,0.,-0.00000113,0.00000036,0.,-0.00000
 367,-0.00000079,0.,-0.00000059,-0.00000172,0.,-0.00000169,-0.00000186,
 0.,-0.00000031,-0.00000324,0.,-0.00000081,-0.00000198,0.\\\@


 Experience is what you get when you don't get what you want.
 -- Dan Stanford
 Job cpu time:       4 days  4 hours 58 minutes 26.8 seconds.
 File lengths (MBytes):  RWF=   4428 Int=      0 D2E=      0 Chk=     85 Scr=      1
 Normal termination of Gaussian 09 at Sat Jul 27 21:44:30 2019.
