 Entering Gaussian System, Link 0=g09
 Initial command:
 /home/minenky/programs//g09/l1.exe "/local/scratch/minenky/m1_00_120835-94-1-C32H16_wB97XD/Gau-9857.inp" -scrdir="/local/scratch/minenky/m1_00_120835-94-1-C32H16_wB97XD/"
 Entering Link 1 = /home/minenky/programs//g09/l1.exe PID=      9858.
  
 Copyright (c) 1988,1990,1992,1993,1995,1998,2003,2009,2013,
            Gaussian, Inc.  All Rights Reserved.
  
 This is part of the Gaussian(R) 09 program.  It is based on
 the Gaussian(R) 03 system (copyright 2003, Gaussian, Inc.),
 the Gaussian(R) 98 system (copyright 1998, Gaussian, Inc.),
 the Gaussian(R) 94 system (copyright 1995, Gaussian, Inc.),
 the Gaussian 92(TM) system (copyright 1992, Gaussian, Inc.),
 the Gaussian 90(TM) system (copyright 1990, Gaussian, Inc.),
 the Gaussian 88(TM) system (copyright 1988, Gaussian, Inc.),
 the Gaussian 86(TM) system (copyright 1986, Carnegie Mellon
 University), and the Gaussian 82(TM) system (copyright 1983,
 Carnegie Mellon University). Gaussian is a federally registered
 trademark of Gaussian, Inc.
  
 This software contains proprietary and confidential information,
 including trade secrets, belonging to Gaussian, Inc.
  
 This software is provided under written license and may be
 used, copied, transmitted, or stored only in accord with that
 written license.
  
 The following legend is applicable only to US Government
 contracts under FAR:
  
                    RESTRICTED RIGHTS LEGEND
  
 Use, reproduction and disclosure by the US Government is
 subject to restrictions as set forth in subparagraphs (a)
 and (c) of the Commercial Computer Software - Restricted
 Rights clause in FAR 52.227-19.
  
 Gaussian, Inc.
 340 Quinnipiac St., Bldg. 40, Wallingford CT 06492
  
  
 ---------------------------------------------------------------
 Warning -- This program may not be used in any manner that
 competes with the business of Gaussian, Inc. or will provide
 assistance to any competitor of Gaussian, Inc.  The licensee
 of this program is prohibited from giving any competitor of
 Gaussian, Inc. access to this program.  By using this program,
 the user acknowledges that Gaussian, Inc. is engaged in the
 business of creating and licensing software in the field of
 computational chemistry and represents and warrants to the
 licensee that it is not a competitor of Gaussian, Inc. and that
 it will not use this program in any manner prohibited above.
 ---------------------------------------------------------------
  

 Cite this work as:
 Gaussian 09, Revision D.01,
 M. J. Frisch, G. W. Trucks, H. B. Schlegel, G. E. Scuseria, 
 M. A. Robb, J. R. Cheeseman, G. Scalmani, V. Barone, B. Mennucci, 
 G. A. Petersson, H. Nakatsuji, M. Caricato, X. Li, H. P. Hratchian, 
 A. F. Izmaylov, J. Bloino, G. Zheng, J. L. Sonnenberg, M. Hada, 
 M. Ehara, K. Toyota, R. Fukuda, J. Hasegawa, M. Ishida, T. Nakajima, 
 Y. Honda, O. Kitao, H. Nakai, T. Vreven, J. A. Montgomery, Jr., 
 J. E. Peralta, F. Ogliaro, M. Bearpark, J. J. Heyd, E. Brothers, 
 K. N. Kudin, V. N. Staroverov, T. Keith, R. Kobayashi, J. Normand, 
 K. Raghavachari, A. Rendell, J. C. Burant, S. S. Iyengar, J. Tomasi, 
 M. Cossi, N. Rega, J. M. Millam, M. Klene, J. E. Knox, J. B. Cross, 
 V. Bakken, C. Adamo, J. Jaramillo, R. Gomperts, R. E. Stratmann, 
 O. Yazyev, A. J. Austin, R. Cammi, C. Pomelli, J. W. Ochterski, 
 R. L. Martin, K. Morokuma, V. G. Zakrzewski, G. A. Voth, 
 P. Salvador, J. J. Dannenberg, S. Dapprich, A. D. Daniels, 
 O. Farkas, J. B. Foresman, J. V. Ortiz, J. Cioslowski, 
 and D. J. Fox, Gaussian, Inc., Wallingford CT, 2013.
 
 ******************************************
 Gaussian 09:  AM64L-G09RevD.01 24-Apr-2013
                27-Jul-2019 
 ******************************************
 %Mem=32000MB
 %NProcShared=16
 Will use up to   16 processors via shared memory.
 %Chk=m1_00_120835-94-1-C32H16_wB97XD
 ----------------------------------------------------------------------
 #P wB97XD/def2tzvp opt=(tight) freq integral(Grid=ultrafine) # SCF(Max
 Cycle=380) 5d 7f GFPrint
 ----------------------------------------------------------------------
 1/7=10,14=-1,18=20,19=15,26=4,38=1/1,3;
 2/9=110,12=2,17=6,18=5,40=1/2;
 3/5=44,7=101,8=11,11=2,16=1,24=100,25=1,30=1,71=1,74=-58,75=-5/1,2,3;
 4//1;
 5/5=2,7=380,38=5/2;
 6/7=2,8=2,9=2,10=2,28=1/1;
 7//1,2,3,16;
 1/7=10,14=-1,18=20,19=15,26=4/3(2);
 2/9=110/2;
 99//99;
 2/9=110/2;
 3/5=44,7=101,8=11,11=2,16=1,25=1,30=1,71=1,74=-58,75=-5/1,2,3;
 4/5=5,16=3,69=1/1;
 5/5=2,7=380,38=5/2;
 7//1,2,3,16;
 1/7=10,14=-1,18=20,19=15,26=4/3(-5);
 2/9=110/2;
 6/7=2,8=2,9=2,10=2,19=2,28=1/1;
 99/9=1/99;
 Leave Link    1 at Sat Jul 27 11:49:05 2019, MaxMem=  4194304000 cpu:         1.2
 (Enter /home/minenky/programs//g09/l101.exe)
 ---------------------------------------
 The PBEPBE optimization and frequencies
 ---------------------------------------
 Symbolic Z-matrix:
 Charge =  0 Multiplicity = 1
 C                    -0.34791   3.61646   0. 
 C                    -1.61868   3.10336   0. 
 C                     0.15324  -1.47043   0. 
 C                    -1.3554   -3.37142   0. 
 C                    -0.0759   -2.85872   0. 
 C                    -2.4654   -2.50891   0. 
 C                    -4.87258  -2.18758   0. 
 C                    -3.80773  -3.02356   0. 
 C                    -4.69293  -0.76024   0. 
 C                    -4.31162   2.00943   0. 
 C                    -5.59978   1.47809   0. 
 C                    -5.795     0.10766   0. 
 C                    -0.94108  -0.59516   0. 
 C                    -0.74842   0.83653   0. 
 C                    -1.84194   1.70591   0. 
 C                    -3.19567   1.17411   0. 
 C                    -3.38573  -0.22822   0. 
 C                    -2.25826  -1.11634   0. 
 C                     1.51291  -0.94072   0. 
 C                     2.60453  -1.77333   0. 
 C                     1.70608   0.48103   0. 
 C                     2.99954   1.01529   0. 
 C                     3.17177   2.43449   0. 
 C                     2.10252   3.27335   0. 
 C                     0.77235   2.75243   0. 
 C                     0.57498   1.36012   0. 
 C                     4.13569   0.13777   0. 
 C                     3.92814  -1.25502   0. 
 C                     5.0461   -2.12877   0. 
 C                     6.3204   -1.62354   0. 
 C                     6.53137  -0.22857   0. 
 C                     5.46445   0.63226   0. 
 H                    -0.18489   4.70026   0. 
 H                    -2.49518   3.76989   0. 
 H                    -1.51569  -4.4556    0. 
 H                     0.7937   -3.53426   0. 
 H                    -5.89668  -2.57829   0. 
 H                    -3.94348  -4.1112    0. 
 H                    -4.16153   3.10001   0. 
 H                    -6.46183   2.15345   0. 
 H                    -6.80949  -0.30673   0. 
 H                     2.45799  -2.86572   0. 
 H                     4.20127   2.82483   0. 
 H                     2.24016   4.36064   0. 
 H                     4.87363  -3.21104   0. 
 H                     7.18476  -2.29561   0. 
 H                     7.55565   0.15822   0. 
 H                     5.61429   1.72273   0. 
 
 NAtoms=     48 NQM=       48 NQMF=       0 NMMI=      0 NMMIF=      0
                NMic=       0 NMicF=      0.
                    Isotopes and Nuclear Properties:
 (Nuclear quadrupole moments (NQMom) in fm**2, nuclear magnetic moments (NMagM)
  in nuclear magnetons)

  Atom         1           2           3           4           5           6           7           8           9          10
 IAtWgt=          12          12          12          12          12          12          12          12          12          12
 AtmWgt=  12.0000000  12.0000000  12.0000000  12.0000000  12.0000000  12.0000000  12.0000000  12.0000000  12.0000000  12.0000000
 NucSpn=           0           0           0           0           0           0           0           0           0           0
 AtZEff=   0.0000000   0.0000000   0.0000000   0.0000000   0.0000000   0.0000000   0.0000000   0.0000000   0.0000000   0.0000000
 NQMom=    0.0000000   0.0000000   0.0000000   0.0000000   0.0000000   0.0000000   0.0000000   0.0000000   0.0000000   0.0000000
 NMagM=    0.0000000   0.0000000   0.0000000   0.0000000   0.0000000   0.0000000   0.0000000   0.0000000   0.0000000   0.0000000
 AtZNuc=   6.0000000   6.0000000   6.0000000   6.0000000   6.0000000   6.0000000   6.0000000   6.0000000   6.0000000   6.0000000

  Atom        11          12          13          14          15          16          17          18          19          20
 IAtWgt=          12          12          12          12          12          12          12          12          12          12
 AtmWgt=  12.0000000  12.0000000  12.0000000  12.0000000  12.0000000  12.0000000  12.0000000  12.0000000  12.0000000  12.0000000
 NucSpn=           0           0           0           0           0           0           0           0           0           0
 AtZEff=   0.0000000   0.0000000   0.0000000   0.0000000   0.0000000   0.0000000   0.0000000   0.0000000   0.0000000   0.0000000
 NQMom=    0.0000000   0.0000000   0.0000000   0.0000000   0.0000000   0.0000000   0.0000000   0.0000000   0.0000000   0.0000000
 NMagM=    0.0000000   0.0000000   0.0000000   0.0000000   0.0000000   0.0000000   0.0000000   0.0000000   0.0000000   0.0000000
 AtZNuc=   6.0000000   6.0000000   6.0000000   6.0000000   6.0000000   6.0000000   6.0000000   6.0000000   6.0000000   6.0000000

  Atom        21          22          23          24          25          26          27          28          29          30
 IAtWgt=          12          12          12          12          12          12          12          12          12          12
 AtmWgt=  12.0000000  12.0000000  12.0000000  12.0000000  12.0000000  12.0000000  12.0000000  12.0000000  12.0000000  12.0000000
 NucSpn=           0           0           0           0           0           0           0           0           0           0
 AtZEff=   0.0000000   0.0000000   0.0000000   0.0000000   0.0000000   0.0000000   0.0000000   0.0000000   0.0000000   0.0000000
 NQMom=    0.0000000   0.0000000   0.0000000   0.0000000   0.0000000   0.0000000   0.0000000   0.0000000   0.0000000   0.0000000
 NMagM=    0.0000000   0.0000000   0.0000000   0.0000000   0.0000000   0.0000000   0.0000000   0.0000000   0.0000000   0.0000000
 AtZNuc=   6.0000000   6.0000000   6.0000000   6.0000000   6.0000000   6.0000000   6.0000000   6.0000000   6.0000000   6.0000000

  Atom        31          32          33          34          35          36          37          38          39          40
 IAtWgt=          12          12           1           1           1           1           1           1           1           1
 AtmWgt=  12.0000000  12.0000000   1.0078250   1.0078250   1.0078250   1.0078250   1.0078250   1.0078250   1.0078250   1.0078250
 NucSpn=           0           0           1           1           1           1           1           1           1           1
 AtZEff=   0.0000000   0.0000000   0.0000000   0.0000000   0.0000000   0.0000000   0.0000000   0.0000000   0.0000000   0.0000000
 NQMom=    0.0000000   0.0000000   0.0000000   0.0000000   0.0000000   0.0000000   0.0000000   0.0000000   0.0000000   0.0000000
 NMagM=    0.0000000   0.0000000   2.7928460   2.7928460   2.7928460   2.7928460   2.7928460   2.7928460   2.7928460   2.7928460
 AtZNuc=   6.0000000   6.0000000   1.0000000   1.0000000   1.0000000   1.0000000   1.0000000   1.0000000   1.0000000   1.0000000

  Atom        41          42          43          44          45          46          47          48
 IAtWgt=           1           1           1           1           1           1           1           1
 AtmWgt=   1.0078250   1.0078250   1.0078250   1.0078250   1.0078250   1.0078250   1.0078250   1.0078250
 NucSpn=           1           1           1           1           1           1           1           1
 AtZEff=   0.0000000   0.0000000   0.0000000   0.0000000   0.0000000   0.0000000   0.0000000   0.0000000
 NQMom=    0.0000000   0.0000000   0.0000000   0.0000000   0.0000000   0.0000000   0.0000000   0.0000000
 NMagM=    2.7928460   2.7928460   2.7928460   2.7928460   2.7928460   2.7928460   2.7928460   2.7928460
 AtZNuc=   1.0000000   1.0000000   1.0000000   1.0000000   1.0000000   1.0000000   1.0000000   1.0000000
 Leave Link  101 at Sat Jul 27 11:49:06 2019, MaxMem=  4194304000 cpu:        10.4
 (Enter /home/minenky/programs//g09/l103.exe)

 GradGradGradGradGradGradGradGradGradGradGradGradGradGradGradGradGradGrad
 Berny optimization.
 Initialization pass.
                           ----------------------------
                           !    Initial Parameters    !
                           ! (Angstroms and Degrees)  !
 --------------------------                            --------------------------
 ! Name  Definition              Value          Derivative Info.                !
 --------------------------------------------------------------------------------
 ! R1    R(1,2)                  1.3705         estimate D2E/DX2                !
 ! R2    R(1,25)                 1.4147         estimate D2E/DX2                !
 ! R3    R(1,33)                 1.096          estimate D2E/DX2                !
 ! R4    R(2,15)                 1.4152         estimate D2E/DX2                !
 ! R5    R(2,34)                 1.1011         estimate D2E/DX2                !
 ! R6    R(3,5)                  1.4071         estimate D2E/DX2                !
 ! R7    R(3,13)                 1.4013         estimate D2E/DX2                !
 ! R8    R(3,19)                 1.4592         estimate D2E/DX2                !
 ! R9    R(4,5)                  1.3784         estimate D2E/DX2                !
 ! R10   R(4,6)                  1.4057         estimate D2E/DX2                !
 ! R11   R(4,35)                 1.096          estimate D2E/DX2                !
 ! R12   R(5,36)                 1.1012         estimate D2E/DX2                !
 ! R13   R(6,8)                  1.4376         estimate D2E/DX2                !
 ! R14   R(6,18)                 1.4079         estimate D2E/DX2                !
 ! R15   R(7,8)                  1.3538         estimate D2E/DX2                !
 ! R16   R(7,9)                  1.4386         estimate D2E/DX2                !
 ! R17   R(7,37)                 1.0961         estimate D2E/DX2                !
 ! R18   R(8,38)                 1.0961         estimate D2E/DX2                !
 ! R19   R(9,12)                 1.4028         estimate D2E/DX2                !
 ! R20   R(9,17)                 1.4113         estimate D2E/DX2                !
 ! R21   R(10,11)                1.3934         estimate D2E/DX2                !
 ! R22   R(10,16)                1.394          estimate D2E/DX2                !
 ! R23   R(10,39)                1.1009         estimate D2E/DX2                !
 ! R24   R(11,12)                1.3843         estimate D2E/DX2                !
 ! R25   R(11,40)                1.0951         estimate D2E/DX2                !
 ! R26   R(12,41)                1.0959         estimate D2E/DX2                !
 ! R27   R(13,14)                1.4446         estimate D2E/DX2                !
 ! R28   R(13,18)                1.4165         estimate D2E/DX2                !
 ! R29   R(14,15)                1.397          estimate D2E/DX2                !
 ! R30   R(14,26)                1.4232         estimate D2E/DX2                !
 ! R31   R(15,16)                1.4544         estimate D2E/DX2                !
 ! R32   R(16,17)                1.4152         estimate D2E/DX2                !
 ! R33   R(17,18)                1.4353         estimate D2E/DX2                !
 ! R34   R(19,20)                1.3729         estimate D2E/DX2                !
 ! R35   R(19,21)                1.4348         estimate D2E/DX2                !
 ! R36   R(20,28)                1.4215         estimate D2E/DX2                !
 ! R37   R(20,42)                1.1022         estimate D2E/DX2                !
 ! R38   R(21,22)                1.3995         estimate D2E/DX2                !
 ! R39   R(21,26)                1.4325         estimate D2E/DX2                !
 ! R40   R(22,23)                1.4296         estimate D2E/DX2                !
 ! R41   R(22,27)                1.4356         estimate D2E/DX2                !
 ! R42   R(23,24)                1.359          estimate D2E/DX2                !
 ! R43   R(23,43)                1.101          estimate D2E/DX2                !
 ! R44   R(24,25)                1.4285         estimate D2E/DX2                !
 ! R45   R(24,44)                1.096          estimate D2E/DX2                !
 ! R46   R(25,26)                1.4062         estimate D2E/DX2                !
 ! R47   R(27,28)                1.4082         estimate D2E/DX2                !
 ! R48   R(27,32)                1.4178         estimate D2E/DX2                !
 ! R49   R(28,29)                1.4189         estimate D2E/DX2                !
 ! R50   R(29,30)                1.3708         estimate D2E/DX2                !
 ! R51   R(29,45)                1.0959         estimate D2E/DX2                !
 ! R52   R(30,31)                1.4108         estimate D2E/DX2                !
 ! R53   R(30,46)                1.0949         estimate D2E/DX2                !
 ! R54   R(31,32)                1.3709         estimate D2E/DX2                !
 ! R55   R(31,47)                1.0949         estimate D2E/DX2                !
 ! R56   R(32,48)                1.1007         estimate D2E/DX2                !
 ! A1    A(2,1,25)             120.3706         estimate D2E/DX2                !
 ! A2    A(2,1,33)             120.5413         estimate D2E/DX2                !
 ! A3    A(25,1,33)            119.0881         estimate D2E/DX2                !
 ! A4    A(1,2,15)             121.0642         estimate D2E/DX2                !
 ! A5    A(1,2,34)             120.7621         estimate D2E/DX2                !
 ! A6    A(15,2,34)            118.1737         estimate D2E/DX2                !
 ! A7    A(5,3,13)             119.2814         estimate D2E/DX2                !
 ! A8    A(5,3,19)             120.6575         estimate D2E/DX2                !
 ! A9    A(13,3,19)            120.0611         estimate D2E/DX2                !
 ! A10   A(5,4,6)              120.3153         estimate D2E/DX2                !
 ! A11   A(5,4,35)             120.246          estimate D2E/DX2                !
 ! A12   A(6,4,35)             119.4388         estimate D2E/DX2                !
 ! A13   A(3,5,4)              121.2083         estimate D2E/DX2                !
 ! A14   A(3,5,36)             118.4691         estimate D2E/DX2                !
 ! A15   A(4,5,36)             120.3225         estimate D2E/DX2                !
 ! A16   A(4,6,8)              121.1743         estimate D2E/DX2                !
 ! A17   A(4,6,18)             119.3882         estimate D2E/DX2                !
 ! A18   A(8,6,18)             119.4375         estimate D2E/DX2                !
 ! A19   A(8,7,9)              120.9612         estimate D2E/DX2                !
 ! A20   A(8,7,37)             120.9829         estimate D2E/DX2                !
 ! A21   A(9,7,37)             118.056          estimate D2E/DX2                !
 ! A22   A(6,8,7)              120.8883         estimate D2E/DX2                !
 ! A23   A(6,8,38)             118.0913         estimate D2E/DX2                !
 ! A24   A(7,8,38)             121.0204         estimate D2E/DX2                !
 ! A25   A(7,9,12)             121.0475         estimate D2E/DX2                !
 ! A26   A(7,9,17)             119.3195         estimate D2E/DX2                !
 ! A27   A(12,9,17)            119.6331         estimate D2E/DX2                !
 ! A28   A(11,10,16)           120.7693         estimate D2E/DX2                !
 ! A29   A(11,10,39)           120.251          estimate D2E/DX2                !
 ! A30   A(16,10,39)           118.9797         estimate D2E/DX2                !
 ! A31   A(10,11,12)           120.5223         estimate D2E/DX2                !
 ! A32   A(10,11,40)           119.5087         estimate D2E/DX2                !
 ! A33   A(12,11,40)           119.969          estimate D2E/DX2                !
 ! A34   A(9,12,11)            120.1137         estimate D2E/DX2                !
 ! A35   A(9,12,41)            119.5606         estimate D2E/DX2                !
 ! A36   A(11,12,41)           120.3257         estimate D2E/DX2                !
 ! A37   A(3,13,14)            120.9895         estimate D2E/DX2                !
 ! A38   A(3,13,18)            119.7584         estimate D2E/DX2                !
 ! A39   A(14,13,18)           119.2521         estimate D2E/DX2                !
 ! A40   A(13,14,15)           120.8218         estimate D2E/DX2                !
 ! A41   A(13,14,26)           119.2502         estimate D2E/DX2                !
 ! A42   A(15,14,26)           119.928          estimate D2E/DX2                !
 ! A43   A(2,15,14)            119.4091         estimate D2E/DX2                !
 ! A44   A(2,15,16)            120.5239         estimate D2E/DX2                !
 ! A45   A(14,15,16)           120.0671         estimate D2E/DX2                !
 ! A46   A(10,16,15)           121.7374         estimate D2E/DX2                !
 ! A47   A(10,16,17)           119.0973         estimate D2E/DX2                !
 ! A48   A(15,16,17)           119.1654         estimate D2E/DX2                !
 ! A49   A(9,17,16)            119.8644         estimate D2E/DX2                !
 ! A50   A(9,17,18)            119.6264         estimate D2E/DX2                !
 ! A51   A(16,17,18)           120.5092         estimate D2E/DX2                !
 ! A52   A(6,18,13)            120.0484         estimate D2E/DX2                !
 ! A53   A(6,18,17)            119.7671         estimate D2E/DX2                !
 ! A54   A(13,18,17)           120.1845         estimate D2E/DX2                !
 ! A55   A(3,19,20)            121.3809         estimate D2E/DX2                !
 ! A56   A(3,19,21)            119.0223         estimate D2E/DX2                !
 ! A57   A(20,19,21)           119.5968         estimate D2E/DX2                !
 ! A58   A(19,20,28)           121.2812         estimate D2E/DX2                !
 ! A59   A(19,20,42)           119.6939         estimate D2E/DX2                !
 ! A60   A(28,20,42)           119.0249         estimate D2E/DX2                !
 ! A61   A(19,21,22)           120.1799         estimate D2E/DX2                !
 ! A62   A(19,21,26)           120.1173         estimate D2E/DX2                !
 ! A63   A(22,21,26)           119.7028         estimate D2E/DX2                !
 ! A64   A(21,22,23)           119.362          estimate D2E/DX2                !
 ! A65   A(21,22,27)           119.8763         estimate D2E/DX2                !
 ! A66   A(23,22,27)           120.7617         estimate D2E/DX2                !
 ! A67   A(22,23,24)           121.1962         estimate D2E/DX2                !
 ! A68   A(22,23,43)           117.684          estimate D2E/DX2                !
 ! A69   A(24,23,43)           121.1198         estimate D2E/DX2                !
 ! A70   A(23,24,25)           120.4986         estimate D2E/DX2                !
 ! A71   A(23,24,44)           120.9008         estimate D2E/DX2                !
 ! A72   A(25,24,44)           118.6006         estimate D2E/DX2                !
 ! A73   A(1,25,24)            120.972          estimate D2E/DX2                !
 ! A74   A(1,25,26)            119.5739         estimate D2E/DX2                !
 ! A75   A(24,25,26)           119.4541         estimate D2E/DX2                !
 ! A76   A(14,26,21)           120.5595         estimate D2E/DX2                !
 ! A77   A(14,26,25)           119.6542         estimate D2E/DX2                !
 ! A78   A(21,26,25)           119.7862         estimate D2E/DX2                !
 ! A79   A(22,27,28)           119.2054         estimate D2E/DX2                !
 ! A80   A(22,27,32)           121.9066         estimate D2E/DX2                !
 ! A81   A(28,27,32)           118.8879         estimate D2E/DX2                !
 ! A82   A(20,28,27)           119.8604         estimate D2E/DX2                !
 ! A83   A(20,28,29)           120.6051         estimate D2E/DX2                !
 ! A84   A(27,28,29)           119.5345         estimate D2E/DX2                !
 ! A85   A(28,29,30)           120.3628         estimate D2E/DX2                !
 ! A86   A(28,29,45)           118.9558         estimate D2E/DX2                !
 ! A87   A(30,29,45)           120.6813         estimate D2E/DX2                !
 ! A88   A(29,30,31)           120.2269         estimate D2E/DX2                !
 ! A89   A(29,30,46)           120.5062         estimate D2E/DX2                !
 ! A90   A(31,30,46)           119.267          estimate D2E/DX2                !
 ! A91   A(30,31,32)           120.2983         estimate D2E/DX2                !
 ! A92   A(30,31,47)           119.2874         estimate D2E/DX2                !
 ! A93   A(32,31,47)           120.4143         estimate D2E/DX2                !
 ! A94   A(27,32,31)           120.6896         estimate D2E/DX2                !
 ! A95   A(27,32,48)           118.2366         estimate D2E/DX2                !
 ! A96   A(31,32,48)           121.0738         estimate D2E/DX2                !
 ! D1    D(25,1,2,15)            0.0            estimate D2E/DX2                !
 ! D2    D(25,1,2,34)          180.0            estimate D2E/DX2                !
 ! D3    D(33,1,2,15)          180.0            estimate D2E/DX2                !
 ! D4    D(33,1,2,34)            0.0            estimate D2E/DX2                !
 ! D5    D(2,1,25,24)          180.0            estimate D2E/DX2                !
 ! D6    D(2,1,25,26)            0.0            estimate D2E/DX2                !
 ! D7    D(33,1,25,24)           0.0            estimate D2E/DX2                !
 ! D8    D(33,1,25,26)         180.0            estimate D2E/DX2                !
 ! D9    D(1,2,15,14)            0.0            estimate D2E/DX2                !
 ! D10   D(1,2,15,16)          180.0            estimate D2E/DX2                !
 ! D11   D(34,2,15,14)         180.0            estimate D2E/DX2                !
 ! D12   D(34,2,15,16)           0.0            estimate D2E/DX2                !
 ! D13   D(13,3,5,4)             0.0            estimate D2E/DX2                !
 ! D14   D(13,3,5,36)          180.0            estimate D2E/DX2                !
 ! D15   D(19,3,5,4)           180.0            estimate D2E/DX2                !
 ! D16   D(19,3,5,36)            0.0            estimate D2E/DX2                !
 ! D17   D(5,3,13,14)          180.0            estimate D2E/DX2                !
 ! D18   D(5,3,13,18)            0.0            estimate D2E/DX2                !
 ! D19   D(19,3,13,14)           0.0            estimate D2E/DX2                !
 ! D20   D(19,3,13,18)         180.0            estimate D2E/DX2                !
 ! D21   D(5,3,19,20)            0.0            estimate D2E/DX2                !
 ! D22   D(5,3,19,21)          180.0            estimate D2E/DX2                !
 ! D23   D(13,3,19,20)         180.0            estimate D2E/DX2                !
 ! D24   D(13,3,19,21)           0.0            estimate D2E/DX2                !
 ! D25   D(6,4,5,3)              0.0            estimate D2E/DX2                !
 ! D26   D(6,4,5,36)           180.0            estimate D2E/DX2                !
 ! D27   D(35,4,5,3)           180.0            estimate D2E/DX2                !
 ! D28   D(35,4,5,36)            0.0            estimate D2E/DX2                !
 ! D29   D(5,4,6,8)            180.0            estimate D2E/DX2                !
 ! D30   D(5,4,6,18)             0.0            estimate D2E/DX2                !
 ! D31   D(35,4,6,8)             0.0            estimate D2E/DX2                !
 ! D32   D(35,4,6,18)          180.0            estimate D2E/DX2                !
 ! D33   D(4,6,8,7)            180.0            estimate D2E/DX2                !
 ! D34   D(4,6,8,38)             0.0            estimate D2E/DX2                !
 ! D35   D(18,6,8,7)             0.0            estimate D2E/DX2                !
 ! D36   D(18,6,8,38)          180.0            estimate D2E/DX2                !
 ! D37   D(4,6,18,13)            0.0            estimate D2E/DX2                !
 ! D38   D(4,6,18,17)          180.0            estimate D2E/DX2                !
 ! D39   D(8,6,18,13)          180.0            estimate D2E/DX2                !
 ! D40   D(8,6,18,17)            0.0            estimate D2E/DX2                !
 ! D41   D(9,7,8,6)              0.0            estimate D2E/DX2                !
 ! D42   D(9,7,8,38)           180.0            estimate D2E/DX2                !
 ! D43   D(37,7,8,6)           180.0            estimate D2E/DX2                !
 ! D44   D(37,7,8,38)            0.0            estimate D2E/DX2                !
 ! D45   D(8,7,9,12)           180.0            estimate D2E/DX2                !
 ! D46   D(8,7,9,17)             0.0            estimate D2E/DX2                !
 ! D47   D(37,7,9,12)            0.0            estimate D2E/DX2                !
 ! D48   D(37,7,9,17)          180.0            estimate D2E/DX2                !
 ! D49   D(7,9,12,11)          180.0            estimate D2E/DX2                !
 ! D50   D(7,9,12,41)            0.0            estimate D2E/DX2                !
 ! D51   D(17,9,12,11)           0.0            estimate D2E/DX2                !
 ! D52   D(17,9,12,41)         180.0            estimate D2E/DX2                !
 ! D53   D(7,9,17,16)          180.0            estimate D2E/DX2                !
 ! D54   D(7,9,17,18)            0.0            estimate D2E/DX2                !
 ! D55   D(12,9,17,16)           0.0            estimate D2E/DX2                !
 ! D56   D(12,9,17,18)         180.0            estimate D2E/DX2                !
 ! D57   D(16,10,11,12)          0.0            estimate D2E/DX2                !
 ! D58   D(16,10,11,40)        180.0            estimate D2E/DX2                !
 ! D59   D(39,10,11,12)        180.0            estimate D2E/DX2                !
 ! D60   D(39,10,11,40)          0.0            estimate D2E/DX2                !
 ! D61   D(11,10,16,15)        180.0            estimate D2E/DX2                !
 ! D62   D(11,10,16,17)          0.0            estimate D2E/DX2                !
 ! D63   D(39,10,16,15)          0.0            estimate D2E/DX2                !
 ! D64   D(39,10,16,17)        180.0            estimate D2E/DX2                !
 ! D65   D(10,11,12,9)           0.0            estimate D2E/DX2                !
 ! D66   D(10,11,12,41)        180.0            estimate D2E/DX2                !
 ! D67   D(40,11,12,9)         180.0            estimate D2E/DX2                !
 ! D68   D(40,11,12,41)          0.0            estimate D2E/DX2                !
 ! D69   D(3,13,14,15)         180.0            estimate D2E/DX2                !
 ! D70   D(3,13,14,26)           0.0            estimate D2E/DX2                !
 ! D71   D(18,13,14,15)          0.0            estimate D2E/DX2                !
 ! D72   D(18,13,14,26)        180.0            estimate D2E/DX2                !
 ! D73   D(3,13,18,6)            0.0            estimate D2E/DX2                !
 ! D74   D(3,13,18,17)         180.0            estimate D2E/DX2                !
 ! D75   D(14,13,18,6)         180.0            estimate D2E/DX2                !
 ! D76   D(14,13,18,17)          0.0            estimate D2E/DX2                !
 ! D77   D(13,14,15,2)         180.0            estimate D2E/DX2                !
 ! D78   D(13,14,15,16)          0.0            estimate D2E/DX2                !
 ! D79   D(26,14,15,2)           0.0            estimate D2E/DX2                !
 ! D80   D(26,14,15,16)        180.0            estimate D2E/DX2                !
 ! D81   D(13,14,26,21)          0.0            estimate D2E/DX2                !
 ! D82   D(13,14,26,25)        180.0            estimate D2E/DX2                !
 ! D83   D(15,14,26,21)        180.0            estimate D2E/DX2                !
 ! D84   D(15,14,26,25)          0.0            estimate D2E/DX2                !
 ! D85   D(2,15,16,10)           0.0            estimate D2E/DX2                !
 ! D86   D(2,15,16,17)         180.0            estimate D2E/DX2                !
 ! D87   D(14,15,16,10)        180.0            estimate D2E/DX2                !
 ! D88   D(14,15,16,17)          0.0            estimate D2E/DX2                !
 ! D89   D(10,16,17,9)           0.0            estimate D2E/DX2                !
 ! D90   D(10,16,17,18)        180.0            estimate D2E/DX2                !
 ! D91   D(15,16,17,9)         180.0            estimate D2E/DX2                !
 ! D92   D(15,16,17,18)          0.0            estimate D2E/DX2                !
 ! D93   D(9,17,18,6)            0.0            estimate D2E/DX2                !
 ! D94   D(9,17,18,13)         180.0            estimate D2E/DX2                !
 ! D95   D(16,17,18,6)         180.0            estimate D2E/DX2                !
 ! D96   D(16,17,18,13)          0.0            estimate D2E/DX2                !
 ! D97   D(3,19,20,28)         180.0            estimate D2E/DX2                !
 ! D98   D(3,19,20,42)           0.0            estimate D2E/DX2                !
 ! D99   D(21,19,20,28)          0.0            estimate D2E/DX2                !
 ! D100  D(21,19,20,42)        180.0            estimate D2E/DX2                !
 ! D101  D(3,19,21,22)         180.0            estimate D2E/DX2                !
 ! D102  D(3,19,21,26)           0.0            estimate D2E/DX2                !
 ! D103  D(20,19,21,22)          0.0            estimate D2E/DX2                !
 ! D104  D(20,19,21,26)        180.0            estimate D2E/DX2                !
 ! D105  D(19,20,28,27)          0.0            estimate D2E/DX2                !
 ! D106  D(19,20,28,29)        180.0            estimate D2E/DX2                !
 ! D107  D(42,20,28,27)        180.0            estimate D2E/DX2                !
 ! D108  D(42,20,28,29)          0.0            estimate D2E/DX2                !
 ! D109  D(19,21,22,23)        180.0            estimate D2E/DX2                !
 ! D110  D(19,21,22,27)          0.0            estimate D2E/DX2                !
 ! D111  D(26,21,22,23)          0.0            estimate D2E/DX2                !
 ! D112  D(26,21,22,27)        180.0            estimate D2E/DX2                !
 ! D113  D(19,21,26,14)          0.0            estimate D2E/DX2                !
 ! D114  D(19,21,26,25)        180.0            estimate D2E/DX2                !
 ! D115  D(22,21,26,14)        180.0            estimate D2E/DX2                !
 ! D116  D(22,21,26,25)          0.0            estimate D2E/DX2                !
 ! D117  D(21,22,23,24)          0.0            estimate D2E/DX2                !
 ! D118  D(21,22,23,43)        180.0            estimate D2E/DX2                !
 ! D119  D(27,22,23,24)        180.0            estimate D2E/DX2                !
 ! D120  D(27,22,23,43)          0.0            estimate D2E/DX2                !
 ! D121  D(21,22,27,28)          0.0            estimate D2E/DX2                !
 ! D122  D(21,22,27,32)        180.0            estimate D2E/DX2                !
 ! D123  D(23,22,27,28)        180.0            estimate D2E/DX2                !
 ! D124  D(23,22,27,32)          0.0            estimate D2E/DX2                !
 ! D125  D(22,23,24,25)          0.0            estimate D2E/DX2                !
 ! D126  D(22,23,24,44)        180.0            estimate D2E/DX2                !
 ! D127  D(43,23,24,25)        180.0            estimate D2E/DX2                !
 ! D128  D(43,23,24,44)          0.0            estimate D2E/DX2                !
 ! D129  D(23,24,25,1)         180.0            estimate D2E/DX2                !
 ! D130  D(23,24,25,26)          0.0            estimate D2E/DX2                !
 ! D131  D(44,24,25,1)           0.0            estimate D2E/DX2                !
 ! D132  D(44,24,25,26)        180.0            estimate D2E/DX2                !
 ! D133  D(1,25,26,14)           0.0            estimate D2E/DX2                !
 ! D134  D(1,25,26,21)         180.0            estimate D2E/DX2                !
 ! D135  D(24,25,26,14)        180.0            estimate D2E/DX2                !
 ! D136  D(24,25,26,21)          0.0            estimate D2E/DX2                !
 ! D137  D(22,27,28,20)          0.0            estimate D2E/DX2                !
 ! D138  D(22,27,28,29)        180.0            estimate D2E/DX2                !
 ! D139  D(32,27,28,20)        180.0            estimate D2E/DX2                !
 ! D140  D(32,27,28,29)          0.0            estimate D2E/DX2                !
 ! D141  D(22,27,32,31)        180.0            estimate D2E/DX2                !
 ! D142  D(22,27,32,48)          0.0            estimate D2E/DX2                !
 ! D143  D(28,27,32,31)          0.0            estimate D2E/DX2                !
 ! D144  D(28,27,32,48)        180.0            estimate D2E/DX2                !
 ! D145  D(20,28,29,30)        180.0            estimate D2E/DX2                !
 ! D146  D(20,28,29,45)          0.0            estimate D2E/DX2                !
 ! D147  D(27,28,29,30)          0.0            estimate D2E/DX2                !
 ! D148  D(27,28,29,45)        180.0            estimate D2E/DX2                !
 ! D149  D(28,29,30,31)          0.0            estimate D2E/DX2                !
 ! D150  D(28,29,30,46)        180.0            estimate D2E/DX2                !
 ! D151  D(45,29,30,31)        180.0            estimate D2E/DX2                !
 ! D152  D(45,29,30,46)          0.0            estimate D2E/DX2                !
 ! D153  D(29,30,31,32)          0.0            estimate D2E/DX2                !
 ! D154  D(29,30,31,47)        180.0            estimate D2E/DX2                !
 ! D155  D(46,30,31,32)        180.0            estimate D2E/DX2                !
 ! D156  D(46,30,31,47)          0.0            estimate D2E/DX2                !
 ! D157  D(30,31,32,27)          0.0            estimate D2E/DX2                !
 ! D158  D(30,31,32,48)        180.0            estimate D2E/DX2                !
 ! D159  D(47,31,32,27)        180.0            estimate D2E/DX2                !
 ! D160  D(47,31,32,48)          0.0            estimate D2E/DX2                !
 --------------------------------------------------------------------------------
 Trust Radius=3.00D-01 FncErr=1.00D-07 GrdErr=1.00D-06
 Number of steps in this run=    288 maximum allowed number of steps=    288.
 GradGradGradGradGradGradGradGradGradGradGradGradGradGradGradGradGradGrad

 Leave Link  103 at Sat Jul 27 11:49:06 2019, MaxMem=  4194304000 cpu:         0.2
 (Enter /home/minenky/programs//g09/l202.exe)
                          Input orientation:                          
 ---------------------------------------------------------------------
 Center     Atomic      Atomic             Coordinates (Angstroms)
 Number     Number       Type             X           Y           Z
 ---------------------------------------------------------------------
      1          6           0       -0.347907    3.616460    0.000000
      2          6           0       -1.618681    3.103363    0.000000
      3          6           0        0.153244   -1.470429    0.000000
      4          6           0       -1.355401   -3.371422    0.000000
      5          6           0       -0.075897   -2.858724    0.000000
      6          6           0       -2.465396   -2.508909    0.000000
      7          6           0       -4.872577   -2.187578    0.000000
      8          6           0       -3.807733   -3.023565    0.000000
      9          6           0       -4.692932   -0.760243    0.000000
     10          6           0       -4.311619    2.009429    0.000000
     11          6           0       -5.599783    1.478092    0.000000
     12          6           0       -5.795004    0.107656    0.000000
     13          6           0       -0.941085   -0.595157    0.000000
     14          6           0       -0.748423    0.836525    0.000000
     15          6           0       -1.841939    1.705911    0.000000
     16          6           0       -3.195666    1.174112    0.000000
     17          6           0       -3.385728   -0.228222    0.000000
     18          6           0       -2.258255   -1.116338    0.000000
     19          6           0        1.512910   -0.940724    0.000000
     20          6           0        2.604526   -1.773335    0.000000
     21          6           0        1.706077    0.481031    0.000000
     22          6           0        2.999539    1.015287    0.000000
     23          6           0        3.171765    2.434486    0.000000
     24          6           0        2.102523    3.273346    0.000000
     25          6           0        0.772347    2.752434    0.000000
     26          6           0        0.574980    1.360123    0.000000
     27          6           0        4.135688    0.137773    0.000000
     28          6           0        3.928141   -1.255018    0.000000
     29          6           0        5.046095   -2.128774    0.000000
     30          6           0        6.320403   -1.623541    0.000000
     31          6           0        6.531365   -0.228570    0.000000
     32          6           0        5.464448    0.632262    0.000000
     33          1           0       -0.184887    4.700257    0.000000
     34          1           0       -2.495183    3.769885    0.000000
     35          1           0       -1.515691   -4.455605    0.000000
     36          1           0        0.793702   -3.534262    0.000000
     37          1           0       -5.896682   -2.578285    0.000000
     38          1           0       -3.943482   -4.111202    0.000000
     39          1           0       -4.161531    3.100010    0.000000
     40          1           0       -6.461831    2.153449    0.000000
     41          1           0       -6.809494   -0.306730    0.000000
     42          1           0        2.457993   -2.865719    0.000000
     43          1           0        4.201266    2.824832    0.000000
     44          1           0        2.240164    4.360639    0.000000
     45          1           0        4.873631   -3.211041    0.000000
     46          1           0        7.184755   -2.295614    0.000000
     47          1           0        7.555651    0.158224    0.000000
     48          1           0        5.614293    1.722728    0.000000
 ---------------------------------------------------------------------
                    Distance matrix (angstroms):
                    1          2          3          4          5
     1  C    0.000000
     2  C    1.370450   0.000000
     3  C    5.111516   4.905027   0.000000
     4  C    7.060137   6.480135   2.426887   0.000000
     5  C    6.480894   6.158462   1.407078   1.378401   0.000000
     6  C    6.481041   5.675783   2.817040   1.405709   2.414969
     7  C    7.359313   6.211432   5.076730   3.711067   4.843405
     8  C    7.487344   6.506242   4.254594   2.476881   3.735475
     9  C    6.167234   4.937456   4.897938   4.237614   5.071552
    10  C    4.277097   2.906649   5.660779   6.139445   6.452926
    11  C    5.670522   4.300079   6.464604   6.444576   7.022911
    12  C    6.479395   5.139643   6.154024   5.640396   6.442639
    13  C    4.253184   3.760077   1.401306   2.807010   2.423280
    14  C    2.808638   2.428148   2.476902   4.251498   3.755949
    15  C    2.425351   1.415173   3.750986   5.100591   4.894364
    16  C    3.751638   2.491764   4.267177   4.903922   5.098698
    17  C    4.899993   3.771195   3.750654   3.741916   4.227827
    18  C    5.103803   4.267895   2.437357   2.429105   2.792596
    19  C    4.922455   5.114831   1.459204   3.759720   2.490588
    20  C    6.145465   6.451174   2.469926   4.270234   2.891840
    21  C    3.748301   4.234458   2.493890   4.920776   3.785418
    22  C    4.239280   5.068335   3.778912   6.181320   4.946339
    23  C    3.712837   4.836918   4.935568   7.362323   6.210103
    24  C    2.474336   3.725085   5.128654   7.490672   6.507518
    25  C    1.414748   2.416643   4.268004   6.482971   5.674910
    26  C    2.437781   2.801969   2.861798   5.110175   4.268760
    27  C    5.674847   6.473599   4.294901   6.516633   5.168795
    28  C    6.481966   7.054270   3.781038   5.691659   4.313258
    29  C    7.880544   8.473163   4.936943   6.520991   5.173744
    30  C    8.480800   9.239734   6.169059   7.872297   6.514471
    31  C    7.880904   8.804830   6.497895   8.489911   7.111514
    32  C    6.533675   7.501804   5.712285   7.908212   6.548466
    33  H    1.095989   2.146121   6.179943   8.156108   7.559766
    34  H    2.152750   1.101140   5.871547   7.231692   7.056303
    35  H    8.156099   7.559669   3.420032   1.095968   2.150125
    36  H    7.241277   7.062411   2.160924   2.155263   1.101161
    37  H    8.316476   7.112132   6.150525   4.610022   5.827537
    38  H    8.523198   7.579884   4.874100   2.691736   4.065331
    39  H    3.848434   2.542852   6.285396   7.053637   7.224881
    40  H    6.286530   4.935427   7.542660   7.523286   8.118006
    41  H    7.559333   6.210738   7.059315   6.256155   7.200972
    42  H    7.063407   7.228362   2.694198   3.846779   2.533900
    43  H    4.617537   5.826608   5.902182   8.322867   7.113152
    44  H    2.692938   4.058501   6.193270   8.527183   7.581777
    45  H    8.595303   9.056590   5.031082   6.231096   4.962052
    46  H    9.575678  10.327121   7.079765   8.607649   7.282456
    47  H    8.627029   9.635466   7.579455   9.584636   8.206248
    48  H    6.255721   7.363563   6.326081   8.632902   7.305338
                    6          7          8          9         10
     6  C    0.000000
     7  C    2.428534   0.000000
     8  C    1.437616   1.353797   0.000000
     9  C    2.831917   1.438595   2.430268   0.000000
    10  C    4.880975   4.234329   5.058155   2.795797   0.000000
    11  C    5.071544   3.737106   4.845240   2.415061   1.393444
    12  C    4.234702   2.473655   3.708610   1.402787   2.411881
    13  C    2.446624   4.241749   3.756972   3.755478   4.259621
    14  C    3.760309   5.114083   4.925410   4.255446   3.751276
    15  C    4.260681   4.933966   5.121746   3.769626   2.488261
    16  C    3.754722   3.756726   4.242065   2.446127   1.393954
    17  C    2.459379   2.459633   2.827018   1.411322   2.421643
    18  C    1.407892   2.825285   2.457315   2.460581   3.739883
    19  C    4.276227   6.506080   5.713796   6.208466   6.529053
    20  C    5.123005   7.488569   6.533004   7.367446   7.883043
    21  C    5.132341   7.099307   6.533321   6.518288   6.208757
    22  C    6.502728   8.498738   7.915256   7.894721   7.378439
    23  C    7.497649   9.277657   8.860232   8.488802   7.495447
    24  C    7.368877   8.858539   8.636099   7.902408   6.537485
    25  C    6.177759   7.501259   7.371519   6.496782   5.137973
    26  C    4.920700   6.500927   6.198781   5.678631   4.929548
    27  C    7.111908   9.303553   8.549386   8.874174   8.652173
    28  C    6.515333   8.849989   7.935459   8.635260   8.862859
    29  C    7.521103   9.918846   8.898928   9.834711  10.231889
    30  C    8.830297  11.207183  10.224442  11.047120  11.235585
    31  C    9.281253  11.570982  10.710227  11.236883  11.071538
    32  C    8.529325  10.714737   9.966866  10.252388   9.872593
    33  H    7.561269   8.331669   8.531262   7.080927   4.926507
    34  H    6.278865   6.414310   6.919086   5.035093   2.529554
    35  H    2.166002   4.051250   2.702627   4.873455   7.043712
    36  H    3.416587   5.824112   4.629688   6.148035   7.536366
    37  H    3.431988   1.096104   2.135880   2.180434   4.853818
    38  H    2.179927   2.136246   1.096076   3.433744   6.131692
    39  H    5.859764   5.335182   6.133786   3.896657   1.100860
    40  H    6.140771   4.622796   5.817706   3.408607   2.155029
    41  H    4.870399   2.699859   4.048674   2.164603   3.406460
    42  H    4.936302   7.361871   6.267714   7.454446   8.342345
    43  H    8.537750  10.366238   9.917047   9.589553   8.551848
    44  H    8.326643   9.668000   9.544817   8.619238   6.960895
    45  H    7.372538   9.799799   8.683389   9.875503  10.565138
    46  H    9.652508  12.057816  11.016565  11.976511  12.275994
    47  H   10.369907  12.647673  11.800436  12.282971  12.010790
    48  H    9.120752  11.192182  10.549970  10.602077   9.930052
                   11         12         13         14         15
    11  C    0.000000
    12  C    1.384271   0.000000
    13  C    5.099199   4.904536   0.000000
    14  C    4.893598   5.098944   1.444587   0.000000
    15  C    3.764743   4.263935   2.471124   1.397000   0.000000
    16  C    2.423259   2.809606   2.865911   2.470417   1.454437
    17  C    2.795272   2.432575   2.472028   2.844128   2.474703
    18  C    4.230470   3.742560   1.416534   2.468454   2.852790
    19  C    7.512727   7.382730   2.478206   2.876150   4.273136
    20  C    8.825104   8.607568   3.736236   4.248957   5.645902
    21  C    7.373582   7.510368   2.857559   2.480110   3.753498
    22  C    8.611767   8.841255   4.257000   3.752223   4.890488
    23  C    8.823534   9.263752   5.108255   4.233363   5.066365
    24  C    7.908758   8.508380   4.922282   3.750466   4.244483
    25  C    6.498307   7.079897   3.760613   2.446109   2.815973
    26  C    6.175889   6.491946   2.474181   1.423218   2.441530
    27  C    9.827301   9.930738   5.129406   4.933842   6.179894
    28  C    9.912176   9.818169   4.913734   5.122969   6.485440
    29  C   11.240294  11.069374   6.180478   6.509182   7.883516
    30  C   12.317101  12.238470   7.333948   7.484667   8.815276
    31  C   12.250610  12.330954   7.481437   7.357293   8.593861
    32  C   11.096515  11.271667   6.522071   6.216229   7.384851
    33  H    6.301067   7.250199   5.349134   3.904612   3.422269
    34  H    3.858867   4.929578   4.633445   3.414055   2.164883
    35  H    7.203371   6.255867   3.902977   5.347461   6.170147
    36  H    8.124059   7.528254   3.412891   4.634861   5.865665
    37  H    4.067228   2.687865   5.337672   6.177823   5.898752
    38  H    5.829540   4.607266   4.623523   5.889686   6.185086
    39  H    2.167761   3.409166   4.901584   4.095444   2.706292
    40  H    1.095095   2.151726   6.167128   5.863217   4.641518
    41  H    2.156151   1.095859   5.875493   6.167950   5.359788
    42  H    9.154040   8.772282   4.087687   4.897726   6.276084
    43  H    9.893143  10.358980   6.175767   5.334116   6.145919
    44  H    8.353074   9.091303   5.888995   4.620718   4.869410
    45  H   11.475207  11.172893   6.376031   6.927503   8.323179
    46  H   13.329864  13.200373   8.301857   8.529104   9.873875
    47  H   13.221479  13.350751   8.530071   8.331731   9.524182
    48  H   11.216744  11.523043   6.953098   6.424135   7.456251
                   16         17         18         19         20
    16  C    0.000000
    17  C    1.415155   0.000000
    18  C    2.474854   1.435251   0.000000
    19  C    5.161706   4.950183   3.775251   0.000000
    20  C    6.506125   6.186317   4.906963   1.372905   0.000000
    21  C    4.950499   5.140965   4.274051   1.434817   2.426803
    22  C    6.197240   6.505225   5.673467   2.456837   2.816460
    23  C    6.490972   7.077481   6.487949   3.760830   4.245882
    24  C    5.698911   6.510137   6.187545   4.255118   5.071586
    25  C    4.270389   5.116043   4.914463   3.766675   4.882567
    26  C    3.775231   4.267323   3.762988   2.484675   3.733312
    27  C    7.404238   7.530316   6.515773   2.835864   2.448834
    28  C    7.526573   7.385594   6.187951   2.435596   1.421482
    29  C    8.878946   8.643364   7.374182   3.727582   2.467306
    30  C    9.918792   9.805912   8.593639   4.855743   3.718895
    31  C    9.827647   9.917094   8.834340   5.068734   4.219759
    32  C    8.677049   8.891910   7.918191   4.253110   3.737118
    33  H    4.636646   5.876673   6.175081   5.890940   7.048986
    34  H    2.688627   4.096087   4.891964   6.185034   7.532219
    35  H    5.875034   4.622532   3.420834   4.639700   4.916377
    36  H    6.171211   5.328934   3.893687   2.691412   2.525856
    37  H    4.623416   3.439141   3.921153   7.588390   8.539232
    38  H    5.337956   3.922834   3.436451   6.310637   6.952843
    39  H    2.154525   3.417454   4.626018   6.966118   8.338406
    40  H    3.409829   3.890342   5.325557   8.553969   9.880205
    41  H    3.905464   3.424666   4.622688   8.346517   9.527576
    42  H    6.948676   6.411355   5.030242   2.144479   1.102169
    43  H    7.578884   8.178241   7.566917   4.626735   4.867516
    44  H    6.300968   7.260049   7.087528   5.351014   6.144786
    45  H    9.183851   8.781471   7.433141   4.055711   2.686232
    46  H   10.944959  10.770758   9.516361   5.831429   4.609911
    47  H   10.799206  10.948202   9.896326   6.141858   5.314561
    48  H    8.827024   9.209049   8.368830   4.890329   4.613150
                   21         22         23         24         25
    21  C    0.000000
    22  C    1.399455   0.000000
    23  C    2.442177   1.429611   0.000000
    24  C    2.820318   2.429705   1.359031   0.000000
    25  C    2.455834   2.824546   2.420392   1.428537   0.000000
    26  C    1.432545   2.448959   2.810258   2.448226   1.406230
    27  C    2.453739   1.435571   2.490791   3.737054   4.260107
    28  C    2.819829   2.452873   3.766238   4.882516   5.100854
    29  C    4.238727   3.751468   4.933200   6.152033   6.487766
    30  C    5.071611   4.241645   5.136293   6.462973   7.066122
    31  C    4.877186   3.744460   4.287048   5.646066   6.484803
    32  C    3.761413   2.494491   2.916232   4.275262   5.148878
    33  H    4.623593   4.870274   4.049794   2.695982   2.170325
    34  H    5.335462   6.146526   5.822165   4.624441   3.422275
    35  H    5.894927   7.093516   8.333403   8.533941   7.562469
    36  H    4.117646   5.056097   6.425040   6.932282   6.286732
    37  H    8.195203   9.594609  10.361690   9.911048   8.537711
    38  H    7.280530   8.630552   9.668132   9.543884   8.327577
    39  H    6.425564   7.458350   7.363434   6.266452   4.946105
    40  H    8.337368   9.529582   9.637695   8.637264   7.258933
    41  H    8.551930   9.897720  10.350836   9.604218   8.175744
    42  H    3.430177   3.918607   5.348051   6.149348   5.865581
    43  H    3.423357   2.172234   1.101018   2.146133   3.429683
    44  H    3.916198   3.430456   2.139613   1.095971   2.177341
    45  H    4.864648   4.623210   5.896467   7.051689   7.237649
    46  H    6.142123   5.336487   6.203058   7.539389   8.160990
    47  H    5.858475   4.636024   4.939618   6.280174   7.262447
    48  H    4.100727   2.708765   2.544119   3.838872   4.950225
                   26         27         28         29         30
    26  C    0.000000
    27  C    3.764676   0.000000
    28  C    4.252371   1.408170   0.000000
    29  C    5.671268   2.442556   1.418898   0.000000
    30  C    6.473959   2.806280   2.420481   1.370811   0.000000
    31  C    6.164615   2.423526   2.798280   2.411805   1.410833
    32  C    4.943348   1.417788   2.433529   2.792551   2.412738
    33  H    3.425477   6.283600   7.237562   8.602258   9.072443
    34  H    3.902929   7.560469   8.155290   9.574188  10.334584
    35  H    6.180097   7.282665   6.314988   6.962125   8.332165
    36  H    4.899270   4.965150   3.875521   4.478643   5.847673
    37  H    7.575848  10.393528   9.913536  10.952006  12.254335
    38  H    7.095907   9.128350   8.373783   9.205570  10.561051
    39  H    5.045962   8.810147   9.187440  10.588699  11.497081
    40  H    7.081389  10.787509  10.934769  12.278835  13.328585
    41  H    7.570261  10.954204  10.779428  11.994784  13.195764
    42  H    4.626390   3.440294   2.180755   2.690977   4.057242
    43  H    3.910924   2.687859   4.088982   5.025132   4.927349
    44  H    3.431608   4.628780   5.863861   7.070059   7.242842
    45  H    6.274867   3.429157   2.172551   1.095922   2.147861
    46  H    7.553380   3.901049   3.418826   2.145158   1.094890
    47  H    7.083385   3.420024   3.893081   3.395325   2.168069
    48  H    5.052342   2.167569   3.421999   3.893189   3.419958
                   31         32         33         34         35
    31  C    0.000000
    32  C    1.370891   0.000000
    33  H    8.330749   6.961578   0.000000
    34  H    9.872499   8.555724   2.490594   0.000000
    35  H    9.089717   8.637635   9.252072   8.283604   0.000000
    36  H    6.621811   6.259057   8.292463   8.010452   2.486397
    37  H   12.648222  11.806053   9.252123   7.202046   4.766278
    38  H   11.171269  10.536109   9.579605   8.013058   2.452097
    39  H   11.198994   9.937266   4.286547   1.795953   8.005484
    40  H   13.209738  12.022901   6.773940   4.283359   8.254931
    41  H   13.341089  12.309808   8.303935   5.935661   6.725884
    42  H    4.852516   4.612444   8.014288   8.280411   4.279943
    43  H    3.840915   2.530414   4.770278   6.762807   9.256801
    44  H    6.282933   4.929179   2.448717   4.772055   9.582933
    45  H    3.412216   3.888450   9.390274  10.150506   6.509407
    46  H    2.167853   3.395866  10.161389  11.423287   8.964560
    47  H    1.094884   2.144258   8.974742  10.680046  10.177263
    48  H    2.156058   1.100714   6.518908   8.363878   9.434430
                   36         37         38         39         40
    36  H    0.000000
    37  H    6.758338   0.000000
    38  H    4.772187   2.482906   0.000000
    39  H    8.280573   5.937490   7.214507   0.000000
    40  H    9.219155   4.765365   6.751883   2.487440   0.000000
    41  H    8.259876   2.448099   4.763196   4.314810   2.484622
    42  H    1.793549   8.359619   6.521512   8.911118  10.235004
    43  H    7.214539  11.452608  10.697920   8.367323  10.684212
    44  H    8.026314  10.693780  10.488545   6.524637   8.977550
    45  H    4.092713  10.788885   8.862944  11.021049  12.540752
    46  H    6.509978  13.084491  11.275372  12.563875  14.353518
    47  H    7.704441  13.727846  12.266135  12.080830  14.158769
    48  H    7.132604  12.288257  11.197580   9.872367  12.083803
                   41         42         43         44         45
    41  H    0.000000
    42  H    9.614299   0.000000
    43  H   11.447424   5.951586   0.000000
    44  H   10.182369   7.229640   2.490908   0.000000
    45  H   12.038706   2.440196   6.073207   8.016576   0.000000
    46  H   14.134874   4.761018   5.926227   8.291844   2.485820
    47  H   14.372668   5.927086   4.285172   6.776038   4.306411
    48  H   12.588454   5.569208   1.792004   4.282910   4.989054
                   46         47         48
    46  H    0.000000
    47  H    2.481710   0.000000
    48  H    4.314328   2.493300   0.000000
 Stoichiometry    C32H16
 Framework group  CS[SG(C32H16)]
 Deg. of freedom    93
 Full point group                 CS      NOp   2
 Largest Abelian subgroup         CS      NOp   2
 Largest concise Abelian subgroup C1      NOp   1
                         Standard orientation:                         
 ---------------------------------------------------------------------
 Center     Atomic      Atomic             Coordinates (Angstroms)
 Number     Number       Type             X           Y           Z
 ---------------------------------------------------------------------
      1          6           0       -3.256073   -1.616605    0.000000
      2          6           0       -3.494963   -0.267136    0.000000
      3          6           0        1.322390    0.656116    0.000000
      4          6           0        2.134024    2.943262    0.000000
      5          6           0        2.377881    1.586604    0.000000
      6          6           0        0.814143    3.426929    0.000000
      7          6           0       -0.734823    5.297351    0.000000
      8          6           0        0.538624    4.837896    0.000000
      9          6           0       -1.849661    4.388124    0.000000
     10          6           0       -3.995597    2.596074    0.000000
     11          6           0       -4.228245    3.969959    0.000000
     12          6           0       -3.169906    4.862217    0.000000
     13          6           0        0.000000    1.119735    0.000000
     14          6           0       -1.111621    0.197168    0.000000
     15          6           0       -2.428589    0.663219    0.000000
     16          6           0       -2.695614    2.092933    0.000000
     17          6           0       -1.607496    2.997734    0.000000
     18          6           0       -0.256640    2.512827    0.000000
     19          6           0        1.594339   -0.777523    0.000000
     20          6           0        2.879122   -1.261465    0.000000
     21          6           0        0.491403   -1.695254    0.000000
     22          6           0        0.724386   -3.075179    0.000000
     23          6           0       -0.387489   -3.973802    0.000000
     24          6           0       -1.665704   -3.512142    0.000000
     25          6           0       -1.929470   -2.108167    0.000000
     26          6           0       -0.853724   -1.202489    0.000000
     27          6           0        2.070854   -3.573065    0.000000
     28          6           0        3.141609   -2.658502    0.000000
     29          6           0        4.475242   -3.142953    0.000000
     30          6           0        4.722673   -4.491249    0.000000
     31          6           0        3.651881   -5.409864    0.000000
     32          6           0        2.356271   -4.961827    0.000000
     33          1           0       -4.088474   -2.329557    0.000000
     34          1           0       -4.524859    0.122509    0.000000
     35          1           0        2.968199    3.654105    0.000000
     36          1           0        3.411760    1.207592    0.000000
     37          1           0       -0.946666    6.372788    0.000000
     38          1           0        1.388742    5.529764    0.000000
     39          1           0       -4.840606    1.890488    0.000000
     40          1           0       -5.257965    4.342665    0.000000
     41          1           0       -3.356576    5.942060    0.000000
     42          1           0        3.727546   -0.557937    0.000000
     43          1           0       -0.172478   -5.053623    0.000000
     44          1           0       -2.514527   -4.205432    0.000000
     45          1           0        5.301337   -2.422806    0.000000
     46          1           0        5.750831   -4.867649    0.000000
     47          1           0        3.867138   -6.483379    0.000000
     48          1           0        1.511229   -5.667146    0.000000
 ---------------------------------------------------------------------
 Rotational constants (GHZ):      0.3187564      0.0995665      0.0758683
 Leave Link  202 at Sat Jul 27 11:49:06 2019, MaxMem=  4194304000 cpu:         0.6
 (Enter /home/minenky/programs//g09/l301.exe)
 Standard basis: def2TZVP (5D, 7F)
 ======================================================================================================
                                       Pseudopotential Parameters
 ======================================================================================================
  Center     Atomic      Valence      Angular      Power
  Number     Number     Electrons     Momentum     of R      Exponent        Coefficient   SO-Coeffient
 ======================================================================================================
    1          6
                                   No pseudopotential on this center.
    2          6
                                   No pseudopotential on this center.
    3          6
                                   No pseudopotential on this center.
    4          6
                                   No pseudopotential on this center.
    5          6
                                   No pseudopotential on this center.
    6          6
                                   No pseudopotential on this center.
    7          6
                                   No pseudopotential on this center.
    8          6
                                   No pseudopotential on this center.
    9          6
                                   No pseudopotential on this center.
   10          6
                                   No pseudopotential on this center.
   11          6
                                   No pseudopotential on this center.
   12          6
                                   No pseudopotential on this center.
   13          6
                                   No pseudopotential on this center.
   14          6
                                   No pseudopotential on this center.
   15          6
                                   No pseudopotential on this center.
   16          6
                                   No pseudopotential on this center.
   17          6
                                   No pseudopotential on this center.
   18          6
                                   No pseudopotential on this center.
   19          6
                                   No pseudopotential on this center.
   20          6
                                   No pseudopotential on this center.
   21          6
                                   No pseudopotential on this center.
   22          6
                                   No pseudopotential on this center.
   23          6
                                   No pseudopotential on this center.
   24          6
                                   No pseudopotential on this center.
   25          6
                                   No pseudopotential on this center.
   26          6
                                   No pseudopotential on this center.
   27          6
                                   No pseudopotential on this center.
   28          6
                                   No pseudopotential on this center.
   29          6
                                   No pseudopotential on this center.
   30          6
                                   No pseudopotential on this center.
   31          6
                                   No pseudopotential on this center.
   32          6
                                   No pseudopotential on this center.
   33          1
                                   No pseudopotential on this center.
   34          1
                                   No pseudopotential on this center.
   35          1
                                   No pseudopotential on this center.
   36          1
                                   No pseudopotential on this center.
   37          1
                                   No pseudopotential on this center.
   38          1
                                   No pseudopotential on this center.
   39          1
                                   No pseudopotential on this center.
   40          1
                                   No pseudopotential on this center.
   41          1
                                   No pseudopotential on this center.
   42          1
                                   No pseudopotential on this center.
   43          1
                                   No pseudopotential on this center.
   44          1
                                   No pseudopotential on this center.
   45          1
                                   No pseudopotential on this center.
   46          1
                                   No pseudopotential on this center.
   47          1
                                   No pseudopotential on this center.
   48          1
                                   No pseudopotential on this center.
 ======================================================================================================
 Ernie: Thresh=  0.10000D-02 Tol=  0.10000D-05 Strict=F.
 AO basis set (Overlap normalization):
 Atom C1       Shell     1 S   6     bf    1 -     1         -6.153086730962         -3.054940795362          0.000000000000
      0.1357534968D+05  0.6064550360D-03
      0.2035233368D+04  0.4697908888D-02
      0.4632256236D+03  0.2433247765D-01
      0.1312001960D+03  0.9739996831D-01
      0.4285301589D+02  0.3019558425D+00
      0.1558418577D+02  0.6623360914D+00
 Atom C1       Shell     2 S   2     bf    2 -     2         -6.153086730962         -3.054940795362          0.000000000000
      0.6206713851D+01  0.6559530854D+00
      0.2576489653D+01  0.3758563329D+00
 Atom C1       Shell     3 S   1     bf    3 -     3         -6.153086730962         -3.054940795362          0.000000000000
      0.5769633942D+00  0.1000000000D+01
 Atom C1       Shell     4 S   1     bf    4 -     4         -6.153086730962         -3.054940795362          0.000000000000
      0.2297283136D+00  0.1000000000D+01
 Atom C1       Shell     5 S   1     bf    5 -     5         -6.153086730962         -3.054940795362          0.000000000000
      0.9516444003D-01  0.1000000000D+01
 Atom C1       Shell     6 P   4     bf    6 -     8         -6.153086730962         -3.054940795362          0.000000000000
      0.3469723224D+02  0.1132722000D-01
      0.7958262283D+01  0.7616965920D-01
      0.2378082688D+01  0.3019225220D+00
      0.8143320818D+00  0.7278502735D+00
 Atom C1       Shell     7 P   1     bf    9 -    11         -6.153086730962         -3.054940795362          0.000000000000
      0.2888754725D+00  0.1000000000D+01
 Atom C1       Shell     8 P   1     bf   12 -    14         -6.153086730962         -3.054940795362          0.000000000000
      0.1005682367D+00  0.1000000000D+01
 Atom C1       Shell     9 D   1     bf   15 -    19         -6.153086730962         -3.054940795362          0.000000000000
      0.1097000000D+01  0.1000000000D+01
 Atom C1       Shell    10 D   1     bf   20 -    24         -6.153086730962         -3.054940795362          0.000000000000
      0.3180000000D+00  0.1000000000D+01
 Atom C1       Shell    11 F   1     bf   25 -    31         -6.153086730962         -3.054940795362          0.000000000000
      0.7610000000D+00  0.1000000000D+01
 Atom C2       Shell    12 S   6     bf   32 -    32         -6.604523575631         -0.504814559564          0.000000000000
      0.1357534968D+05  0.6064550360D-03
      0.2035233368D+04  0.4697908888D-02
      0.4632256236D+03  0.2433247765D-01
      0.1312001960D+03  0.9739996831D-01
      0.4285301589D+02  0.3019558425D+00
      0.1558418577D+02  0.6623360914D+00
 Atom C2       Shell    13 S   2     bf   33 -    33         -6.604523575631         -0.504814559564          0.000000000000
      0.6206713851D+01  0.6559530854D+00
      0.2576489653D+01  0.3758563329D+00
 Atom C2       Shell    14 S   1     bf   34 -    34         -6.604523575631         -0.504814559564          0.000000000000
      0.5769633942D+00  0.1000000000D+01
 Atom C2       Shell    15 S   1     bf   35 -    35         -6.604523575631         -0.504814559564          0.000000000000
      0.2297283136D+00  0.1000000000D+01
 Atom C2       Shell    16 S   1     bf   36 -    36         -6.604523575631         -0.504814559564          0.000000000000
      0.9516444003D-01  0.1000000000D+01
 Atom C2       Shell    17 P   4     bf   37 -    39         -6.604523575631         -0.504814559564          0.000000000000
      0.3469723224D+02  0.1132722000D-01
      0.7958262283D+01  0.7616965920D-01
      0.2378082688D+01  0.3019225220D+00
      0.8143320818D+00  0.7278502735D+00
 Atom C2       Shell    18 P   1     bf   40 -    42         -6.604523575631         -0.504814559564          0.000000000000
      0.2888754725D+00  0.1000000000D+01
 Atom C2       Shell    19 P   1     bf   43 -    45         -6.604523575631         -0.504814559564          0.000000000000
      0.1005682367D+00  0.1000000000D+01
 Atom C2       Shell    20 D   1     bf   46 -    50         -6.604523575631         -0.504814559564          0.000000000000
      0.1097000000D+01  0.1000000000D+01
 Atom C2       Shell    21 D   1     bf   51 -    55         -6.604523575631         -0.504814559564          0.000000000000
      0.3180000000D+00  0.1000000000D+01
 Atom C2       Shell    22 F   1     bf   56 -    62         -6.604523575631         -0.504814559564          0.000000000000
      0.7610000000D+00  0.1000000000D+01
 Atom C3       Shell    23 S   6     bf   63 -    63          2.498955731550          1.239880471114          0.000000000000
      0.1357534968D+05  0.6064550360D-03
      0.2035233368D+04  0.4697908888D-02
      0.4632256236D+03  0.2433247765D-01
      0.1312001960D+03  0.9739996831D-01
      0.4285301589D+02  0.3019558425D+00
      0.1558418577D+02  0.6623360914D+00
 Atom C3       Shell    24 S   2     bf   64 -    64          2.498955731550          1.239880471114          0.000000000000
      0.6206713851D+01  0.6559530854D+00
      0.2576489653D+01  0.3758563329D+00
 Atom C3       Shell    25 S   1     bf   65 -    65          2.498955731550          1.239880471114          0.000000000000
      0.5769633942D+00  0.1000000000D+01
 Atom C3       Shell    26 S   1     bf   66 -    66          2.498955731550          1.239880471114          0.000000000000
      0.2297283136D+00  0.1000000000D+01
 Atom C3       Shell    27 S   1     bf   67 -    67          2.498955731550          1.239880471114          0.000000000000
      0.9516444003D-01  0.1000000000D+01
 Atom C3       Shell    28 P   4     bf   68 -    70          2.498955731550          1.239880471114          0.000000000000
      0.3469723224D+02  0.1132722000D-01
      0.7958262283D+01  0.7616965920D-01
      0.2378082688D+01  0.3019225220D+00
      0.8143320818D+00  0.7278502735D+00
 Atom C3       Shell    29 P   1     bf   71 -    73          2.498955731550          1.239880471114          0.000000000000
      0.2888754725D+00  0.1000000000D+01
 Atom C3       Shell    30 P   1     bf   74 -    76          2.498955731550          1.239880471114          0.000000000000
      0.1005682367D+00  0.1000000000D+01
 Atom C3       Shell    31 D   1     bf   77 -    81          2.498955731550          1.239880471114          0.000000000000
      0.1097000000D+01  0.1000000000D+01
 Atom C3       Shell    32 D   1     bf   82 -    86          2.498955731550          1.239880471114          0.000000000000
      0.3180000000D+00  0.1000000000D+01
 Atom C3       Shell    33 F   1     bf   87 -    93          2.498955731550          1.239880471114          0.000000000000
      0.7610000000D+00  0.1000000000D+01
 Atom C4       Shell    34 S   6     bf   94 -    94          4.032720184920          5.561958711602          0.000000000000
      0.1357534968D+05  0.6064550360D-03
      0.2035233368D+04  0.4697908888D-02
      0.4632256236D+03  0.2433247765D-01
      0.1312001960D+03  0.9739996831D-01
      0.4285301589D+02  0.3019558425D+00
      0.1558418577D+02  0.6623360914D+00
 Atom C4       Shell    35 S   2     bf   95 -    95          4.032720184920          5.561958711602          0.000000000000
      0.6206713851D+01  0.6559530854D+00
      0.2576489653D+01  0.3758563329D+00
 Atom C4       Shell    36 S   1     bf   96 -    96          4.032720184920          5.561958711602          0.000000000000
      0.5769633942D+00  0.1000000000D+01
 Atom C4       Shell    37 S   1     bf   97 -    97          4.032720184920          5.561958711602          0.000000000000
      0.2297283136D+00  0.1000000000D+01
 Atom C4       Shell    38 S   1     bf   98 -    98          4.032720184920          5.561958711602          0.000000000000
      0.9516444003D-01  0.1000000000D+01
 Atom C4       Shell    39 P   4     bf   99 -   101          4.032720184920          5.561958711602          0.000000000000
      0.3469723224D+02  0.1132722000D-01
      0.7958262283D+01  0.7616965920D-01
      0.2378082688D+01  0.3019225220D+00
      0.8143320818D+00  0.7278502735D+00
 Atom C4       Shell    40 P   1     bf  102 -   104          4.032720184920          5.561958711602          0.000000000000
      0.2888754725D+00  0.1000000000D+01
 Atom C4       Shell    41 P   1     bf  105 -   107          4.032720184920          5.561958711602          0.000000000000
      0.1005682367D+00  0.1000000000D+01
 Atom C4       Shell    42 D   1     bf  108 -   112          4.032720184920          5.561958711602          0.000000000000
      0.1097000000D+01  0.1000000000D+01
 Atom C4       Shell    43 D   1     bf  113 -   117          4.032720184920          5.561958711602          0.000000000000
      0.3180000000D+00  0.1000000000D+01
 Atom C4       Shell    44 F   1     bf  118 -   124          4.032720184920          5.561958711602          0.000000000000
      0.7610000000D+00  0.1000000000D+01
 Atom C5       Shell    45 S   6     bf  125 -   125          4.493544577835          2.998246137781          0.000000000000
      0.1357534968D+05  0.6064550360D-03
      0.2035233368D+04  0.4697908888D-02
      0.4632256236D+03  0.2433247765D-01
      0.1312001960D+03  0.9739996831D-01
      0.4285301589D+02  0.3019558425D+00
      0.1558418577D+02  0.6623360914D+00
 Atom C5       Shell    46 S   2     bf  126 -   126          4.493544577835          2.998246137781          0.000000000000
      0.6206713851D+01  0.6559530854D+00
      0.2576489653D+01  0.3758563329D+00
 Atom C5       Shell    47 S   1     bf  127 -   127          4.493544577835          2.998246137781          0.000000000000
      0.5769633942D+00  0.1000000000D+01
 Atom C5       Shell    48 S   1     bf  128 -   128          4.493544577835          2.998246137781          0.000000000000
      0.2297283136D+00  0.1000000000D+01
 Atom C5       Shell    49 S   1     bf  129 -   129          4.493544577835          2.998246137781          0.000000000000
      0.9516444003D-01  0.1000000000D+01
 Atom C5       Shell    50 P   4     bf  130 -   132          4.493544577835          2.998246137781          0.000000000000
      0.3469723224D+02  0.1132722000D-01
      0.7958262283D+01  0.7616965920D-01
      0.2378082688D+01  0.3019225220D+00
      0.8143320818D+00  0.7278502735D+00
 Atom C5       Shell    51 P   1     bf  133 -   135          4.493544577835          2.998246137781          0.000000000000
      0.2888754725D+00  0.1000000000D+01
 Atom C5       Shell    52 P   1     bf  136 -   138          4.493544577835          2.998246137781          0.000000000000
      0.1005682367D+00  0.1000000000D+01
 Atom C5       Shell    53 D   1     bf  139 -   143          4.493544577835          2.998246137781          0.000000000000
      0.1097000000D+01  0.1000000000D+01
 Atom C5       Shell    54 D   1     bf  144 -   148          4.493544577835          2.998246137781          0.000000000000
      0.3180000000D+00  0.1000000000D+01
 Atom C5       Shell    55 F   1     bf  149 -   155          4.493544577835          2.998246137781          0.000000000000
      0.7610000000D+00  0.1000000000D+01
 Atom C6       Shell    56 S   6     bf  156 -   156          1.538507631214          6.475956941380          0.000000000000
      0.1357534968D+05  0.6064550360D-03
      0.2035233368D+04  0.4697908888D-02
      0.4632256236D+03  0.2433247765D-01
      0.1312001960D+03  0.9739996831D-01
      0.4285301589D+02  0.3019558425D+00
      0.1558418577D+02  0.6623360914D+00
[...]
 0.,-0.00000359,-0.00000314,0.,0.00000584,-0.00001411,0.,0.32187925,0.0
 0034527,0.00070272,0.,0.00032203,0.00000940,0.,0.00017864,-0.00050037,
 0.,0.00000632,-0.00005940,0.,-0.00017685,0.00001609,0.,0.00000448,-0.0
 0000203,0.,-0.00000768,-0.00000293,0.,0.00000068,0.00000867,0.,-0.0000
 0284,0.00000113,0.,-0.00000696,0.00000535,0.,-0.00000262,0.00001876,0.
 ,0.00001091,-0.00000392,0.,0.00005353,0.00004858,0.,-0.00025129,0.0001
 0913,0.,-0.00001040,-0.00026448,0.,0.00002133,0.00002162,0.,0.00001424
 ,-0.00003302,0.,-0.00001155,0.00002881,0.,-0.00161190,0.00013159,0.,-0
 .00009818,-0.00004418,0.,0.00105121,-0.00565240,0.,-0.02929940,-0.0059
 3780,0.,-0.10733637,-0.10605554,0.,0.02019119,0.01140789,0.,0.00327367
 ,-0.00225031,0.,0.00076832,-0.00061813,0.,-0.00047662,0.00133748,0.,-0
 .00004021,-0.00005828,0.,-0.00006577,0.00025654,0.,-0.00000932,0.00014
 197,0.,0.00054570,0.00054559,0.,-0.00029216,-0.00159642,0.,-0.00000927
 ,-0.00003041,0.,0.00008594,0.00002985,0.,-0.00001871,-0.00000933,0.,0.
 00001440,0.00000320,0.,-0.00000172,0.00000061,0.,-0.00000026,-0.000001
 30,0.,-0.00000448,0.00000551,0.,0.00000008,0.00000050,0.,-0.00000133,0
 .00000039,0.,0.00006080,-0.00001726,0.,0.11071137,0.10735867,0.,0.,0.0
 0008418,0.,0.,-0.00070741,0.,0.,-0.00005437,0.,0.,-0.00004590,0.,0.,0.
 00001198,0.,0.,0.00002281,0.,0.,-0.00000169,0.,0.,-0.00000123,0.,0.,-0
 .00000005,0.,0.,-0.00000873,0.,0.,0.00002191,0.,0.,-0.00000672,0.,0.,0
 .00011836,0.,0.,-0.00088540,0.,0.,0.00017049,0.,0.,0.00005721,0.,0.,0.
 00000270,0.,0.,-0.00000589,0.,0.,0.00023771,0.,0.,-0.00016078,0.,0.,0.
 00461299,0.,0.,0.00175443,0.,0.,-0.03593723,0.,0.,0.00380444,0.,0.,0.0
 1030561,0.,0.,-0.00087011,0.,0.,-0.00160821,0.,0.,-0.00010024,0.,0.,0.
 00006487,0.,0.,-0.00002158,0.,0.,-0.00007264,0.,0.,-0.00077905,0.,0.,0
 .00017255,0.,0.,0.00001429,0.,0.,0.00000339,0.,0.,0.00001324,0.,0.,0.0
 0000052,0.,0.,0.00000208,0.,0.,-0.00002314,0.,0.,0.00000101,0.,0.,-0.0
 0000151,0.,0.,0.00003769,0.,0.,0.02333874,0.00140541,-0.00177725,0.,0.
 00014046,0.00044152,0.,-0.00001311,0.00006125,0.,0.00000703,-0.0000040
 2,0.,0.00002575,-0.00000418,0.,-0.00004905,0.00000563,0.,0.00000230,0.
 00000470,0.,0.00000669,-0.00001900,0.,0.00000897,0.00001767,0.,-0.0000
 2399,-0.00003183,0.,-0.00000098,0.00000493,0.,-0.00002073,-0.00000327,
 0.,-0.00047869,0.00003767,0.,0.00035268,-0.00148143,0.,0.00012209,-0.0
 0016661,0.,0.00002691,0.00011789,0.,0.00000487,-0.00001433,0.,0.000028
 61,-0.00014209,0.,0.00014737,-0.00019656,0.,-0.00019234,-0.00000539,0.
 ,-0.00088494,0.00045759,0.,-0.00399990,0.00245047,0.,0.00730170,0.0268
 9349,0.,-0.06456476,-0.03704742,0.,0.00026687,-0.02910623,0.,-0.005193
 08,-0.00075697,0.,0.00089031,0.00092780,0.,-0.00020364,0.00022343,0.,-
 0.00001348,0.00012225,0.,0.00005389,0.00005899,0.,0.00000050,-0.000116
 54,0.,-0.00004154,-0.00000011,0.,-0.00055967,0.00099648,0.,-0.00002433
 ,0.00000455,0.,0.00000180,-0.00000134,0.,-0.00000222,-0.00001567,0.,-0
 .00000116,-0.00000020,0.,-0.00000501,-0.00000321,0.,-0.00000943,0.0000
 0964,0.,-0.00000474,-0.00000061,0.,-0.00000074,0.00000118,0.,0.0000081
 0,0.00000265,0.,0.00089367,-0.00005943,0.,0.06467254,0.00175459,0.0010
 1927,0.,-0.00041805,-0.00002918,0.,0.00003338,0.00000690,0.,0.00001200
 ,-0.00000358,0.,-0.00002207,-0.00002052,0.,-0.00002955,0.00000589,0.,-
 0.00000669,0.00000151,0.,0.00001196,0.00000264,0.,0.00000077,0.0000074
 8,0.,-0.00001865,-0.00002918,0.,-0.00000170,-0.00001911,0.,-0.00003145
 ,0.00000575,0.,-0.00023335,0.00001642,0.,0.00059471,-0.00055194,0.,0.0
 0002418,0.00032934,0.,-0.00001690,0.00005454,0.,-0.00002996,0.00001839
 ,0.,0.00004199,-0.00009027,0.,-0.00005773,0.00004139,0.,0.00006118,0.0
 0003859,0.,0.00009095,0.00050048,0.,0.00345494,0.00033036,0.,-0.005197
 97,-0.01487165,0.,-0.03630820,-0.33424033,0.,0.00103292,-0.00908712,0.
 ,-0.00209757,0.00103486,0.,-0.00065398,-0.00068748,0.,0.00032258,-0.00
 011178,0.,-0.00004540,-0.00007489,0.,0.00002309,-0.00003265,0.,0.00000
 203,0.00001487,0.,0.00001163,-0.00002785,0.,-0.00071484,0.00040283,0.,
 -0.00005302,-0.00001595,0.,-0.00000312,-0.00000731,0.,0.00000447,-0.00
 000374,0.,-0.00000536,-0.00000061,0.,-0.00000291,-0.00000700,0.,0.0000
 0274,0.00000228,0.,-0.00000904,0.00000234,0.,-0.00000371,-0.00000263,0
 .,0.00000288,-0.00002566,0.,0.00035199,0.00085843,0.,0.03807361,0.3552
 9793,0.,0.,-0.00242966,0.,0.,-0.00014034,0.,0.,0.00002577,0.,0.,-0.000
 01383,0.,0.,0.00001491,0.,0.,-0.00000762,0.,0.,-0.00000233,0.,0.,0.000
 00003,0.,0.,-0.00000304,0.,0.,-0.00000888,0.,0.,-0.00000506,0.,0.,0.00
 000042,0.,0.,0.00006753,0.,0.,0.00015056,0.,0.,-0.00003173,0.,0.,0.000
 04406,0.,0.,-0.00001048,0.,0.,-0.00001077,0.,0.,-0.00084642,0.,0.,0.00
 010597,0.,0.,-0.00092216,0.,0.,0.00991894,0.,0.,0.00345859,0.,0.,-0.03
 639580,0.,0.,0.00270210,0.,0.,0.00448175,0.,0.,0.00007284,0.,0.,-0.000
 63841,0.,0.,-0.00001139,0.,0.,0.00007265,0.,0.,-0.00008885,0.,0.,0.000
 31134,0.,0.,0.00021922,0.,0.,0.00011961,0.,0.,0.00000103,0.,0.,0.00000
 224,0.,0.,0.00000113,0.,0.,0.00000347,0.,0.,0.00001013,0.,0.,0.0000028
 1,0.,0.,0.00000127,0.,0.,0.00013036,0.,0.,-0.00548190,0.,0.,0.02520313
 ,-0.00003012,-0.00001156,0.,0.00000237,0.00003568,0.,-0.00004669,-0.00
 002748,0.,0.00000937,-0.00005190,0.,-0.00002415,0.00009008,0.,0.000010
 64,0.00000794,0.,0.00000946,0.00000503,0.,-0.00000466,-0.00002004,0.,0
 .00000877,0.00000462,0.,0.00000076,-0.00000318,0.,0.00000034,0.0000011
 4,0.,0.00000034,-0.00000623,0.,0.00001592,0.00001274,0.,-0.00001998,0.
 00005021,0.,0.00001303,-0.00003621,0.,0.00000611,-0.00000520,0.,-0.000
 00508,0.00000927,0.,0.00000908,-0.00000101,0.,0.00012611,-0.00053095,0
 .,0.00115850,0.00194512,0.,0.00024055,0.00025677,0.,0.00036933,0.00124
 688,0.,-0.00035753,0.00003028,0.,-0.00000203,0.00010820,0.,0.00005284,
 0.00000085,0.,-0.00001052,-0.00009935,0.,-0.00357888,0.00225754,0.,0.0
 0736148,0.02382524,0.,-0.06765849,-0.04640790,0.,0.00010280,-0.0309753
 5,0.,-0.00533996,-0.00127207,0.,-0.00112831,0.00026555,0.,-0.00000054,
 -0.00000268,0.,0.00000185,-0.00000093,0.,-0.00000131,0.00000296,0.,-0.
 00001788,-0.00004304,0.,0.00000319,-0.00000131,0.,-0.00000075,0.000002
 82,0.,0.00000064,-0.00000219,0.,0.00000177,-0.00000176,0.,0.00000156,0
 .00000109,0.,-0.00067191,-0.00066054,0.,0.00001548,0.00000682,0.,-0.00
 002865,0.00002305,0.,0.06858773,-0.00003490,0.00004830,0.,0.00006281,0
 .00001335,0.,-0.00005619,-0.00007154,0.,-0.00002565,0.00004013,0.,0.00
 007164,-0.00003463,0.,0.00001688,-0.00001172,0.,0.00000336,-0.00000542
 ,0.,-0.00001015,0.00000353,0.,-0.00000212,-0.00000090,0.,0.00000887,0.
 00000474,0.,-0.00000288,0.00000787,0.,0.00001273,0.00000132,0.,0.00001
 869,-0.00004247,0.,-0.00001728,-0.00002409,0.,0.00000727,-0.00004281,0
 .,-0.00001838,-0.00000622,0.,0.00001748,0.00000326,0.,-0.00000056,0.00
 001767,0.,0.00042949,0.00012348,0.,-0.00208264,0.00093657,0.,-0.000011
 73,0.00021074,0.,-0.00089937,-0.00070020,0.,0.00037535,-0.00012917,0.,
 -0.00009995,-0.00008108,0.,0.00004794,-0.00000355,0.,0.00004760,0.0000
 8075,0.,0.00358003,-0.00017824,0.,-0.00606035,-0.01649170,0.,-0.046533
 73,-0.33038729,0.,0.00106062,-0.00683623,0.,-0.00225944,0.00141860,0.,
 0.00047177,0.00058659,0.,-0.00000241,-0.00000431,0.,0.00000316,-0.0000
 0115,0.,0.00000882,0.00000605,0.,0.00001236,0.00002269,0.,0.00000167,0
 .00000086,0.,0.00000224,0.00000385,0.,-0.00000598,0.00000255,0.,0.0000
 0229,-0.00000066,0.,0.00000174,0.00000121,0.,0.00106431,0.00052331,0.,
 -0.00002068,0.00001776,0.,0.00003026,-0.00002898,0.,0.05109808,0.35076
 828,0.,0.,-0.00000617,0.,0.,0.00000126,0.,0.,0.00017265,0.,0.,0.000002
 21,0.,0.,-0.00005141,0.,0.,-0.00000366,0.,0.,-0.00000293,0.,0.,-0.0000
 0192,0.,0.,0.00000007,0.,0.,-0.00000205,0.,0.,-0.00000090,0.,0.,-0.000
 00129,0.,0.,0.00000346,0.,0.,0.00000395,0.,0.,-0.00000120,0.,0.,0.0000
 0122,0.,0.,-0.00000106,0.,0.,-0.00001141,0.,0.,-0.00014931,0.,0.,-0.00
 302422,0.,0.,-0.00005986,0.,0.,0.00007456,0.,0.,0.00018830,0.,0.,0.000
 00563,0.,0.,0.00000366,0.,0.,0.00004433,0.,0.,0.00527200,0.,0.,0.00295
 201,0.,0.,-0.03654338,0.,0.,0.00381655,0.,0.,0.00882054,0.,0.,-0.00083
 881,0.,0.,-0.00000117,0.,0.,0.00000115,0.,0.,0.00000667,0.,0.,0.000045
 10,0.,0.,0.00000174,0.,0.,0.00000260,0.,0.,0.00000120,0.,0.,0.00000083
 ,0.,0.,0.00000166,0.,0.,0.00026373,0.,0.,0.00001207,0.,0.,-0.00004097,
 0.,0.,0.02509255,0.00004593,-0.00001062,0.,-0.00003108,-0.00004524,0.,
 0.00002475,0.00015373,0.,0.00000871,0.00001595,0.,-0.00003523,-0.00002
 702,0.,-0.00002077,-0.00000524,0.,-0.00001231,-0.00000387,0.,0.0000125
 2,0.00001856,0.,-0.00000785,-0.00000459,0.,-0.00000627,0.00000082,0.,0
 .00000284,-0.00000831,0.,-0.00001047,0.00000578,0.,-0.00004909,-0.0000
 2386,0.,0.00002193,-0.00002938,0.,-0.00001697,0.00004849,0.,0.00000677
 ,0.00001230,0.,-0.00000920,-0.00001255,0.,-0.00000810,-0.00000533,0.,-
 0.00051366,-0.00009506,0.,-0.00030238,0.00131668,0.,-0.00005455,-0.000
 26236,0.,0.00030474,-0.00006723,0.,-0.00006561,0.00005743,0.,0.0000930
 0,0.00003688,0.,-0.00005453,0.00000965,0.,-0.00000657,0.00001476,0.,-0
 .00040013,-0.00069531,0.,-0.00388466,-0.00362032,0.,-0.01768603,0.0215
 5363,0.,-0.22989465,0.13768696,0.,0.00784950,-0.00535309,0.,0.00118302
 ,-0.00168038,0.,0.00000147,0.00000388,0.,-0.00000425,0.00000205,0.,-0.
 00000775,-0.00000833,0.,0.00000630,0.00001584,0.,-0.00000384,0.0000007
 6,0.,-0.00000169,-0.00000556,0.,0.00000288,0.00000058,0.,-0.00000338,0
 .00000220,0.,-0.00000248,-0.00000177,0.,0.00000099,-0.00004574,0.,0.00
 000635,0.00001663,0.,-0.00000533,0.00000675,0.,0.00087051,-0.00034601,
 0.,0.24182238,0.00006114,0.00000132,0.,-0.00002742,-0.00003748,0.,-0.0
 0000826,0.00005844,0.,0.00002063,-0.00000678,0.,0.00000103,-0.00001504
 ,0.,-0.00000385,0.00002080,0.,0.00000280,0.00000429,0.,-0.00000190,-0.
 00000675,0.,0.00000512,-0.00000153,0.,0.00000960,-0.00000238,0.,-0.000
 00524,0.00000176,0.,0.00000495,0.00000174,0.,-0.00000149,0.00002619,0.
 ,0.00003672,-0.00004375,0.,-0.00000906,0.00005281,0.,-0.00001602,-0.00
 000649,0.,0.00000327,0.00000196,0.,-0.00001658,-0.00000152,0.,-0.00026
 402,0.00015735,0.,0.00003093,0.00042892,0.,-0.00008512,-0.00023141,0.,
 0.00034250,-0.00006502,0.,-0.00005051,-0.00000859,0.,0.00010015,0.0000
 3137,0.,-0.00006656,-0.00002140,0.,-0.00001689,0.00002990,0.,-0.001224
 96,-0.00021675,0.,-0.00299243,-0.00011030,0.,-0.01045240,0.01107526,0.
 ,0.13846089,-0.17322807,0.,0.02618337,-0.01330956,0.,-0.00236672,-0.00
 525619,0.,-0.00000182,-0.00000114,0.,0.00000331,-0.00000162,0.,0.00000
 060,0.00000240,0.,-0.00000280,0.00000111,0.,0.00000197,-0.00000002,0.,
 0.00000001,0.00000239,0.,-0.00000236,-0.00000005,0.,0.00000217,-0.0000
 0137,0.,0.00000130,0.00000141,0.,0.00000929,-0.00000725,0.,0.00001645,
 0.00009748,0.,0.00000203,-0.00000447,0.,0.00037480,0.00080347,0.,-0.14
 881683,0.17974162,0.,0.,0.00002170,0.,0.,0.00000020,0.,0.,-0.00003570,
 0.,0.,-0.00000012,0.,0.,-0.00000985,0.,0.,-0.00000356,0.,0.,-0.0000018
 1,0.,0.,-0.00000057,0.,0.,0.00000250,0.,0.,-0.00000279,0.,0.,-0.000000
 09,0.,0.,-0.00000171,0.,0.,0.00003498,0.,0.,-0.00000844,0.,0.,-0.00000
 586,0.,0.,0.00000449,0.,0.,-0.00000179,0.,0.,0.00000629,0.,0.,-0.00061
 107,0.,0.,0.00017962,0.,0.,0.00008502,0.,0.,-0.00083570,0.,0.,0.000024
 82,0.,0.,-0.00005678,0.,0.,-0.00000732,0.,0.,0.00005492,0.,0.,-0.00093
 658,0.,0.,0.00949907,0.,0.,0.00324368,0.,0.,-0.03722189,0.,0.,0.002092
 55,0.,0.,0.00604974,0.,0.,0.00000215,0.,0.,-0.00000483,0.,0.,0.0000023
 9,0.,0.,-0.00000099,0.,0.,0.00000092,0.,0.,0.00000117,0.,0.,0.00000127
 ,0.,0.,0.00000064,0.,0.,0.00000056,0.,0.,0.00016993,0.,0.,0.00006415,0
 .,0.,0.00000084,0.,0.,-0.00497531,0.,0.,0.02592452,0.00003129,-0.00002
 893,0.,-0.00004359,-0.00001127,0.,0.00004416,0.00001961,0.,0.00000686,
 0.00000219,0.,-0.00001998,-0.00002299,0.,-0.00000661,0.00000045,0.,-0.
 00000679,-0.00000017,0.,0.00000713,0.00000983,0.,-0.00000413,-0.000001
 37,0.,-0.00000975,-0.00000313,0.,0.00000150,-0.00000439,0.,-0.00000815
 ,0.00000189,0.,-0.00000890,0.00002032,0.,-0.00000751,0.00003842,0.,-0.
 00001239,0.00002507,0.,0.00000996,0.00001188,0.,-0.00000735,-0.0000063
 9,0.,-0.00000209,-0.00001137,0.,-0.00001723,0.00016972,0.,0.00017857,-
 0.00006518,0.,-0.00028809,0.00028062,0.,-0.00055875,-0.00103026,0.,-0.
 00006151,-0.00001102,0.,0.00005001,0.00002972,0.,-0.00004679,0.0000165
 4,0.,-0.00007079,-0.00010024,0.,-0.00155605,0.00400749,0.,0.00028178,0
 .00058847,0.,0.00171946,-0.00077199,0.,-0.00066518,0.00108392,0.,-0.30
 704051,-0.09293521,0.,-0.01827950,-0.01122498,0.,-0.00000102,0.0000088
 7,0.,-0.00000480,0.00000193,0.,-0.00000258,-0.00000466,0.,0.00000524,0
 .00000987,0.,-0.00000361,-0.00000010,0.,-0.00000027,-0.00000380,0.,0.0
 0000462,0.00000013,0.,-0.00000378,0.00000188,0.,-0.00000258,-0.0000020
 5,0.,-0.00000546,-0.00002017,0.,-0.00000018,-0.00000415,0.,-0.00001761
 ,0.00002300,0.,-0.00017317,0.00008871,0.,0.00064162,-0.00041516,0.,0.3
 2512294,-0.00007721,0.00001490,0.,0.00004130,0.00005853,0.,-0.00003750
 ,0.00000239,0.,-0.00002152,0.00001077,0.,0.00001879,0.00000503,0.,0.00
 000778,-0.00002071,0.,-0.00000085,-0.00000325,0.,-0.00000036,0.0000043
 0,0.,-0.00000445,0.00000242,0.,-0.00000551,0.00000473,0.,0.00000326,0.
 00000298,0.,0.00000157,-0.00000303,0.,-0.00001376,-0.00004313,0.,-0.00
 003045,0.00001087,0.,0.00002724,-0.00005788,0.,0.00001220,-0.00000168,
 0.,0.00000145,-0.00000174,0.,0.00001163,0.00001696,0.,0.00013708,-0.00
 030012,0.,-0.00045525,0.00016023,0.,0.00028744,0.00001562,0.,0.0004032
 9,0.00092920,0.,0.00000566,-0.00006427,0.,-0.00013079,-0.00000933,0.,0
 .00008356,0.00001654,0.,0.00012353,0.00005558,0.,0.00349592,-0.0024803
 4,0.,0.00103431,-0.00082299,0.,-0.00007892,-0.00597569,0.,-0.03048984,
 -0.00513223,0.,-0.09394636,-0.09577652,0.,0.02072384,0.01077628,0.,0.0
 0000057,-0.00000087,0.,0.00000040,0.00000088,0.,0.00000066,-0.00000050
 ,0.,0.00000383,0.00000767,0.,-0.00000100,0.00000019,0.,0.00000044,-0.0
 0000067,0.,0.00000052,0.00000013,0.,-0.00000043,0.00000069,0.,-0.00000
 059,-0.00000053,0.,0.00008241,0.00004347,0.,0.00000297,-0.00002303,0.,
 0.00000807,-0.00000698,0.,-0.00148090,-0.00046798,0.,0.00050314,0.0008
 8916,0.,0.09989957,0.09722737,0.,0.,0.00000108,0.,0.,-0.00001608,0.,0.
 ,0.00010859,0.,0.,0.00000127,0.,0.,-0.00001870,0.,0.,-0.00000038,0.,0.
 ,0.00000094,0.,0.,-0.00000190,0.,0.,-0.00000453,0.,0.,0.00000032,0.,0.
 ,-0.00000448,0.,0.,0.00000150,0.,0.,-0.00001639,0.,0.,-0.00001970,0.,0
 .,0.00000233,0.,0.,0.00001502,0.,0.,0.00000549,0.,0.,-0.00001002,0.,0.
 ,0.00010142,0.,0.,-0.00082161,0.,0.,-0.00061714,0.,0.,0.00022084,0.,0.
 ,0.00030230,0.,0.,-0.00009748,0.,0.,0.00007209,0.,0.,-0.00003192,0.,0.
 ,0.00930870,0.,0.,-0.00105174,0.,0.,0.00600327,0.,0.,0.00218508,0.,0.,
 -0.03653888,0.,0.,0.00283688,0.,0.,0.00000354,0.,0.,0.00000179,0.,0.,0
 .00000251,0.,0.,0.00000390,0.,0.,0.00000036,0.,0.,0.00000099,0.,0.,0.0
 0000187,0.,0.,0.00000049,0.,0.,0.00000089,0.,0.,0.00004379,0.,0.,-0.00
 004404,0.,0.,0.00000521,0.,0.,0.00008503,0.,0.,-0.00276079,0.,0.,0.025
 72728,0.00002422,0.00012723,0.,0.00006232,0.00002985,0.,0.00002619,0.0
 0008173,0.,-0.00002105,0.00005554,0.,-0.00001154,-0.00003969,0.,-0.000
 01799,-0.00002820,0.,-0.00001432,-0.00001580,0.,0.00000600,0.00002427,
 0.,-0.00001148,-0.00001609,0.,0.00001246,0.00001715,0.,-0.00000177,0.0
 0000834,0.,0.00001758,0.00001105,0.,-0.00001475,-0.00008744,0.,-0.0000
 7442,-0.00004356,0.,0.00003599,-0.00001891,0.,-0.00003315,0.00000163,0
 .,0.00002889,-0.00000674,0.,0.00001082,0.00001751,0.,0.00015401,-0.000
 14635,0.,0.00028472,-0.00147252,0.,0.00008997,0.00010607,0.,0.00120782
 ,0.00024281,0.,-0.00158939,-0.00087768,0.,0.00046007,0.00063478,0.,0.0
 0009725,-0.00011162,0.,0.00016998,0.00000861,0.,0.00132720,-0.02928103
 ,0.,-0.00543550,-0.00070970,0.,-0.00121485,0.00027697,0.,-0.00331892,0
 .00301658,0.,0.00816486,0.02605777,0.,-0.06991883,-0.05717715,0.,-0.00
 001229,0.00000329,0.,0.00001468,0.00000091,0.,-0.00000050,-0.00000098,
 0.,-0.00000366,0.00003712,0.,0.00000135,0.00000274,0.,-0.00000029,0.00
 000088,0.,-0.00000759,0.00000385,0.,0.00000248,0.00000005,0.,0.0000019
 1,0.00000131,0.,-0.00043554,-0.00020079,0.,-0.00125872,0.00211592,0.,-
 0.00002940,-0.00000017,0.,0.00012007,-0.00005578,0.,0.00019260,0.00117
 334,0.,0.00083156,-0.00014676,0.,0.07008095,0.00006726,0.00002920,0.,-
 0.00001851,-0.00003823,0.,0.00006236,0.00005477,0.,0.00000138,0.000027
 08,0.,-0.00002882,-0.00003824,0.,-0.00001685,-0.00000846,0.,-0.0000135
 7,-0.00000827,0.,0.00000912,0.00002202,0.,-0.00000883,-0.00000996,0.,-
 0.00000165,0.00000396,0.,0.00000100,-0.00000485,0.,-0.00000366,0.00000
 876,0.,-0.00001210,-0.00001254,0.,-0.00002361,-0.00001641,0.,-0.000007
 46,0.00003763,0.,-0.00000751,0.00001358,0.,0.00000376,-0.00000892,0.,-
 0.00000416,-0.00001248,0.,-0.00007594,0.00014067,0.,0.00043747,-0.0004
 8604,0.,-0.00027069,-0.00005201,0.,0.00079471,-0.00153750,0.,0.0015251
 8,-0.00051541,0.,0.00027841,0.00042544,0.,0.00003513,-0.00004596,0.,0.
 00000204,-0.00008640,0.,-0.00142057,-0.00678151,0.,-0.00176628,0.00140
 481,0.,0.00031203,0.00065851,0.,0.00383932,-0.00055231,0.,-0.00647429,
 -0.01652722,0.,-0.05615910,-0.33271220,0.,-0.00000415,0.00000510,0.,0.
 00000102,0.00000241,0.,-0.00000253,-0.00000522,0.,-0.00000083,0.000019
 10,0.,-0.00000280,0.00000120,0.,-0.00000063,-0.00000355,0.,0.00000062,
 0.00000212,0.,-0.00000281,0.00000200,0.,-0.00000149,-0.00000143,0.,-0.
 00014381,-0.00006448,0.,0.00271384,-0.00000314,0.,-0.00000008,-0.00001
 162,0.,-0.00002102,-0.00009660,0.,-0.00030944,-0.00084621,0.,0.0003388
 8,0.00093659,0.,0.05637967,0.35669223,0.,0.,0.00005884,0.,0.,0.0000053
 9,0.,0.,0.00010777,0.,0.,0.00001568,0.,0.,-0.00004160,0.,0.,-0.0000194
 3,0.,0.,0.00000064,0.,0.,0.00000132,0.,0.,-0.00000395,0.,0.,-0.0000029
 6,0.,0.,-0.00000210,0.,0.,0.00000228,0.,0.,-0.00002450,0.,0.,0.0000203
 0,0.,0.,-0.00001776,0.,0.,0.00000573,0.,0.,0.00000142,0.,0.,0.00001074
 ,0.,0.,-0.00032007,0.,0.,0.00019078,0.,0.,-0.00013943,0.,0.,-0.0021191
 6,0.,0.,-0.00087234,0.,0.,-0.00005487,0.,0.,-0.00001221,0.,0.,0.000159
 82,0.,0.,0.00216278,0.,0.,0.00574566,0.,0.,-0.00095512,0.,0.,0.0090978
 2,0.,0.,0.00361701,0.,0.,-0.03568939,0.,0.,0.00000755,0.,0.,-0.0000163
 4,0.,0.,0.00000258,0.,0.,-0.00000013,0.,0.,0.00000062,0.,0.,0.00000032
 ,0.,0.,0.00000208,0.,0.,0.00000097,0.,0.,-0.00000004,0.,0.,0.00012773,
 0.,0.,0.00188839,0.,0.,-0.00003827,0.,0.,-0.00115968,0.,0.,0.00001545,
 0.,0.,-0.00498899,0.,0.,0.02322865\\0.00000751,-0.00000199,0.,-0.00000
 178,-0.00000498,0.,0.00000155,-0.00000339,0.,-0.00000376,0.00000209,0.
 ,-0.00000150,0.00000092,0.,-0.00000109,-0.00000394,0.,-0.00000069,0.00
 000568,0.,0.00000141,0.00000296,0.,-0.00000639,-0.00000011,0.,0.000002
 14,0.00000284,0.,0.00000153,0.00000362,0.,0.00000154,0.00000206,0.,-0.
 00000400,0.00000196,0.,0.00000659,-0.00000196,0.,-0.00000110,0.0000078
 0,0.,-0.00000037,-0.00000100,0.,0.00000502,0.00000301,0.,-0.00000148,0
 .00000543,0.,-0.00000219,0.00000516,0.,0.00000737,-0.00000221,0.,-0.00
 000736,-0.00000438,0.,0.00000990,-0.00000088,0.,-0.00000035,-0.0000018
 2,0.,-0.00000082,-0.00000284,0.,0.00000045,0.00000814,0.,-0.00000078,-
 0.00000546,0.,-0.00000440,0.00000180,0.,-0.00000522,-0.00000648,0.,0.0
 0000375,-0.00000189,0.,-0.00000363,-0.00000530,0.,0.00000004,-0.000001
 69,0.,0.00000364,-0.00000415,0.,0.00000123,0.00000029,0.,0.00000185,0.
 00000254,0.,-0.00000193,0.00000093,0.,-0.00000280,-0.00000091,0.,-0.00
 000124,0.00000242,0.,-0.00000333,0.00000216,0.,0.00000172,0.00000335,0
 .,0.00000097,0.00000346,0.,-0.00000044,0.00000402,0.,-0.00000258,-0.00
 000070,0.,0.00000031,-0.00000118,0.,0.00000325,-0.00000110,0.,-0.00000
 276,-0.00000227,0.,-0.00000086,-0.00000336,0.,-0.00000003,-0.00000435,
 0.,0.00000112,-0.00000428,0.\\\@


 IN THE UNIVERSE THE DIFFICULT THINGS ARE DONE AS IF THEY WERE EASY.

                                                          -- LAO-TSU
 Job cpu time:       5 days 11 hours 42 minutes 57.4 seconds.
 File lengths (MBytes):  RWF=   4428 Int=      0 D2E=      0 Chk=     85 Scr=      1
 Normal termination of Gaussian 09 at Sun Jul 28 01:16:16 2019.
