 Entering Gaussian System, Link 0=/home/minenky/programs/g09/g09
 Input=m1_00_206-44-0_C16H10_wB97XD.inp
 Output=m1_00_206-44-0_C16H10_wB97XD.out
 Initial command:
 /home/minenky/programs//g09/l1.exe "/home/minenky/tmp/Gau-12168.inp" -scrdir="/home/minenky/tmp/"
 Entering Link 1 = /home/minenky/programs//g09/l1.exe PID=     12170.
  
 Copyright (c) 1988,1990,1992,1993,1995,1998,2003,2009,2013,
            Gaussian, Inc.  All Rights Reserved.
  
 This is part of the Gaussian(R) 09 program.  It is based on
 the Gaussian(R) 03 system (copyright 2003, Gaussian, Inc.),
 the Gaussian(R) 98 system (copyright 1998, Gaussian, Inc.),
 the Gaussian(R) 94 system (copyright 1995, Gaussian, Inc.),
 the Gaussian 92(TM) system (copyright 1992, Gaussian, Inc.),
 the Gaussian 90(TM) system (copyright 1990, Gaussian, Inc.),
 the Gaussian 88(TM) system (copyright 1988, Gaussian, Inc.),
 the Gaussian 86(TM) system (copyright 1986, Carnegie Mellon
 University), and the Gaussian 82(TM) system (copyright 1983,
 Carnegie Mellon University). Gaussian is a federally registered
 trademark of Gaussian, Inc.
  
 This software contains proprietary and confidential information,
 including trade secrets, belonging to Gaussian, Inc.
  
 This software is provided under written license and may be
 used, copied, transmitted, or stored only in accord with that
 written license.
  
 The following legend is applicable only to US Government
 contracts under FAR:
  
                    RESTRICTED RIGHTS LEGEND
  
 Use, reproduction and disclosure by the US Government is
 subject to restrictions as set forth in subparagraphs (a)
 and (c) of the Commercial Computer Software - Restricted
 Rights clause in FAR 52.227-19.
  
 Gaussian, Inc.
 340 Quinnipiac St., Bldg. 40, Wallingford CT 06492
  
  
 ---------------------------------------------------------------
 Warning -- This program may not be used in any manner that
 competes with the business of Gaussian, Inc. or will provide
 assistance to any competitor of Gaussian, Inc.  The licensee
 of this program is prohibited from giving any competitor of
 Gaussian, Inc. access to this program.  By using this program,
 the user acknowledges that Gaussian, Inc. is engaged in the
 business of creating and licensing software in the field of
 computational chemistry and represents and warrants to the
 licensee that it is not a competitor of Gaussian, Inc. and that
 it will not use this program in any manner prohibited above.
 ---------------------------------------------------------------
  

 Cite this work as:
 Gaussian 09, Revision D.01,
 M. J. Frisch, G. W. Trucks, H. B. Schlegel, G. E. Scuseria, 
 M. A. Robb, J. R. Cheeseman, G. Scalmani, V. Barone, B. Mennucci, 
 G. A. Petersson, H. Nakatsuji, M. Caricato, X. Li, H. P. Hratchian, 
 A. F. Izmaylov, J. Bloino, G. Zheng, J. L. Sonnenberg, M. Hada, 
 M. Ehara, K. Toyota, R. Fukuda, J. Hasegawa, M. Ishida, T. Nakajima, 
 Y. Honda, O. Kitao, H. Nakai, T. Vreven, J. A. Montgomery, Jr., 
 J. E. Peralta, F. Ogliaro, M. Bearpark, J. J. Heyd, E. Brothers, 
 K. N. Kudin, V. N. Staroverov, T. Keith, R. Kobayashi, J. Normand, 
 K. Raghavachari, A. Rendell, J. C. Burant, S. S. Iyengar, J. Tomasi, 
 M. Cossi, N. Rega, J. M. Millam, M. Klene, J. E. Knox, J. B. Cross, 
 V. Bakken, C. Adamo, J. Jaramillo, R. Gomperts, R. E. Stratmann, 
 O. Yazyev, A. J. Austin, R. Cammi, C. Pomelli, J. W. Ochterski, 
 R. L. Martin, K. Morokuma, V. G. Zakrzewski, G. A. Voth, 
 P. Salvador, J. J. Dannenberg, S. Dapprich, A. D. Daniels, 
 O. Farkas, J. B. Foresman, J. V. Ortiz, J. Cioslowski, 
 and D. J. Fox, Gaussian, Inc., Wallingford CT, 2013.
 
 ******************************************
 Gaussian 09:  AM64L-G09RevD.01 24-Apr-2013
                28-Sep-2023 
 ******************************************
 %chk=m1_00_206-44-0_C16H10_wB97XD
 %NProcLinda=1
 Will use up to    1 processors via Linda.
 %Nprocshared=16
 Will use up to   16 processors via shared memory.
 %mem=48000MB
 ----------------------------------------------------------------------
 #P wB97XD/def2tzvp opt=(tight) freq integral(Grid=ultrafine) # SCF(Max
 Cycle=380) 5d 7f GFPrint
 ----------------------------------------------------------------------
 1/7=10,14=-1,18=20,19=15,26=4,38=1/1,3;
 2/9=110,12=2,17=6,18=5,40=1/2;
 3/5=44,7=101,8=11,11=2,16=1,24=100,25=1,30=1,71=1,74=-58,75=-5/1,2,3;
 4//1;
 5/5=2,7=380,38=5/2;
 6/7=2,8=2,9=2,10=2,28=1/1;
 7//1,2,3,16;
 1/7=10,14=-1,18=20,19=15,26=4/3(2);
 2/9=110/2;
 99//99;
 2/9=110/2;
 3/5=44,7=101,8=11,11=2,16=1,25=1,30=1,71=1,74=-58,75=-5/1,2,3;
 4/5=5,16=3,69=1/1;
 5/5=2,7=380,38=5/2;
 7//1,2,3,16;
 1/7=10,14=-1,18=20,19=15,26=4/3(-5);
 2/9=110/2;
 6/7=2,8=2,9=2,10=2,19=2,28=1/1;
 99/9=1/99;
 Leave Link    1 at Thu Sep 28 14:53:39 2023, MaxMem=  6291456000 cpu:         0.3
 (Enter /home/minenky/programs//g09/l101.exe)
 ---------------------------------------
 The PBEPBE optimization and frequencies
 ---------------------------------------
 Symbolic Z-matrix:
 Charge =  0 Multiplicity = 1
 C                     0.73804  -2.38798   0.00001 
 C                     2.15625  -2.41983   0.00001 
 C                     2.92342  -1.27445   0. 
 C                     0.10553  -1.16843  0. 
 C                    -1.29463  -0.71185  -0.00001 
 C                     0.9019    0.       -0.00001 
 C                     2.29874   0.       0. 
 C                     0.10553   1.16843  -0.00001 
 C                     2.92342   1.27445  0. 
 C                     2.15625   2.41983  0. 
 C                     0.73804   2.38798  0. 
 C                    -1.29463   0.71185   0. 
 C                    -2.49081  -1.40945  -0.00001 
 C                    -2.49081   1.40945   0.00001 
 C                    -3.68936   0.69603   0.00001 
 C                    -3.68936  -0.69603  0. 
 H                     0.18423  -3.31844   0.00001 
 H                     2.65048  -3.38302   0.00001 
 H                     4.00407  -1.34578   0.00001 
 H                     4.00407   1.34578   0. 
 H                     2.65049   3.38302   0. 
 H                     0.18423   3.31844   0. 
 H                    -2.50092  -2.49224  -0.00002 
 H                    -2.50092   2.49225   0.00001 
 H                    -4.63043   1.23056   0.00001 
 H                    -4.63043  -1.23056  0. 
 
 NAtoms=     26 NQM=       26 NQMF=       0 NMMI=      0 NMMIF=      0
                NMic=       0 NMicF=      0.
                    Isotopes and Nuclear Properties:
 (Nuclear quadrupole moments (NQMom) in fm**2, nuclear magnetic moments (NMagM)
  in nuclear magnetons)

  Atom         1           2           3           4           5           6           7           8           9          10
 IAtWgt=          12          12          12          12          12          12          12          12          12          12
 AtmWgt=  12.0000000  12.0000000  12.0000000  12.0000000  12.0000000  12.0000000  12.0000000  12.0000000  12.0000000  12.0000000
 NucSpn=           0           0           0           0           0           0           0           0           0           0
 AtZEff=   0.0000000   0.0000000   0.0000000   0.0000000   0.0000000   0.0000000   0.0000000   0.0000000   0.0000000   0.0000000
 NQMom=    0.0000000   0.0000000   0.0000000   0.0000000   0.0000000   0.0000000   0.0000000   0.0000000   0.0000000   0.0000000
 NMagM=    0.0000000   0.0000000   0.0000000   0.0000000   0.0000000   0.0000000   0.0000000   0.0000000   0.0000000   0.0000000
 AtZNuc=   6.0000000   6.0000000   6.0000000   6.0000000   6.0000000   6.0000000   6.0000000   6.0000000   6.0000000   6.0000000

  Atom        11          12          13          14          15          16          17          18          19          20
 IAtWgt=          12          12          12          12          12          12           1           1           1           1
 AtmWgt=  12.0000000  12.0000000  12.0000000  12.0000000  12.0000000  12.0000000   1.0078250   1.0078250   1.0078250   1.0078250
 NucSpn=           0           0           0           0           0           0           1           1           1           1
 AtZEff=   0.0000000   0.0000000   0.0000000   0.0000000   0.0000000   0.0000000   0.0000000   0.0000000   0.0000000   0.0000000
 NQMom=    0.0000000   0.0000000   0.0000000   0.0000000   0.0000000   0.0000000   0.0000000   0.0000000   0.0000000   0.0000000
 NMagM=    0.0000000   0.0000000   0.0000000   0.0000000   0.0000000   0.0000000   2.7928460   2.7928460   2.7928460   2.7928460
 AtZNuc=   6.0000000   6.0000000   6.0000000   6.0000000   6.0000000   6.0000000   1.0000000   1.0000000   1.0000000   1.0000000

  Atom        21          22          23          24          25          26
 IAtWgt=           1           1           1           1           1           1
 AtmWgt=   1.0078250   1.0078250   1.0078250   1.0078250   1.0078250   1.0078250
 NucSpn=           1           1           1           1           1           1
 AtZEff=   0.0000000   0.0000000   0.0000000   0.0000000   0.0000000   0.0000000
 NQMom=    0.0000000   0.0000000   0.0000000   0.0000000   0.0000000   0.0000000
 NMagM=    2.7928460   2.7928460   2.7928460   2.7928460   2.7928460   2.7928460
 AtZNuc=   1.0000000   1.0000000   1.0000000   1.0000000   1.0000000   1.0000000
 Leave Link  101 at Thu Sep 28 14:53:39 2023, MaxMem=  6291456000 cpu:         4.5
 (Enter /home/minenky/programs//g09/l103.exe)

 GradGradGradGradGradGradGradGradGradGradGradGradGradGradGradGradGradGrad
 Berny optimization.
 Initialization pass.
                           ----------------------------
                           !    Initial Parameters    !
                           ! (Angstroms and Degrees)  !
 --------------------------                            --------------------------
 ! Name  Definition              Value          Derivative Info.                !
 --------------------------------------------------------------------------------
 ! R1    R(1,2)                  1.4186         estimate D2E/DX2                !
 ! R2    R(1,4)                  1.3738         estimate D2E/DX2                !
 ! R3    R(1,17)                 1.0828         estimate D2E/DX2                !
 ! R4    R(2,3)                  1.3786         estimate D2E/DX2                !
 ! R5    R(2,18)                 1.0826         estimate D2E/DX2                !
 ! R6    R(3,7)                  1.4193         estimate D2E/DX2                !
 ! R7    R(3,19)                 1.083          estimate D2E/DX2                !
 ! R8    R(4,5)                  1.4727         estimate D2E/DX2                !
 ! R9    R(4,6)                  1.414          estimate D2E/DX2                !
 ! R10   R(5,12)                 1.4237         estimate D2E/DX2                !
 ! R11   R(5,13)                 1.3847         estimate D2E/DX2                !
 ! R12   R(6,7)                  1.3968         estimate D2E/DX2                !
 ! R13   R(6,8)                  1.414          estimate D2E/DX2                !
 ! R14   R(7,9)                  1.4193         estimate D2E/DX2                !
 ! R15   R(8,11)                 1.3738         estimate D2E/DX2                !
 ! R16   R(8,12)                 1.4727         estimate D2E/DX2                !
 ! R17   R(9,10)                 1.3786         estimate D2E/DX2                !
 ! R18   R(9,20)                 1.083          estimate D2E/DX2                !
 ! R19   R(10,11)                1.4186         estimate D2E/DX2                !
 ! R20   R(10,21)                1.0826         estimate D2E/DX2                !
 ! R21   R(11,22)                1.0828         estimate D2E/DX2                !
 ! R22   R(12,14)                1.3847         estimate D2E/DX2                !
 ! R23   R(13,16)                1.3948         estimate D2E/DX2                !
 ! R24   R(13,23)                1.0828         estimate D2E/DX2                !
 ! R25   R(14,15)                1.3948         estimate D2E/DX2                !
 ! R26   R(14,24)                1.0828         estimate D2E/DX2                !
 ! R27   R(15,16)                1.3921         estimate D2E/DX2                !
 ! R28   R(15,25)                1.0823         estimate D2E/DX2                !
 ! R29   R(16,26)                1.0823         estimate D2E/DX2                !
 ! A1    A(2,1,4)              118.6996         estimate D2E/DX2                !
 ! A2    A(2,1,17)             119.4747         estimate D2E/DX2                !
 ! A3    A(4,1,17)             121.8257         estimate D2E/DX2                !
 ! A4    A(1,2,3)              122.5272         estimate D2E/DX2                !
 ! A5    A(1,2,18)             118.45           estimate D2E/DX2                !
 ! A6    A(3,2,18)             119.0228         estimate D2E/DX2                !
 ! A7    A(2,3,7)              120.074          estimate D2E/DX2                !
 ! A8    A(2,3,19)             120.0372         estimate D2E/DX2                !
 ! A9    A(7,3,19)             119.8889         estimate D2E/DX2                !
 ! A10   A(1,4,5)              135.4738         estimate D2E/DX2                !
 ! A11   A(1,4,6)              118.3099         estimate D2E/DX2                !
 ! A12   A(5,4,6)              106.2162         estimate D2E/DX2                !
 ! A13   A(4,5,12)             108.0608         estimate D2E/DX2                !
 ! A14   A(4,5,13)             131.6888         estimate D2E/DX2                !
 ! A15   A(12,5,13)            120.2504         estimate D2E/DX2                !
 ! A16   A(4,6,7)              124.2771         estimate D2E/DX2                !
 ! A17   A(4,6,8)              111.4459         estimate D2E/DX2                !
 ! A18   A(7,6,8)              124.2771         estimate D2E/DX2                !
 ! A19   A(3,7,6)              116.1122         estimate D2E/DX2                !
 ! A20   A(3,7,9)              127.7756         estimate D2E/DX2                !
 ! A21   A(6,7,9)              116.1122         estimate D2E/DX2                !
 ! A22   A(6,8,11)             118.3099         estimate D2E/DX2                !
 ! A23   A(6,8,12)             106.2162         estimate D2E/DX2                !
 ! A24   A(11,8,12)            135.4738         estimate D2E/DX2                !
 ! A25   A(7,9,10)             120.0739         estimate D2E/DX2                !
 ! A26   A(7,9,20)             119.8889         estimate D2E/DX2                !
 ! A27   A(10,9,20)            120.0372         estimate D2E/DX2                !
 ! A28   A(9,10,11)            122.5272         estimate D2E/DX2                !
 ! A29   A(9,10,21)            119.0228         estimate D2E/DX2                !
 ! A30   A(11,10,21)           118.45           estimate D2E/DX2                !
 ! A31   A(8,11,10)            118.6996         estimate D2E/DX2                !
 ! A32   A(8,11,22)            121.8258         estimate D2E/DX2                !
 ! A33   A(10,11,22)           119.4746         estimate D2E/DX2                !
 ! A34   A(5,12,8)             108.0608         estimate D2E/DX2                !
 ! A35   A(5,12,14)            120.2504         estimate D2E/DX2                !
 ! A36   A(8,12,14)            131.6888         estimate D2E/DX2                !
 ! A37   A(5,13,16)            118.9871         estimate D2E/DX2                !
 ! A38   A(5,13,23)            120.7855         estimate D2E/DX2                !
 ! A39   A(16,13,23)           120.2274         estimate D2E/DX2                !
 ! A40   A(12,14,15)           118.9871         estimate D2E/DX2                !
 ! A41   A(12,14,24)           120.7855         estimate D2E/DX2                !
 ! A42   A(15,14,24)           120.2274         estimate D2E/DX2                !
 ! A43   A(14,15,16)           120.7625         estimate D2E/DX2                !
 ! A44   A(14,15,25)           119.6411         estimate D2E/DX2                !
 ! A45   A(16,15,25)           119.5964         estimate D2E/DX2                !
 ! A46   A(13,16,15)           120.7625         estimate D2E/DX2                !
 ! A47   A(13,16,26)           119.6411         estimate D2E/DX2                !
 ! A48   A(15,16,26)           119.5964         estimate D2E/DX2                !
 ! D1    D(4,1,2,3)              0.0001         estimate D2E/DX2                !
 ! D2    D(4,1,2,18)          -179.9999         estimate D2E/DX2                !
 ! D3    D(17,1,2,3)           180.0            estimate D2E/DX2                !
 ! D4    D(17,1,2,18)            0.0            estimate D2E/DX2                !
 ! D5    D(2,1,4,5)            180.0            estimate D2E/DX2                !
 ! D6    D(2,1,4,6)             -0.0001         estimate D2E/DX2                !
 ! D7    D(17,1,4,5)             0.0001         estimate D2E/DX2                !
 ! D8    D(17,1,4,6)          -180.0            estimate D2E/DX2                !
 ! D9    D(1,2,3,7)              0.0            estimate D2E/DX2                !
 ! D10   D(1,2,3,19)           180.0            estimate D2E/DX2                !
 ! D11   D(18,2,3,7)           180.0            estimate D2E/DX2                !
 ! D12   D(18,2,3,19)            0.0            estimate D2E/DX2                !
 ! D13   D(2,3,7,6)             -0.0001         estimate D2E/DX2                !
 ! D14   D(2,3,7,9)            179.9998         estimate D2E/DX2                !
 ! D15   D(19,3,7,6)           179.9999         estimate D2E/DX2                !
 ! D16   D(19,3,7,9)            -0.0003         estimate D2E/DX2                !
 ! D17   D(1,4,5,12)           179.9992         estimate D2E/DX2                !
 ! D18   D(1,4,5,13)            -0.0003         estimate D2E/DX2                !
 ! D19   D(6,4,5,12)            -0.0007         estimate D2E/DX2                !
 ! D20   D(6,4,5,13)           179.9998         estimate D2E/DX2                !
 ! D21   D(1,4,6,7)              0.0            estimate D2E/DX2                !
 ! D22   D(1,4,6,8)           -179.9996         estimate D2E/DX2                !
 ! D23   D(5,4,6,7)            180.0            estimate D2E/DX2                !
 ! D24   D(5,4,6,8)              0.0003         estimate D2E/DX2                !
 ! D25   D(4,5,12,8)             0.0008         estimate D2E/DX2                !
 ! D26   D(4,5,12,14)         -179.9995         estimate D2E/DX2                !
 ! D27   D(13,5,12,8)         -179.9996         estimate D2E/DX2                !
 ! D28   D(13,5,12,14)           0.0            estimate D2E/DX2                !
 ! D29   D(4,5,13,16)          179.9994         estimate D2E/DX2                !
 ! D30   D(4,5,13,23)           -0.0004         estimate D2E/DX2                !
 ! D31   D(12,5,13,16)          -0.0001         estimate D2E/DX2                !
 ! D32   D(12,5,13,23)        -179.9998         estimate D2E/DX2                !
 ! D33   D(4,6,7,3)              0.0001         estimate D2E/DX2                !
 ! D34   D(4,6,7,9)           -179.9998         estimate D2E/DX2                !
 ! D35   D(8,6,7,3)            179.9996         estimate D2E/DX2                !
 ! D36   D(8,6,7,9)             -0.0002         estimate D2E/DX2                !
 ! D37   D(4,6,8,11)           179.9998         estimate D2E/DX2                !
 ! D38   D(4,6,8,12)             0.0002         estimate D2E/DX2                !
 ! D39   D(7,6,8,11)             0.0002         estimate D2E/DX2                !
 ! D40   D(7,6,8,12)          -179.9995         estimate D2E/DX2                !
 ! D41   D(3,7,9,10)          -179.9997         estimate D2E/DX2                !
 ! D42   D(3,7,9,20)             0.0002         estimate D2E/DX2                !
 ! D43   D(6,7,9,10)             0.0001         estimate D2E/DX2                !
 ! D44   D(6,7,9,20)          -179.9999         estimate D2E/DX2                !
 ! D45   D(6,8,11,10)           -0.0001         estimate D2E/DX2                !
 ! D46   D(6,8,11,22)         -179.9998         estimate D2E/DX2                !
 ! D47   D(12,8,11,10)         179.9994         estimate D2E/DX2                !
 ! D48   D(12,8,11,22)          -0.0003         estimate D2E/DX2                !
 ! D49   D(6,8,12,5)            -0.0006         estimate D2E/DX2                !
 ! D50   D(6,8,12,14)          179.9998         estimate D2E/DX2                !
 ! D51   D(11,8,12,5)          179.9998         estimate D2E/DX2                !
 ! D52   D(11,8,12,14)           0.0002         estimate D2E/DX2                !
 ! D53   D(7,9,10,11)            0.0            estimate D2E/DX2                !
 ! D54   D(7,9,10,21)          179.9999         estimate D2E/DX2                !
 ! D55   D(20,9,10,11)        -180.0            estimate D2E/DX2                !
 ! D56   D(20,9,10,21)          -0.0001         estimate D2E/DX2                !
 ! D57   D(9,10,11,8)            0.0            estimate D2E/DX2                !
 ! D58   D(9,10,11,22)         179.9997         estimate D2E/DX2                !
 ! D59   D(21,10,11,8)        -179.9999         estimate D2E/DX2                !
 ! D60   D(21,10,11,22)         -0.0002         estimate D2E/DX2                !
 ! D61   D(5,12,14,15)           0.0            estimate D2E/DX2                !
 ! D62   D(5,12,14,24)        -179.9997         estimate D2E/DX2                !
 ! D63   D(8,12,14,15)         179.9996         estimate D2E/DX2                !
 ! D64   D(8,12,14,24)          -0.0001         estimate D2E/DX2                !
 ! D65   D(5,13,16,15)           0.0001         estimate D2E/DX2                !
 ! D66   D(5,13,16,26)        -179.9999         estimate D2E/DX2                !
 ! D67   D(23,13,16,15)        179.9998         estimate D2E/DX2                !
 ! D68   D(23,13,16,26)         -0.0001         estimate D2E/DX2                !
 ! D69   D(12,14,15,16)          0.0            estimate D2E/DX2                !
 ! D70   D(12,14,15,25)       -179.9999         estimate D2E/DX2                !
 ! D71   D(24,14,15,16)        179.9997         estimate D2E/DX2                !
 ! D72   D(24,14,15,25)         -0.0003         estimate D2E/DX2                !
 ! D73   D(14,15,16,13)         -0.0001         estimate D2E/DX2                !
 ! D74   D(14,15,16,26)        179.9999         estimate D2E/DX2                !
 ! D75   D(25,15,16,13)        179.9999         estimate D2E/DX2                !
 ! D76   D(25,15,16,26)         -0.0002         estimate D2E/DX2                !
 --------------------------------------------------------------------------------
 Trust Radius=3.00D-01 FncErr=1.00D-07 GrdErr=1.00D-06
 Number of steps in this run=    156 maximum allowed number of steps=    156.
 GradGradGradGradGradGradGradGradGradGradGradGradGradGradGradGradGradGrad

 Leave Link  103 at Thu Sep 28 14:53:39 2023, MaxMem=  6291456000 cpu:         0.1
 (Enter /home/minenky/programs//g09/l202.exe)
                          Input orientation:                          
 ---------------------------------------------------------------------
 Center     Atomic      Atomic             Coordinates (Angstroms)
 Number     Number       Type             X           Y           Z
 ---------------------------------------------------------------------
      1          6           0        0.738037   -2.387980    0.000005
      2          6           0        2.156250   -2.419832    0.000007
      3          6           0        2.923420   -1.274446    0.000004
      4          6           0        0.105533   -1.168433   -0.000003
      5          6           0       -1.294635   -0.711847   -0.000008
      6          6           0        0.901899    0.000000   -0.000006
      7          6           0        2.298739    0.000000   -0.000002
      8          6           0        0.105533    1.168433   -0.000005
      9          6           0        2.923421    1.274446   -0.000001
     10          6           0        2.156251    2.419832   -0.000002
     11          6           0        0.738037    2.387980   -0.000004
     12          6           0       -1.294635    0.711847    0.000003
     13          6           0       -2.490808   -1.409446   -0.000011
     14          6           0       -2.490808    1.409446    0.000011
     15          6           0       -3.689356    0.696032    0.000008
     16          6           0       -3.689356   -0.696032   -0.000002
     17          1           0        0.184226   -3.318436    0.000007
     18          1           0        2.650484   -3.383022    0.000011
     19          1           0        4.004073   -1.345781    0.000006
     20          1           0        4.004074    1.345780    0.000001
     21          1           0        2.650485    3.383021    0.000001
     22          1           0        0.184227    3.318436    0.000000
     23          1           0       -2.500920   -2.492244   -0.000016
     24          1           0       -2.500920    2.492245    0.000014
     25          1           0       -4.630434    1.230561    0.000013
     26          1           0       -4.630434   -1.230561   -0.000002
 ---------------------------------------------------------------------
                    Distance matrix (angstroms):
                    1          2          3          4          5
     1  C    0.000000
     2  C    1.418571   0.000000
     3  C    2.452724   1.378571   0.000000
     4  C    1.373811   2.402382   2.819880   0.000000
     5  C    2.634611   3.850431   4.255409   1.472733   0.000000
     6  C    2.393595   2.725616   2.389720   1.414014   2.309001
     7  C    2.852760   2.424024   1.419309   2.485033   3.663204
     8  C    3.612220   4.132927   3.729363   2.336866   2.344339
     9  C    4.264888   3.773094   2.548892   3.729363   4.662334
    10  C    5.012623   4.839664   3.773094   4.132928   4.660046
    11  C    4.775960   5.012623   4.264887   3.612220   3.706843
    12  C    3.706843   4.660045   4.662333   2.344339   1.423694
    13  C    3.373866   4.755631   5.415911   2.607503   1.384729
    14  C    4.984565   6.021505   6.042941   3.658749   2.435306
    15  C    5.395641   6.624177   6.900115   4.228169   2.777915
    16  C    4.739673   6.094473   6.638024   3.824179   2.394773
    17  H    1.082800   2.167110   3.417759   2.151443   2.996888
    18  H    2.155821   1.082591   2.126167   3.373600   4.764361
    19  H    3.428290   2.137296   1.083005   3.902572   5.336495
    20  H    4.960641   4.194554   2.834325   4.638953   5.684201
    21  H    6.079631   5.823862   4.665457   5.214644   5.686116
    22  H    5.733227   6.067668   5.347686   4.487559   4.293042
    23  H    3.240635   4.657733   5.559361   2.923367   2.150567
    24  H    5.857255   6.768880   6.603895   4.493791   3.423643
    25  H    6.474127   7.706131   7.958377   5.308913   3.860117
    26  H    5.491821   6.890098   7.553981   4.736374   3.375888
                    6          7          8          9         10
     6  C    0.000000
     7  C    1.396840   0.000000
     8  C    1.414014   2.485033   0.000000
     9  C    2.389720   1.419310   2.819881   0.000000
    10  C    2.725617   2.424023   2.402383   1.378571   0.000000
    11  C    2.393595   2.852760   1.373811   2.452725   1.418572
    12  C    2.309001   3.663204   1.472733   4.255410   3.850432
    13  C    3.673826   4.992624   3.658749   6.042942   6.021505
    14  C    3.673826   4.992624   2.607503   5.415912   4.755632
    15  C    4.643714   6.028411   3.824179   6.638025   6.094474
    16  C    4.643714   6.028411   4.228169   6.900116   6.624178
    17  H    3.395154   3.934868   4.487559   5.347687   6.067669
    18  H    3.808200   3.401259   5.214645   4.665458   5.823863
    19  H    3.381510   2.172393   4.638953   2.834325   4.194554
    20  H    3.381511   2.172393   3.902573   1.083005   2.137297
    21  H    3.808200   3.401258   3.373601   2.126166   1.082590
    22  H    3.395154   3.934867   2.151443   3.417759   2.167110
    23  H    4.217874   5.408143   4.493791   6.603895   6.768880
    24  H    4.217874   5.408143   2.923367   5.559362   4.657734
    25  H    5.667538   7.037593   4.736374   7.553982   6.890099
    26  H    5.667538   7.037593   5.308913   7.958378   7.706131
                   11         12         13         14         15
    11  C    0.000000
    12  C    2.634611   0.000000
    13  C    4.984565   2.435306   0.000000
    14  C    3.373866   1.384729   2.818892   0.000000
    15  C    4.739673   2.394773   2.422716   1.394804   0.000000
    16  C    5.395641   2.777915   1.394804   2.422716   1.392064
    17  H    5.733227   4.293042   3.286343   5.432189   5.578583
    18  H    6.079631   5.686116   5.507076   7.028558   7.538717
    19  H    4.960641   5.684201   6.495193   7.055123   7.959764
    20  H    3.428291   5.336496   7.055123   6.495194   7.720818
    21  H    2.155821   4.764362   7.028558   5.507077   6.885746
    22  H    1.082799   2.996888   5.432189   3.286344   4.677782
    23  H    5.857254   3.423642   1.082845   3.901703   3.402570
    24  H    3.240635   2.150567   3.901704   1.082846   2.153778
    25  H    5.491821   3.375888   3.398181   2.147091   1.082289
    26  H    6.474127   3.860117   2.147091   3.398181   2.144152
                   16         17         18         19         20
    16  C    0.000000
    17  H    4.677782   0.000000
    18  H    6.885745   2.467104   0.000000
    19  H    7.720818   4.299139   2.445926   0.000000
    20  H    7.959765   6.028777   4.918717   2.691561   0.000000
    21  H    7.538717   7.140865   6.766043   4.918716   2.445926
    22  H    5.578584   6.636872   7.140866   6.028776   4.299140
    23  H    2.153778   2.809378   5.227853   6.605249   7.552839
    24  H    3.402571   6.401095   7.813816   7.552839   6.605250
    25  H    2.144152   6.623770   8.619566   9.010674   8.635277
    26  H    1.082289   5.247873   7.592421   8.635276   9.010675
                   21         22         23         24         25
    21  H    0.000000
    22  H    2.467104   0.000000
    23  H    7.813815   6.401095   0.000000
    24  H    5.227854   2.809378   4.984489   0.000000
    25  H    7.592422   5.247874   4.288835   2.475212   0.000000
    26  H    8.619566   6.623770   2.475212   4.288836   2.461122
                   26
    26  H    0.000000
 Stoichiometry    C16H10
 Framework group  C1[X(C16H10)]
 Deg. of freedom    72
 Full point group                 C1      NOp   1
 Largest Abelian subgroup         C1      NOp   1
 Largest concise Abelian subgroup C1      NOp   1
                         Standard orientation:                         
 ---------------------------------------------------------------------
 Center     Atomic      Atomic             Coordinates (Angstroms)
 Number     Number       Type             X           Y           Z
 ---------------------------------------------------------------------
      1          6           0       -0.738037    2.387980    0.000005
      2          6           0       -2.156250    2.419832    0.000007
      3          6           0       -2.923420    1.274446    0.000004
      4          6           0       -0.105533    1.168433   -0.000003
      5          6           0        1.294635    0.711847   -0.000008
      6          6           0       -0.901899    0.000000   -0.000006
      7          6           0       -2.298739    0.000000   -0.000002
      8          6           0       -0.105533   -1.168433   -0.000005
      9          6           0       -2.923421   -1.274446   -0.000001
     10          6           0       -2.156251   -2.419832   -0.000002
     11          6           0       -0.738037   -2.387980   -0.000004
     12          6           0        1.294635   -0.711847    0.000003
     13          6           0        2.490808    1.409446   -0.000011
     14          6           0        2.490808   -1.409446    0.000011
     15          6           0        3.689356   -0.696032    0.000008
     16          6           0        3.689356    0.696032   -0.000002
     17          1           0       -0.184226    3.318436    0.000007
     18          1           0       -2.650484    3.383022    0.000011
     19          1           0       -4.004073    1.345781    0.000006
     20          1           0       -4.004074   -1.345780    0.000001
     21          1           0       -2.650485   -3.383021    0.000001
     22          1           0       -0.184227   -3.318436    0.000000
     23          1           0        2.500920    2.492244   -0.000016
     24          1           0        2.500920   -2.492245    0.000014
     25          1           0        4.630434   -1.230561    0.000013
     26          1           0        4.630434    1.230561   -0.000002
 ---------------------------------------------------------------------
 Rotational constants (GHZ):      1.0418193      0.4948024      0.3354727
 Leave Link  202 at Thu Sep 28 14:53:39 2023, MaxMem=  6291456000 cpu:         0.0
 (Enter /home/minenky/programs//g09/l301.exe)
 Standard basis: def2TZVP (5D, 7F)
 ======================================================================================================
                                       Pseudopotential Parameters
 ======================================================================================================
  Center     Atomic      Valence      Angular      Power
  Number     Number     Electrons     Momentum     of R      Exponent        Coefficient   SO-Coeffient
 ======================================================================================================
    1          6
                                   No pseudopotential on this center.
    2          6
                                   No pseudopotential on this center.
    3          6
                                   No pseudopotential on this center.
    4          6
                                   No pseudopotential on this center.
    5          6
                                   No pseudopotential on this center.
    6          6
                                   No pseudopotential on this center.
    7          6
                                   No pseudopotential on this center.
    8          6
                                   No pseudopotential on this center.
    9          6
                                   No pseudopotential on this center.
   10          6
                                   No pseudopotential on this center.
   11          6
                                   No pseudopotential on this center.
   12          6
                                   No pseudopotential on this center.
   13          6
                                   No pseudopotential on this center.
   14          6
                                   No pseudopotential on this center.
   15          6
                                   No pseudopotential on this center.
   16          6
                                   No pseudopotential on this center.
   17          1
                                   No pseudopotential on this center.
   18          1
                                   No pseudopotential on this center.
   19          1
                                   No pseudopotential on this center.
   20          1
                                   No pseudopotential on this center.
   21          1
                                   No pseudopotential on this center.
   22          1
                                   No pseudopotential on this center.
   23          1
                                   No pseudopotential on this center.
   24          1
                                   No pseudopotential on this center.
   25          1
                                   No pseudopotential on this center.
   26          1
                                   No pseudopotential on this center.
 ======================================================================================================
 Ernie: Thresh=  0.10000D-02 Tol=  0.10000D-05 Strict=F.
 AO basis set (Overlap normalization):
 Atom C1       Shell     1 S   6     bf    1 -     1         -1.394687599391          4.512628295385          0.000009466458
      0.1357534968D+05  0.6064550360D-03
      0.2035233368D+04  0.4697908888D-02
      0.4632256236D+03  0.2433247765D-01
      0.1312001960D+03  0.9739996831D-01
      0.4285301589D+02  0.3019558425D+00
      0.1558418577D+02  0.6623360914D+00
 Atom C1       Shell     2 S   2     bf    2 -     2         -1.394687599391          4.512628295385          0.000009466458
      0.6206713851D+01  0.6559530854D+00
      0.2576489653D+01  0.3758563329D+00
 Atom C1       Shell     3 S   1     bf    3 -     3         -1.394687599391          4.512628295385          0.000009466458
      0.5769633942D+00  0.1000000000D+01
 Atom C1       Shell     4 S   1     bf    4 -     4         -1.394687599391          4.512628295385          0.000009466458
      0.2297283136D+00  0.1000000000D+01
 Atom C1       Shell     5 S   1     bf    5 -     5         -1.394687599391          4.512628295385          0.000009466458
      0.9516444003D-01  0.1000000000D+01
 Atom C1       Shell     6 P   4     bf    6 -     8         -1.394687599391          4.512628295385          0.000009466458
      0.3469723224D+02  0.1132722000D-01
      0.7958262283D+01  0.7616965920D-01
      0.2378082688D+01  0.3019225220D+00
      0.8143320818D+00  0.7278502735D+00
 Atom C1       Shell     7 P   1     bf    9 -    11         -1.394687599391          4.512628295385          0.000009466458
      0.2888754725D+00  0.1000000000D+01
 Atom C1       Shell     8 P   1     bf   12 -    14         -1.394687599391          4.512628295385          0.000009466458
      0.1005682367D+00  0.1000000000D+01
 Atom C1       Shell     9 D   1     bf   15 -    19         -1.394687599391          4.512628295385          0.000009466458
      0.1097000000D+01  0.1000000000D+01
 Atom C1       Shell    10 D   1     bf   20 -    24         -1.394687599391          4.512628295385          0.000009466458
      0.3180000000D+00  0.1000000000D+01
 Atom C1       Shell    11 F   1     bf   25 -    31         -1.394687599391          4.512628295385          0.000009466458
      0.7610000000D+00  0.1000000000D+01
 Atom C2       Shell    12 S   6     bf   32 -    32         -4.074721763069          4.572820048951          0.000013245911
      0.1357534968D+05  0.6064550360D-03
      0.2035233368D+04  0.4697908888D-02
      0.4632256236D+03  0.2433247765D-01
      0.1312001960D+03  0.9739996831D-01
      0.4285301589D+02  0.3019558425D+00
      0.1558418577D+02  0.6623360914D+00
 Atom C2       Shell    13 S   2     bf   33 -    33         -4.074721763069          4.572820048951          0.000013245911
      0.6206713851D+01  0.6559530854D+00
      0.2576489653D+01  0.3758563329D+00
 Atom C2       Shell    14 S   1     bf   34 -    34         -4.074721763069          4.572820048951          0.000013245911
      0.5769633942D+00  0.1000000000D+01
 Atom C2       Shell    15 S   1     bf   35 -    35         -4.074721763069          4.572820048951          0.000013245911
      0.2297283136D+00  0.1000000000D+01
 Atom C2       Shell    16 S   1     bf   36 -    36         -4.074721763069          4.572820048951          0.000013245911
      0.9516444003D-01  0.1000000000D+01
 Atom C2       Shell    17 P   4     bf   37 -    39         -4.074721763069          4.572820048951          0.000013245911
      0.3469723224D+02  0.1132722000D-01
      0.7958262283D+01  0.7616965920D-01
      0.2378082688D+01  0.3019225220D+00
      0.8143320818D+00  0.7278502735D+00
 Atom C2       Shell    18 P   1     bf   40 -    42         -4.074721763069          4.572820048951          0.000013245911
      0.2888754725D+00  0.1000000000D+01
 Atom C2       Shell    19 P   1     bf   43 -    45         -4.074721763069          4.572820048951          0.000013245911
      0.1005682367D+00  0.1000000000D+01
 Atom C2       Shell    20 D   1     bf   46 -    50         -4.074721763069          4.572820048951          0.000013245911
      0.1097000000D+01  0.1000000000D+01
 Atom C2       Shell    21 D   1     bf   51 -    55         -4.074721763069          4.572820048951          0.000013245911
      0.3180000000D+00  0.1000000000D+01
 Atom C2       Shell    22 F   1     bf   56 -    62         -4.074721763069          4.572820048951          0.000013245911
      0.7610000000D+00  0.1000000000D+01
 Atom C3       Shell    23 S   6     bf   63 -    63         -5.524463119361          2.408354298957          0.000007576732
      0.1357534968D+05  0.6064550360D-03
      0.2035233368D+04  0.4697908888D-02
      0.4632256236D+03  0.2433247765D-01
      0.1312001960D+03  0.9739996831D-01
      0.4285301589D+02  0.3019558425D+00
      0.1558418577D+02  0.6623360914D+00
 Atom C3       Shell    24 S   2     bf   64 -    64         -5.524463119361          2.408354298957          0.000007576732
      0.6206713851D+01  0.6559530854D+00
      0.2576489653D+01  0.3758563329D+00
 Atom C3       Shell    25 S   1     bf   65 -    65         -5.524463119361          2.408354298957          0.000007576732
      0.5769633942D+00  0.1000000000D+01
 Atom C3       Shell    26 S   1     bf   66 -    66         -5.524463119361          2.408354298957          0.000007576732
      0.2297283136D+00  0.1000000000D+01
 Atom C3       Shell    27 S   1     bf   67 -    67         -5.524463119361          2.408354298957          0.000007576732
      0.9516444003D-01  0.1000000000D+01
 Atom C3       Shell    28 P   4     bf   68 -    70         -5.524463119361          2.408354298957          0.000007576732
      0.3469723224D+02  0.1132722000D-01
      0.7958262283D+01  0.7616965920D-01
      0.2378082688D+01  0.3019225220D+00
      0.8143320818D+00  0.7278502735D+00
 Atom C3       Shell    29 P   1     bf   71 -    73         -5.524463119361          2.408354298957          0.000007576732
      0.2888754725D+00  0.1000000000D+01
 Atom C3       Shell    30 P   1     bf   74 -    76         -5.524463119361          2.408354298957          0.000007576732
      0.1005682367D+00  0.1000000000D+01
 Atom C3       Shell    31 D   1     bf   77 -    81         -5.524463119361          2.408354298957          0.000007576732
      0.1097000000D+01  0.1000000000D+01
 Atom C3       Shell    32 D   1     bf   82 -    86         -5.524463119361          2.408354298957          0.000007576732
      0.3180000000D+00  0.1000000000D+01
 Atom C3       Shell    33 F   1     bf   87 -    93         -5.524463119361          2.408354298957          0.000007576732
      0.7610000000D+00  0.1000000000D+01
 Atom C4       Shell    34 S   6     bf   94 -    94         -0.199428430652          2.208018371441         -0.000005651351
      0.1357534968D+05  0.6064550360D-03
      0.2035233368D+04  0.4697908888D-02
      0.4632256236D+03  0.2433247765D-01
      0.1312001960D+03  0.9739996831D-01
      0.4285301589D+02  0.3019558425D+00
      0.1558418577D+02  0.6623360914D+00
 Atom C4       Shell    35 S   2     bf   95 -    95         -0.199428430652          2.208018371441         -0.000005651351
      0.6206713851D+01  0.6559530854D+00
      0.2576489653D+01  0.3758563329D+00
 Atom C4       Shell    36 S   1     bf   96 -    96         -0.199428430652          2.208018371441         -0.000005651351
      0.5769633942D+00  0.1000000000D+01
 Atom C4       Shell    37 S   1     bf   97 -    97         -0.199428430652          2.208018371441         -0.000005651351
      0.2297283136D+00  0.1000000000D+01
 Atom C4       Shell    38 S   1     bf   98 -    98         -0.199428430652          2.208018371441         -0.000005651351
      0.9516444003D-01  0.1000000000D+01
 Atom C4       Shell    39 P   4     bf   99 -   101         -0.199428430652          2.208018371441         -0.000005651351
      0.3469723224D+02  0.1132722000D-01
      0.7958262283D+01  0.7616965920D-01
      0.2378082688D+01  0.3019225220D+00
      0.8143320818D+00  0.7278502735D+00
 Atom C4       Shell    40 P   1     bf  102 -   104         -0.199428430652          2.208018371441         -0.000005651351
      0.2888754725D+00  0.1000000000D+01
 Atom C4       Shell    41 P   1     bf  105 -   107         -0.199428430652          2.208018371441         -0.000005651351
      0.1005682367D+00  0.1000000000D+01
 Atom C4       Shell    42 D   1     bf  108 -   112         -0.199428430652          2.208018371441         -0.000005651351
      0.1097000000D+01  0.1000000000D+01
 Atom C4       Shell    43 D   1     bf  113 -   117         -0.199428430652          2.208018371441         -0.000005651351
      0.3180000000D+00  0.1000000000D+01
 Atom C4       Shell    44 F   1     bf  118 -   124         -0.199428430652          2.208018371441         -0.000005651351
      0.7610000000D+00  0.1000000000D+01
 Atom C5       Shell    45 S   6     bf  125 -   125          2.446505566026          1.345195681054         -0.000015099981
      0.1357534968D+05  0.6064550360D-03
      0.2035233368D+04  0.4697908888D-02
      0.4632256236D+03  0.2433247765D-01
      0.1312001960D+03  0.9739996831D-01
      0.4285301589D+02  0.3019558425D+00
      0.1558418577D+02  0.6623360914D+00
 Atom C5       Shell    46 S   2     bf  126 -   126          2.446505566026          1.345195681054         -0.000015099981
      0.6206713851D+01  0.6559530854D+00
      0.2576489653D+01  0.3758563329D+00
 Atom C5       Shell    47 S   1     bf  127 -   127          2.446505566026          1.345195681054         -0.000015099981
      0.5769633942D+00  0.1000000000D+01
 Atom C5       Shell    48 S   1     bf  128 -   128          2.446505566026          1.345195681054         -0.000015099981
      0.2297283136D+00  0.1000000000D+01
 Atom C5       Shell    49 S   1     bf  129 -   129          2.446505566026          1.345195681054         -0.000015099981
      0.9516444003D-01  0.1000000000D+01
 Atom C5       Shell    50 P   4     bf  130 -   132          2.446505566026          1.345195681054         -0.000015099981
      0.3469723224D+02  0.1132722000D-01
      0.7958262283D+01  0.7616965920D-01
      0.2378082688D+01  0.3019225220D+00
      0.8143320818D+00  0.7278502735D+00
 Atom C5       Shell    51 P   1     bf  133 -   135          2.446505566026          1.345195681054         -0.000015099981
      0.2888754725D+00  0.1000000000D+01
 Atom C5       Shell    52 P   1     bf  136 -   138          2.446505566026          1.345195681054         -0.000015099981
      0.1005682367D+00  0.1000000000D+01
 Atom C5       Shell    53 D   1     bf  139 -   143          2.446505566026          1.345195681054         -0.000015099981
      0.1097000000D+01  0.1000000000D+01
 Atom C5       Shell    54 D   1     bf  144 -   148          2.446505566026          1.345195681054         -0.000015099981
      0.3180000000D+00  0.1000000000D+01
 Atom C5       Shell    55 F   1     bf  149 -   155          2.446505566026          1.345195681054         -0.000015099981
      0.7610000000D+00  0.1000000000D+01
 Atom C6       Shell    56 S   6     bf  156 -   156         -1.704342234317          0.000000107314         -0.000011320529
      0.1357534968D+05  0.6064550360D-03
      0.2035233368D+04  0.4697908888D-02
      0.4632256236D+03  0.2433247765D-01
      0.1312001960D+03  0.9739996831D-01
      0.4285301589D+02  0.3019558425D+00
      0.1558418577D+02  0.6623360914D+00
 Atom C6       Shell    57 S   2     bf  157 -   157         -1.704342234317          0.000000107314         -0.000011320529
      0.6206713851D+01  0.6559530854D+00
      0.2576489653D+01  0.3758563329D+00
 Atom C6       Shell    58 S   1     bf  158 -   158         -1.704342234317          0.000000107314         -0.000011320529
      0.5769633942D+00  0.1000000000D+01
 Atom C6       Shell    59 S   1     bf  159 -   159         -1.704342234317          0.000000107314         -0.000011320529
      0.2297283136D+00  0.1000000000D+01
 Atom C6       Shell    60 S   1     bf  160 -   160         -1.704342234317          0.000000107314         -0.000011320529
      0.9516444003D-01  0.1000000000D+01
 Atom C6       Shell    61 P   4     bf  161 -   163         -1.704342234317          0.000000107314         -0.000011320529
      0.3469723224D+02  0.1132722000D-01
      0.7958262283D+01  0.7616965920D-01
      0.2378082688D+01  0.3019225220D+00
      0.8143320818D+00  0.7278502735D+00
 Atom C6       Shell    62 P   1     bf  164 -   166         -1.704342234317          0.000000107314         -0.000011320529
      0.2888754725D+00  0.1000000000D+01
 Atom C6       Shell    63 P   1     bf  167 -   169         -1.704342234317          0.000000107314         -0.000011320529
      0.1005682367D+00  0.1000000000D+01
 Atom C6       Shell    64 D   1     bf  170 -   174         -1.704342234317          0.000000107314         -0.000011320529
      0.1097000000D+01  0.1000000000D+01
 Atom C6       Shell    65 D   1     bf  175 -   179         -1.704342234317          0.000000107314         -0.000011320529
      0.3180000000D+00  0.1000000000D+01
 Atom C6       Shell    66 F   1     bf  180 -   186         -1.704342234317          0.000000107314         -0.000011320529
      0.7610000000D+00  0.1000000000D+01
 Atom C7       Shell    67 S   6     bf  187 -   187         -4.343987285777          0.000000301129         -0.000003761625
      0.1357534968D+05  0.6064550360D-03
      0.2035233368D+04  0.4697908888D-02
      0.4632256236D+03  0.2433247765D-01
      0.1312001960D+03  0.9739996831D-01
      0.4285301589D+02  0.3019558425D+00
      0.1558418577D+02  0.6623360914D+00
 Atom C7       Shell    68 S   2     bf  188 -   188         -4.343987285777          0.000000301129         -0.000003761625
      0.6206713851D+01  0.6559530854D+00
      0.2576489653D+01  0.3758563329D+00
 Atom C7       Shell    69 S   1     bf  189 -   189         -4.343987285777          0.000000301129         -0.000003761625
      0.5769633942D+00  0.1000000000D+01
 Atom C7       Shell    70 S   1     bf  190 -   190         -4.343987285777          0.000000301129         -0.000003761625
      0.2297283136D+00  0.1000000000D+01
 Atom C7       Shell    71 S   1     bf  191 -   191         -4.343987285777          0.000000301129         -0.000003761625
      0.9516444003D-01  0.1000000000D+01
 Atom C7       Shell    72 P   4     bf  192 -   194         -4.343987285777          0.000000301129         -0.000003761625
      0.3469723224D+02  0.1132722000D-01
      0.7958262283D+01  0.7616965920D-01
      0.2378082688D+01  0.3019225220D+00
      0.8143320818D+00  0.7278502735D+00
 Atom C7       Shell    73 P   1     bf  195 -   197         -4.343987285777          0.000000301129         -0.000003761625
      0.2888754725D+00  0.1000000000D+01
 Atom C7       Shell    74 P   1     bf  198 -   200         -4.343987285777          0.000000301129         -0.000003761625
      0.1005682367D+00  0.1000000000D+01
 Atom C7       Shell    75 D   1     bf  201 -   205         -4.343987285777          0.000000301129         -0.000003761625
      0.1097000000D+01  0.1000000000D+01
 Atom C7       Shell    76 D   1     bf  206 -   210         -4.343987285777          0.000000301129         -0.000003761625
      0.3180000000D+00  0.1000000000D+01
 Atom C7       Shell    77 F   1     bf  211 -   217         -4.343987285777          0.000000301129         -0.000003761625
      0.7610000000D+00  0.1000000000D+01
 Atom C8       Shell    78 S   6     bf  218 -   218         -0.199428754899         -2.208018377811         -0.000009430803
      0.1357534968D+05  0.6064550360D-03
      0.2035233368D+04  0.4697908888D-02
      0.4632256236D+03  0.2433247765D-01
      0.1312001960D+03  0.9739996831D-01
      0.4285301589D+02  0.3019558425D+00
      0.1558418577D+02  0.6623360914D+00
 Atom C8       Shell    79 S   2     bf  219 -   219         -0.199428754899         -2.208018377811         -0.000009430803
      0.6206713851D+01  0.6559530854D+00
      0.2576489653D+01  0.3758563329D+00
 Atom C8       Shell    80 S   1     bf  220 -   220         -0.199428754899         -2.208018377811         -0.000009430803
      0.5769633942D+00  0.1000000000D+01
 Atom C8       Shell    81 S   1     bf  221 -   221         -0.199428754899         -2.208018377811         -0.000009430803
      0.2297283136D+00  0.1000000000D+01
 Atom C8       Shell    82 S   1     bf  222 -   222         -0.199428754899         -2.208018377811         -0.000009430803
      0.9516444003D-01  0.1000000000D+01
 Atom C8       Shell    83 P   4     bf  223 -   225         -0.199428754899         -2.208018377811         -0.000009430803
      0.3469723224D+02  0.1132722000D-01
      0.7958262283D+01  0.7616965920D-01
      0.2378082688D+01  0.3019225220D+00
      0.8143320818D+00  0.7278502735D+00
 Atom C8       Shell    84 P   1     bf  226 -   228         -0.199428754899         -2.208018377811         -0.000009430803
      0.2888754725D+00  0.1000000000D+01
 Atom C8       Shell    85 P   1     bf  229 -   231         -0.199428754899         -2.208018377811         -0.000009430803
      0.1005682367D+00  0.1000000000D+01
 Atom C8       Shell    86 D   1     bf  232 -   236         -0.199428754899         -2.208018377811         -0.000009430803
      0.1097000000D+01  0.1000000000D+01
 Atom C8       Shell    87 D   1     bf  237 -   241         -0.199428754899         -2.208018377811         -0.000009430803
      0.3180000000D+00  0.1000000000D+01
 Atom C8       Shell    88 F   1     bf  242 -   248         -0.199428754899         -2.208018377811         -0.000009430803
      0.7610000000D+00  0.1000000000D+01
 Atom C9       Shell    89 S   6     bf  249 -   249         -5.524465362753         -2.408353523346         -0.000001871899
      0.1357534968D+05  0.6064550360D-03
      0.2035233368D+04  0.4697908888D-02
      0.4632256236D+03  0.2433247765D-01
      0.1312001960D+03  0.9739996831D-01
      0.4285301589D+02  0.3019558425D+00
      0.1558418577D+02  0.6623360914D+00
 Atom C9       Shell    90 S   2     bf  250 -   250         -5.524465362753         -2.408353523346         -0.000001871899
      0.6206713851D+01  0.6559530854D+00
      0.2576489653D+01  0.3758563329D+00
 Atom C9       Shell    91 S   1     bf  251 -   251         -5.524465362753         -2.408353523346         -0.000001871899
      0.5769633942D+00  0.1000000000D+01
 Atom C9       Shell    92 S   1     bf  252 -   252         -5.524465362753         -2.408353523346         -0.000001871899
      0.2297283136D+00  0.1000000000D+01
 Atom C9       Shell    93 S   1     bf  253 -   253         -5.524465362753         -2.408353523346         -0.000001871899
      0.9516444003D-01  0.1000000000D+01
 Atom C9       Shell    94 P   4     bf  254 -   256         -5.524465362753         -2.408353523346         -0.000001871899
      0.3469723224D+02  0.1132722000D-01
      0.7958262283D+01  0.7616965920D-01
      0.2378082688D+01  0.3019225220D+00
      0.8143320818D+00  0.7278502735D+00
 Atom C9       Shell    95 P   1     bf  257 -   259         -5.524465362753         -2.408353523346         -0.000001871899
      0.2888754725D+00  0.1000000000D+01
 Atom C9       Shell    96 P   1     bf  260 -   262         -5.524465362753         -2.408353523346         -0.000001871899
      0.1005682367D+00  0.1000000000D+01
 Atom C9       Shell    97 D   1     bf  263 -   267         -5.524465362753         -2.408353523346         -0.000001871899
      0.1097000000D+01  0.1000000000D+01
 Atom C9       Shell    98 D   1     bf  268 -   272         -5.524465362753         -2.408353523346         -0.000001871899
      0.3180000000D+00  0.1000000000D+01
 Atom C9       Shell    99 F   1     bf  273 -   279         -5.524465362753         -2.408353523346         -0.000001871899
      0.7610000000D+00  0.1000000000D+01
 Atom C10      Shell   100 S   6     bf  280 -   280         -4.074724324313         -4.572819486234         -0.000003761625
      0.1357534968D+05  0.6064550360D-03
      0.2035233368D+04  0.4697908888D-02
      0.4632256236D+03  0.2433247765D-01
      0.1312001960D+03  0.9739996831D-01
      0.4285301589D+02  0.3019558425D+00
      0.1558418577D+02  0.6623360914D+00
 Atom C10      Shell   101 S   2     bf  281 -   281         -4.074724324313         -4.572819486234         -0.000003761625
      0.6206713851D+01  0.6559530854D+00
      0.2576489653D+01  0.3758563329D+00
 Atom C10      Shell   102 S   1     bf  282 -   282         -4.074724324313         -4.572819486234         -0.000003761625
      0.5769633942D+00  0.1000000000D+01
 Atom C10      Shell   103 S   1     bf  283 -   283         -4.074724324313         -4.572819486234         -0.000003761625
      0.2297283136D+00  0.1000000000D+01
 Atom C10      Shell   104 S   1     bf  284 -   284         -4.074724324313         -4.572819486234         -0.000003761625
      0.9516444003D-01  0.1000000000D+01
 Atom C10      Shell   105 P   4     bf  285 -   287         -4.074724324313         -4.572819486234         -0.000003761625
      0.3469723224D+02  0.1132722000D-01
      0.7958262283D+01  0.7616965920D-01
      0.2378082688D+01  0.3019225220D+00
      0.8143320818D+00  0.7278502735D+00
 Atom C10      Shell   106 P   1     bf  288 -   290         -4.074724324313         -4.572819486234         -0.000003761625
      0.2888754725D+00  0.1000000000D+01
 Atom C10      Shell   107 P   1     bf  291 -   293         -4.074724324313         -4.572819486234         -0.000003761625
      0.1005682367D+00  0.1000000000D+01
 Atom C10      Shell   108 D   1     bf  294 -   298         -4.074724324313         -4.572819486234         -0.000003761625
      0.1097000000D+01  0.1000000000D+01
 Atom C10      Shell   109 D   1     bf  299 -   303         -4.074724324313         -4.572819486234         -0.000003761625
      0.3180000000D+00  0.1000000000D+01
 Atom C10      Shell   110 F   1     bf  304 -   310         -4.074724324313         -4.572819486234         -0.000003761625
      0.7610000000D+00  0.1000000000D+01
 Atom C11      Shell   111 S   6     bf  311 -   311         -1.394688262069         -4.512628126231         -0.000007541077
      0.1357534968D+05  0.6064550360D-03
      0.2035233368D+04  0.4697908888D-02
      0.4632256236D+03  0.2433247765D-01
      0.1312001960D+03  0.9739996831D-01
      0.4285301589D+02  0.3019558425D+00
      0.1558418577D+02  0.6623360914D+00
 Atom C11      Shell   112 S   2     bf  312 -   312         -1.394688262069         -4.512628126231         -0.000007541077
      0.6206713851D+01  0.6559530854D+00
      0.2576489653D+01  0.3758563329D+00
 Atom C11      Shell   113 S   1     bf  313 -   313         -1.394688262069         -4.512628126231         -0.000007541077
      0.5769633942D+00  0.1000000000D+01
 Atom C11      Shell   114 S   1     bf  314 -   314         -1.394688262069         -4.512628126231         -0.000007541077
      0.2297283136D+00  0.1000000000D+01
 Atom C11      Shell   115 S   1     bf  315 -   315         -1.394688262069         -4.512628126231         -0.000007541077
      0.9516444003D-01  0.1000000000D+01
 Atom C11      Shell   116 P   4     bf  316 -   318         -1.394688262069         -4.512628126231         -0.000007541077
      0.3469723224D+02  0.1132722000D-01
      0.7958262283D+01  0.7616965920D-01
      0.2378082688D+01  0.3019225220D+00
      0.8143320818D+00  0.7278502735D+00
 Atom C11      Shell   117 P   1     bf  319 -   321         -1.394688262069         -4.512628126231         -0.000007541077
      0.2888754725D+00  0.1000000000D+01
 Atom C11      Shell   118 P   1     bf  322 -   324         -1.394688262069         -4.512628126231         -0.000007541077
      0.1005682367D+00  0.1000000000D+01
 Atom C11      Shell   119 D   1     bf  325 -   329         -1.394688262069         -4.512628126231         -0.000007541077
      0.1097000000D+01  0.1000000000D+01
 Atom C11      Shell   120 D   1     bf  330 -   334         -1.394688262069         -4.512628126231         -0.000007541077
      0.3180000000D+00  0.1000000000D+01
 Atom C11      Shell   121 F   1     bf  335 -   341         -1.394688262069         -4.512628126231         -0.000007541077
      0.7610000000D+00  0.1000000000D+01
 Atom C12      Shell   122 S   6     bf  342 -   342          2.446505368484         -1.345196075978          0.000005687006
      0.1357534968D+05  0.6064550360D-03
      0.2035233368D+04  0.4697908888D-02
      0.4632256236D+03  0.2433247765D-01
      0.1312001960D+03  0.9739996831D-01
      0.4285301589D+02  0.3019558425D+00
      0.1558418577D+02  0.6623360914D+00
 Atom C12      Shell   123 S   2     bf  343 -   343          2.446505368484         -1.345196075978          0.000005687006
      0.6206713851D+01  0.6559530854D+00
      0.2576489653D+01  0.3758563329D+00
 Atom C12      Shell   124 S   1     bf  344 -   344          2.446505368484         -1.345196075978          0.000005687006
      0.5769633942D+00  0.1000000000D+01
 Atom C12      Shell   125 S   1     bf  345 -   345          2.446505368484         -1.345196075978          0.000005687006
      0.2297283136D+00  0.1000000000D+01
 Atom C12      Shell   126 S   1     bf  346 -   346          2.446505368484         -1.345196075978          0.000005687006
      0.9516444003D-01  0.1000000000D+01
 Atom C12      Shell   127 P   4     bf  347 -   349          2.446505368484         -1.345196075978          0.000005687006
      0.3469723224D+02  0.1132722000D-01
      0.7958262283D+01  0.7616965920D-01
      0.2378082688D+01  0.3019225220D+00
      0.8143320818D+00  0.7278502735D+00
 Atom C12      Shell   128 P   1     bf  350 -   352          2.446505368484         -1.345196075978          0.000005687006
      0.2888754725D+00  0.1000000000D+01
 Atom C12      Shell   129 P   1     bf  353 -   355          2.446505368484         -1.345196075978          0.000005687006
      0.1005682367D+00  0.1000000000D+01
 Atom C12      Shell   130 D   1     bf  356 -   360          2.446505368484         -1.345196075978          0.000005687006
      0.1097000000D+01  0.1000000000D+01
 Atom C12      Shell   131 D   1     bf  361 -   365          2.446505368484         -1.345196075978          0.000005687006
      0.3180000000D+00  0.1000000000D+01
 Atom C12      Shell   132 F   1     bf  366 -   372          2.446505368484         -1.345196075978          0.000005687006
      0.7610000000D+00  0.1000000000D+01
 Atom C13      Shell   133 S   6     bf  373 -   373          4.706945040372          2.663466575657         -0.000020769160
      0.1357534968D+05  0.6064550360D-03
      0.2035233368D+04  0.4697908888D-02
      0.4632256236D+03  0.2433247765D-01
      0.1312001960D+03  0.9739996831D-01
      0.4285301589D+02  0.3019558425D+00
      0.1558418577D+02  0.6623360914D+00
 Atom C13      Shell   134 S   2     bf  374 -   374          4.706945040372          2.663466575657         -0.000020769160
      0.6206713851D+01  0.6559530854D+00
      0.2576489653D+01  0.3758563329D+00
 Atom C13      Shell   135 S   1     bf  375 -   375          4.706945040372          2.663466575657         -0.000020769160
      0.5769633942D+00  0.1000000000D+01
 Atom C13      Shell   136 S   1     bf  376 -   376          4.706945040372          2.663466575657         -0.000020769160
      0.2297283136D+00  0.1000000000D+01
 Atom C13      Shell   137 S   1     bf  377 -   377          4.706945040372          2.663466575657         -0.000020769160
      0.9516444003D-01  0.1000000000D+01
 Atom C13      Shell   138 P   4     bf  378 -   380          4.706945040372          2.663466575657         -0.000020769160
      0.3469723224D+02  0.1132722000D-01
      0.7958262283D+01  0.7616965920D-01
      0.2378082688D+01  0.3019225220D+00
      0.8143320818D+00  0.7278502735D+00
 Atom C13      Shell   139 P   1     bf  381 -   383          4.706945040372          2.663466575657         -0.000020769160
      0.2888754725D+00  0.1000000000D+01
 Atom C13      Shell   140 P   1     bf  384 -   386          4.706945040372          2.663466575657         -0.000020769160
      0.1005682367D+00  0.1000000000D+01
 Atom C13      Shell   141 D   1     bf  387 -   391          4.706945040372          2.663466575657         -0.000020769160
      0.1097000000D+01  0.1000000000D+01
 Atom C13      Shell   142 D   1     bf  392 -   396          4.706945040372          2.663466575657         -0.000020769160
      0.3180000000D+00  0.1000000000D+01
 Atom C13      Shell   143 F   1     bf  397 -   403          4.706945040372          2.663466575657         -0.000020769160
      0.7610000000D+00  0.1000000000D+01
 Atom C14      Shell   144 S   6     bf  404 -   404          4.706944649243         -2.663467302526          0.000020804815
      0.1357534968D+05  0.6064550360D-03
      0.2035233368D+04  0.4697908888D-02
      0.4632256236D+03  0.2433247765D-01
      0.1312001960D+03  0.9739996831D-01
      0.4285301589D+02  0.3019558425D+00
      0.1558418577D+02  0.6623360914D+00
 Atom C14      Shell   145 S   2     bf  405 -   405          4.706944649243         -2.663467302526          0.000020804815
      0.6206713851D+01  0.6559530854D+00
      0.2576489653D+01  0.3758563329D+00
 Atom C14      Shell   146 S   1     bf  406 -   406          4.706944649243         -2.663467302526          0.000020804815
      0.5769633942D+00  0.1000000000D+01
 Atom C14      Shell   147 S   1     bf  407 -   407          4.706944649243         -2.663467302526          0.000020804815
      0.2297283136D+00  0.1000000000D+01
 Atom C14      Shell   148 S   1     bf  408 -   408          4.706944649243         -2.663467302526          0.000020804815
      0.9516444003D-01  0.1000000000D+01
 Atom C14      Shell   149 P   4     bf  409 -   411          4.706944649243         -2.663467302526          0.000020804815
      0.3469723224D+02  0.1132722000D-01
      0.7958262283D+01  0.7616965920D-01
      0.2378082688D+01  0.3019225220D+00
      0.8143320818D+00  0.7278502735D+00
 Atom C14      Shell   150 P   1     bf  412 -   414          4.706944649243         -2.663467302526          0.000020804815
      0.2888754725D+00  0.1000000000D+01
 Atom C14      Shell   151 P   1     bf  415 -   417          4.706944649243         -2.663467302526          0.000020804815
      0.1005682367D+00  0.1000000000D+01
 Atom C14      Shell   152 D   1     bf  418 -   422          4.706944649243         -2.663467302526          0.000020804815
      0.1097000000D+01  0.1000000000D+01
 Atom C14      Shell   153 D   1     bf  423 -   427          4.706944649243         -2.663467302526          0.000020804815
      0.3180000000D+00  0.1000000000D+01
 Atom C14      Shell   154 F   1     bf  428 -   434          4.706944649243         -2.663467302526          0.000020804815
      0.7610000000D+00  0.1000000000D+01
 Atom C15      Shell   155 S   6     bf  435 -   435          6.971872225349         -1.315310389461          0.000015135637
      0.1357534968D+05  0.6064550360D-03
      0.2035233368D+04  0.4697908888D-02
      0.4632256236D+03  0.2433247765D-01
      0.1312001960D+03  0.9739996831D-01
      0.4285301589D+02  0.3019558425D+00
      0.1558418577D+02  0.6623360914D+00
 Atom C15      Shell   156 S   2     bf  436 -   436          6.971872225349         -1.315310389461          0.000015135637
      0.6206713851D+01  0.6559530854D+00
      0.2576489653D+01  0.3758563329D+00
 Atom C15      Shell   157 S   1     bf  437 -   437          6.971872225349         -1.315310389461          0.000015135637
      0.5769633942D+00  0.1000000000D+01
 Atom C15      Shell   158 S   1     bf  438 -   438          6.971872225349         -1.315310389461          0.000015135637
      0.2297283136D+00  0.1000000000D+01
 Atom C15      Shell   159 S   1     bf  439 -   439          6.971872225349         -1.315310389461          0.000015135637
      0.9516444003D-01  0.1000000000D+01
 Atom C15      Shell   160 P   4     bf  440 -   442          6.971872225349         -1.315310389461          0.000015135637
      0.3469723224D+02  0.1132722000D-01
      0.7958262283D+01  0.7616965920D-01
      0.2378082688D+01  0.3019225220D+00
      0.8143320818D+00  0.7278502735D+00
 Atom C15      Shell   161 P   1     bf  443 -   445          6.971872225349         -1.315310389461          0.000015135637
      0.2888754725D+00  0.1000000000D+01
 Atom C15      Shell   162 P   1     bf  446 -   448          6.971872225349         -1.315310389461          0.000015135637
      0.1005682367D+00  0.1000000000D+01
 Atom C15      Shell   163 D   1     bf  449 -   453          6.971872225349         -1.315310389461          0.000015135637
      0.1097000000D+01  0.1000000000D+01
 Atom C15      Shell   164 D   1     bf  454 -   458          6.971872225349         -1.315310389461          0.000015135637
      0.3180000000D+00  0.1000000000D+01
 Atom C15      Shell   165 F   1     bf  459 -   465          6.971872225349         -1.315310389461          0.000015135637
      0.7610000000D+00  0.1000000000D+01
 Atom C16      Shell   166 S   6     bf  466 -   466          6.971872418502          1.315309329988         -0.000003761625
      0.1357534968D+05  0.6064550360D-03
      0.2035233368D+04  0.4697908888D-02
      0.4632256236D+03  0.2433247765D-01
      0.1312001960D+03  0.9739996831D-01
      0.4285301589D+02  0.3019558425D+00
      0.1558418577D+02  0.6623360914D+00
 Atom C16      Shell   167 S   2     bf  467 -   467          6.971872418502          1.315309329988         -0.000003761625
      0.6206713851D+01  0.6559530854D+00
      0.2576489653D+01  0.3758563329D+00
 Atom C16      Shell   168 S   1     bf  468 -   468          6.971872418502          1.315309329988         -0.000003761625
      0.5769633942D+00  0.1000000000D+01
 Atom C16      Shell   169 S   1     bf  469 -   469          6.971872418502          1.315309329988         -0.000003761625
      0.2297283136D+00  0.1000000000D+01
 Atom C16      Shell   170 S   1     bf  470 -   470          6.971872418502          1.315309329988         -0.000003761625
      0.9516444003D-01  0.1000000000D+01
 Atom C16      Shell   171 P   4     bf  471 -   473          6.971872418502          1.315309329988         -0.000003761625
      0.3469723224D+02  0.1132722000D-01
      0.7958262283D+01  0.7616965920D-01
      0.2378082688D+01  0.3019225220D+00
      0.8143320818D+00  0.7278502735D+00
 Atom C16      Shell   172 P   1     bf  474 -   476          6.971872418502          1.315309329988         -0.000003761625
      0.2888754725D+00  0.1000000000D+01
 Atom C16      Shell   173 P   1     bf  477 -   479          6.971872418502          1.315309329988         -0.000003761625
      0.1005682367D+00  0.1000000000D+01
 Atom C16      Shell   174 D   1     bf  480 -   484          6.971872418502          1.315309329988         -0.000003761625
      0.1097000000D+01  0.1000000000D+01
 Atom C16      Shell   175 D   1     bf  485 -   489          6.971872418502          1.315309329988         -0.000003761625
      0.3180000000D+00  0.1000000000D+01
 Atom C16      Shell   176 F   1     bf  490 -   496          6.971872418502          1.315309329988         -0.000003761625
      0.7610000000D+00  0.1000000000D+01
 Atom H17      Shell   177 S   3     bf  497 -   497         -0.348136350908          6.270935237243          0.000013245911
      0.3406134100D+02  0.2543930721D-01
      0.5123574600D+01  0.1900859489D+00
      0.1164662600D+01  0.8524411301D+00
 Atom H17      Shell   178 S   1     bf  498 -   498         -0.348136350908          6.270935237243          0.000013245911
      0.3272304100D+00  0.1000000000D+01
 Atom H17      Shell   179 S   1     bf  499 -   499         -0.348136350908          6.270935237243          0.000013245911
      0.1030724100D+00  0.1000000000D+01
 Atom H17      Shell   180 P   1     bf  500 -   502         -0.348136350908          6.270935237243          0.000013245911
      0.8000000000D+00  0.1000000000D+01
 Atom H18      Shell   181 S   3     bf  503 -   503         -5.008688534984          6.392985431462          0.000020804815
      0.3406134100D+02  0.2543930721D-01
      0.5123574600D+01  0.1900859489D+00
      0.1164662600D+01  0.8524411301D+00
 Atom H18      Shell   182 S   1     bf  504 -   504         -5.008688534984          6.392985431462          0.000020804815
      0.3272304100D+00  0.1000000000D+01
 Atom H18      Shell   183 S   1     bf  505 -   505         -5.008688534984          6.392985431462          0.000020804815
      0.1030724100D+00  0.1000000000D+01
 Atom H18      Shell   184 P   1     bf  506 -   508         -5.008688534984          6.392985431462          0.000020804815
      0.8000000000D+00  0.1000000000D+01
 Atom H19      Shell   185 S   3     bf  509 -   509         -7.566601324144          2.543158062590          0.000011356184
      0.3406134100D+02  0.2543930721D-01
      0.5123574600D+01  0.1900859489D+00
      0.1164662600D+01  0.8524411301D+00
 Atom H19      Shell   186 S   1     bf  510 -   510         -7.566601324144          2.543158062590          0.000011356184
      0.3272304100D+00  0.1000000000D+01
 Atom H19      Shell   187 S   1     bf  511 -   511         -7.566601324144          2.543158062590          0.000011356184
      0.1030724100D+00  0.1000000000D+01
 Atom H19      Shell   188 P   1     bf  512 -   514         -7.566601324144          2.543158062590          0.000011356184
      0.8000000000D+00  0.1000000000D+01
 Atom H20      Shell   189 S   3     bf  515 -   515         -7.566603587332         -2.543155097365          0.000001907554
      0.3406134100D+02  0.2543930721D-01
      0.5123574600D+01  0.1900859489D+00
      0.1164662600D+01  0.8524411301D+00
 Atom H20      Shell   190 S   1     bf  516 -   516         -7.566603587332         -2.543155097365          0.000001907554
      0.3272304100D+00  0.1000000000D+01
 Atom H20      Shell   191 S   1     bf  517 -   517         -7.566603587332         -2.543155097365          0.000001907554
      0.1030724100D+00  0.1000000000D+01
 Atom H20      Shell   192 P   1     bf  518 -   520         -7.566603587332         -2.543155097365          0.000001907554
      0.8000000000D+00  0.1000000000D+01
 Atom H21      Shell   193 S   3     bf  521 -   521         -5.008691363519         -6.392982841866          0.000001907554
      0.3406134100D+02  0.2543930721D-01
      0.5123574600D+01  0.1900859489D+00
      0.1164662600D+01  0.8524411301D+00
 Atom H21      Shell   194 S   1     bf  522 -   522         -5.008691363519         -6.392982841866          0.000001907554
      0.3272304100D+00  0.1000000000D+01
 Atom H21      Shell   195 S   1     bf  523 -   523         -5.008691363519         -6.392982841866          0.000001907554
      0.1030724100D+00  0.1000000000D+01
 Atom H21      Shell   196 P   1     bf  524 -   526         -5.008691363519         -6.392982841866          0.000001907554
      0.8000000000D+00  0.1000000000D+01
 Atom H22      Shell   197 S   3     bf  527 -   527         -0.348139161519         -6.270935221774          0.000000000000
      0.3406134100D+02  0.2543930721D-01
      0.5123574600D+01  0.1900859489D+00
      0.1164662600D+01  0.8524411301D+00
 Atom H22      Shell   198 S   1     bf  528 -   528         -0.348139161519         -6.270935221774          0.000000000000
      0.3272304100D+00  0.1000000000D+01
 Atom H22      Shell   199 S   1     bf  529 -   529         -0.348139161519         -6.270935221774          0.000000000000
      0.1030724100D+00  0.1000000000D+01
 Atom H22      Shell   200 P   1     bf  530 -   532         -0.348139161519         -6.270935221774          0.000000000000
      0.8000000000D+00  0.1000000000D+01
 Atom H23      Shell   201 S   3     bf  533 -   533          4.726054101269          4.709658251490         -0.000030217791
      0.3406134100D+02  0.2543930721D-01
      0.5123574600D+01  0.1900859489D+00
      0.1164662600D+01  0.8524411301D+00
 Atom H23      Shell   202 S   1     bf  534 -   534          4.726054101269          4.709658251490         -0.000030217791
      0.3272304100D+00  0.1000000000D+01
 Atom H23      Shell   203 S   1     bf  535 -   535          4.726054101269          4.709658251490         -0.000030217791
      0.1030724100D+00  0.1000000000D+01
 Atom H23      Shell   204 P   1     bf  536 -   538          4.726054101269          4.709658251490         -0.000030217791
      0.8000000000D+00  0.1000000000D+01
 Atom H24      Shell   205 S   3     bf  539 -   539          4.726053409657         -4.709660870891          0.000026473993
      0.3406134100D+02  0.2543930721D-01
      0.5123574600D+01  0.1900859489D+00
      0.1164662600D+01  0.8524411301D+00
 Atom H24      Shell   206 S   1     bf  540 -   540          4.726053409657         -4.709660870891          0.000026473993
      0.3272304100D+00  0.1000000000D+01
 Atom H24      Shell   207 S   1     bf  541 -   541          4.726053409657         -4.709660870891          0.000026473993
      0.1030724100D+00  0.1000000000D+01
 Atom H24      Shell   208 P   1     bf  542 -   544          4.726053409657         -4.709660870891          0.000026473993
      0.8000000000D+00  0.1000000000D+01
 Atom H25      Shell   209 S   3     bf  545 -   545          8.750251840865         -2.325423940124          0.000024584267
      0.3406134100D+02  0.2543930721D-01
      0.5123574600D+01  0.1900859489D+00
      0.1164662600D+01  0.8524411301D+00
 Atom H25      Shell   210 S   1     bf  546 -   546          8.750251840865         -2.325423940124          0.000024584267
      0.3272304100D+00  0.1000000000D+01
 Atom H25      Shell   211 S   1     bf  547 -   547          8.750251840865         -2.325423940124          0.000024584267
      0.1030724100D+00  0.1000000000D+01
 Atom H25      Shell   212 P   1     bf  548 -   550          8.750251840865         -2.325423940124          0.000024584267
      0.8000000000D+00  0.1000000000D+01
 Atom H26      Shell   213 S   3     bf  551 -   551          8.750252182353          2.325422619496         -0.000003761625
      0.3406134100D+02  0.2543930721D-01
      0.5123574600D+01  0.1900859489D+00
      0.1164662600D+01  0.8524411301D+00
 Atom H26      Shell   214 S   1     bf  552 -   552          8.750252182353          2.325422619496         -0.000003761625
      0.3272304100D+00  0.1000000000D+01
 Atom H26      Shell   215 S   1     bf  553 -   553          8.750252182353          2.325422619496         -0.000003761625
      0.1030724100D+00  0.1000000000D+01
 Atom H26      Shell   216 P   1     bf  554 -   556          8.750252182353          2.325422619496         -0.000003761625
      0.8000000000D+00  0.1000000000D+01
 There are   636 symmetry adapted cartesian basis functions of A   symmetry.
 There are   556 symmetry adapted basis functions of A   symmetry.
   556 basis functions,   896 primitive gaussians,   636 cartesian basis functions
    53 alpha electrons       53 beta electrons
       nuclear repulsion energy       956.7917884176 Hartrees.
 IExCor= 4639 DFT=T Ex+Corr=wB97XD ExCW=0 ScaHFX=  1.000000
 ScaDFX=  1.000000  1.000000  1.000000  1.000000 ScalE2=  1.000000  1.000000
 IRadAn=      5 IRanWt=     -1 IRanGd=            0 ICorTp=0 IEmpDi=121
  HFx wShort=  0.000000 wLong=  0.200000 cFull=  0.222036 cShort=  0.000000 cLong=  0.777964
  DFx wShort=  0.000000 wLong=  0.200000 cFull=  0.000000 cShort=  0.000000 cLong=  1.000000
 NAtoms=   26 NActive=   26 NUniq=   26 SFac= 1.00D+00 NAtFMM=   60 NAOKFM=F Big=F
 Integral buffers will be    131072 words long.
 Raffenetti 2 integral format.
 Two-electron integral symmetry is turned on.
 R6Disp:  Grimme-D2 Dispersion energy=       -0.0169415126 Hartrees.
 Nuclear repulsion after empirical dispersion term =      956.7748469050 Hartrees.
 Leave Link  301 at Thu Sep 28 14:53:39 2023, MaxMem=  6291456000 cpu:         0.4
 (Enter /home/minenky/programs//g09/l302.exe)
 NPDir=0 NMtPBC=     1 NCelOv=     1 NCel=       1 NClECP=     1 NCelD=      1
         NCelK=      1 NCelE2=     1 NClLst=     1 CellRange=     0.0.
[...]
 91324,-0.00000002,0.,0.00035418,0.,0.,0.00009533,0.,0.,-0.00047072,0.,
 0.,0.00061862,-0.00000020,0.00000014,-0.06292206,0.00000002,0.00000002
 ,-0.00471317,0.00000005,-0.00000047,0.13568675,0.00079045,-0.00136006,
 0.,-0.00129766,-0.00041806,0.,-0.00068623,0.00086564,0.,-0.00007071,-0
 .00076629,0.,-0.01809745,-0.03174677,0.00000002,-0.00420034,0.00063914
 ,0.,0.00243563,0.00047389,0.,0.00282691,0.00604822,0.00000002,0.000092
 31,0.00019717,0.,-0.00019318,-0.00091863,0.,-0.00034378,-0.00017546,0.
 ,-0.06504853,0.02550478,-0.00000005,0.03789429,0.02910565,0.,-0.279263
 39,-0.12588709,0.00000020,0.72762206,-0.00019178,-0.00024700,0.,-0.000
 61236,0.00083866,0.,0.00007967,0.00000449,0.,0.00226886,-0.00321359,-0
 .00000002,-0.03579281,-0.05779739,0.00000008,-0.00357629,0.00103148,0.
 ,0.00371215,-0.00028396,0.,0.00845985,0.00037628,0.00000002,-0.0008337
 9,-0.00059312,0.,-0.00072848,-0.00001370,0.,-0.00040477,-0.00039517,0.
 ,-0.02936256,0.07085005,-0.00000006,0.08622406,-0.02683021,0.00000005,
 -0.05146818,-0.18588649,0.00000012,-0.03777089,0.68640005,0.,0.,0.0000
 2934,0.,0.,0.00012196,0.,0.,0.00000985,0.,0.,-0.00100135,0.00000004,0.
 00000006,-0.00638197,0.,0.,-0.00022955,0.,0.,-0.00019391,-0.00000002,0
 .,0.00730794,0.,0.,0.00007626,0.,0.,-0.00024317,0.,0.,-0.00027317,0.00
 000003,-0.00000006,0.00711285,-0.00000010,0.00000005,0.00650628,0.0000
 0015,0.00000016,-0.06138428,-0.00000009,-0.00000063,0.13473661,-0.0003
 4378,0.00017546,0.,-0.00019318,0.00091863,0.,0.00009231,-0.00019717,0.
 ,0.00282691,-0.00604822,-0.00000002,-0.06504853,-0.02550476,0.00000004
 ,-0.00420034,-0.00063914,0.,0.00243563,-0.00047389,0.,-0.00007071,0.00
 076629,0.00000001,-0.00068623,-0.00086564,0.,-0.00129766,0.00041806,0.
 ,0.00079045,0.00136006,0.,-0.01809744,0.03174676,-0.00000003,-0.279263
 37,0.12588710,-0.00000023,0.03789427,-0.02910566,0.,-0.13362700,-0.038
 15961,0.00000005,0.72762207,0.00040477,-0.00039517,0.,0.00072847,-0.00
 001370,0.,0.00083379,-0.00059312,0.,-0.00845985,0.00037628,0.00000002,
 0.02936258,0.07085005,-0.00000005,0.00357629,0.00103148,0.,-0.00371215
 ,-0.00028396,0.,-0.00226886,-0.00321359,-0.00000002,-0.00007967,0.0000
 0449,0.,0.00061236,0.00083866,0.,0.00019178,-0.00024700,0.,0.03579280,
 -0.05779741,0.00000008,0.05146819,-0.18588651,0.00000012,-0.08622407,-
 0.02683019,0.00000004,0.03815958,-0.33467190,0.00000032,0.03777088,0.6
 8640004,0.,0.,-0.00027317,0.,0.,-0.00024317,0.,0.,0.00007626,0.0000000
 1,0.,0.00730794,-0.00000004,-0.00000006,0.00711285,0.,0.,-0.00022955,0
 .,0.,-0.00019391,0.,0.,-0.00100135,0.,0.,0.00000985,0.,0.,0.00012196,0
 .,0.,0.00002934,-0.00000004,0.00000006,-0.00638197,-0.00000018,0.00000
 018,-0.06138428,0.00000010,0.00000005,0.00650628,-0.00000006,0.0000003
 2,-0.06289885,0.00000016,-0.00000063,0.13473661,-0.13416280,-0.1221097
 7,0.,-0.01028503,-0.02822716,0.,-0.00532896,0.00160743,0.,0.01361820,0
 .01234729,0.,-0.00009386,-0.00066398,0.,-0.00116987,0.00315802,0.,-0.0
 0032137,0.00103917,0.,0.00062029,0.00027945,0.,0.00009723,-0.00039700,
 0.,-0.00028492,0.00013118,0.,0.00009758,0.00028106,0.,0.00020580,-0.00
 008033,0.,0.00046250,0.00031888,0.,-0.00004509,-0.00007403,0.,0.000055
 43,-0.00003009,0.,-0.00010515,-0.00013027,0.,0.13671933,-0.12330082,-0
 .26722672,0.,0.00303061,0.00447435,0.,0.00089771,0.00151157,0.,-0.0181
 9130,-0.01869053,0.,-0.00037691,0.00137307,0.,0.00417240,-0.00295567,0
 .,0.00068213,-0.00015090,0.,-0.00154210,-0.00069427,0.,-0.00007637,0.0
 0018162,0.,0.00014542,-0.00000805,0.,0.00041954,-0.00042890,0.,0.00011
 395,-0.00025694,0.,0.00017119,-0.00059994,0.,-0.00019942,0.00010747,0.
 ,0.00007372,0.00021577,0.,0.00037704,0.00012843,0.,0.13347269,0.282258
 50,0.00000003,0.,-0.03823257,-0.00000001,0.,0.00230372,0.,0.,0.0060813
 8,-0.00000002,0.,0.00376134,0.,0.,-0.00427054,0.,-0.00000002,0.0099048
 5,0.,0.,-0.00100867,0.,0.,0.00012975,0.,0.,-0.00108054,0.,0.,0.0002583
 2,0.,0.,-0.00075328,0.,0.,0.00012490,0.,0.,-0.00009427,0.,0.,0.0001783
 8,0.,0.,-0.00002827,0.,0.,0.00005789,0.,0.00000001,0.02507639,-0.00950
 596,0.02904941,0.,-0.11839267,0.11497448,0.00000001,0.01149713,-0.0174
 2552,0.,-0.00619588,-0.00053916,0.,0.00050055,0.00112903,0.,-0.0005456
 9,-0.00111623,0.,-0.00180838,-0.00355593,0.,-0.00007719,0.00037787,0.,
 0.00073897,-0.00014374,0.,0.00016154,-0.00034902,0.,-0.00028416,-0.000
 16502,0.,-0.00052588,0.00008264,0.,-0.00002336,0.00012176,0.,0.0000825
 9,0.00012998,0.,-0.00005047,0.00002645,0.,-0.00000896,-0.00002967,0.,0
 .00086200,-0.00040882,0.,0.12279622,-0.00226572,0.00276454,0.,0.114247
 11,-0.28257518,-0.00000005,0.01466225,-0.01916661,0.,-0.00028650,0.001
 51315,0.,-0.00022537,0.00015488,0.,-0.00074950,0.00017869,0.,-0.004012
 60,-0.00277907,0.,0.00007273,0.00022834,0.,0.00111263,-0.00031569,0.,-
 0.00013183,-0.00048667,0.,-0.00023620,-0.00004627,0.,-0.00004491,-0.00
 003545,0.,0.00005765,-0.00004161,0.,0.00005027,0.00001915,0.,-0.000001
 13,-0.00003080,0.,0.00000262,0.00003206,0.,0.00042839,0.00071267,0.,-0
 .12236708,0.29918323,0.,0.00000001,0.00204709,0.00000001,-0.00000005,-
 0.03669154,0.,-0.00000002,0.00310561,0.,0.,0.00562217,0.,0.,0.00036738
 ,0.,0.,-0.00097397,0.,0.,0.00924506,0.,0.,-0.00049978,0.,0.,0.00028259
 ,0.,0.,-0.00063370,0.,0.,0.00012313,0.,0.,-0.00016731,0.,0.,0.00000297
 ,0.,0.,-0.00007157,0.,0.,-0.00001322,0.,0.,-0.00003321,0.,0.,-0.002779
 19,-0.00000001,0.00000006,0.02593387,0.00028272,-0.00303168,0.,-0.0128
 0206,0.00427541,0.,-0.33856753,0.01889779,-0.00000004,0.00068659,-0.00
 015767,0.,-0.00013027,-0.00000861,0.,0.00066320,0.00295076,0.,-0.01023
 769,-0.00180876,0.,-0.00030259,-0.00080574,0.,0.00104363,-0.00084538,0
 .,-0.00016637,0.00029357,0.,0.00022742,0.00015057,0.,-0.00020364,0.000
 23051,0.,0.00004662,0.00001047,0.,0.00002559,-0.00006623,0.,-0.0000541
 7,-0.00003800,0.,-0.00005192,0.00004046,0.,-0.00070581,0.00017986,0.,0
 .00083054,-0.00035821,0.,0.35936698,-0.00237347,-0.00401344,0.,-0.0276
 7054,0.00591795,0.,0.02067618,-0.06155294,0.,-0.00014610,-0.00117215,0
 .,0.00018962,0.00010940,0.,0.00174823,-0.00527372,0.,0.02858832,0.0037
 9218,0.,0.00115567,0.00048683,0.,0.00057560,0.00167889,0.,-0.00050475,
 0.00013811,0.,0.00027445,0.00023456,0.,0.00029887,-0.00045052,0.,-0.00
 010435,-0.00001944,0.,-0.00002392,0.00013432,0.,0.00007755,0.00007004,
 0.,0.00008491,-0.00006871,0.,-0.00129280,0.00006655,0.,0.00024690,0.00
 083153,0.,-0.02088884,0.05940721,0.,-0.00000001,0.00883576,-0.00000003
 ,0.,0.00331123,-0.00000004,0.,-0.03580932,0.,0.,-0.00120563,0.,0.,-0.0
 0093635,0.,0.,0.00531333,0.00000001,0.,0.00260032,0.,0.,0.00047599,0.,
 0.,-0.00267699,0.,0.,-0.00017150,0.,0.,-0.00007504,0.,0.,0.00033767,0.
 ,0.,0.00004946,0.,0.,-0.00030816,0.,0.,-0.00003158,0.,0.,-0.00002406,0
 .,0.,-0.00003415,0.,0.,-0.00511947,0.00000004,0.00000002,0.02487800,0.
 00022742,-0.00015057,0.,-0.00016637,-0.00029357,0.,0.00104363,0.000845
 38,0.,-0.00030259,0.00080574,0.,-0.00020364,-0.00023051,0.,0.00066320,
 -0.00295076,0.,-0.01023769,0.00180876,0.,0.00068659,0.00015767,0.,-0.3
 3856754,-0.01889774,0.,-0.01280206,-0.00427541,0.,0.00028272,0.0030316
 8,0.,-0.00013027,0.00000861,0.,0.00002559,0.00006623,0.,0.00004662,-0.
 00001047,0.,-0.00005192,-0.00004046,0.,-0.00005417,0.00003800,0.,0.000
 01834,-0.00004142,0.,-0.00001531,-0.00005274,0.,0.00004965,-0.00088005
 ,0.,0.35936698,-0.00027445,0.00023456,0.,0.00050475,0.00013811,0.,-0.0
 0057560,0.00167889,0.,-0.00115567,0.00048683,0.,-0.00029887,-0.0004505
 2,0.,-0.00174823,-0.00527372,0.,-0.02858832,0.00379218,0.,0.00014610,-
 0.00117215,0.,-0.02067614,-0.06155294,-0.00000001,0.02767054,0.0059179
 5,0.,0.00237347,-0.00401344,0.,-0.00018962,0.00010940,0.,0.00002392,0.
 00013432,0.,0.00010435,-0.00001944,0.,-0.00008491,-0.00006871,0.,-0.00
 007755,0.00007004,0.,0.00005968,-0.00003648,0.,0.00001190,-0.00001308,
 0.,0.00088005,-0.00029359,0.,0.02088879,0.05940720,0.,0.,-0.00007504,0
 .,0.,-0.00017150,0.,0.,-0.00267699,0.,0.,0.00047599,0.,0.,0.00033767,0
 .,0.,0.00531333,-0.00000001,0.,0.00260032,0.,0.,-0.00120563,0.,0.,-0.0
 3580932,0.00000003,0.,0.00331123,0.,-0.00000001,0.00883576,0.,0.,-0.00
 093635,0.,0.,-0.00030816,0.,0.,0.00004946,0.,0.,-0.00002406,0.,0.,-0.0
 0003158,0.,0.,0.00006642,0.,0.,0.00015051,0.,0.,0.00024237,0.,0.000000
 02,0.02487800,-0.00028416,0.00016502,0.,0.00016154,0.00034902,0.,0.000
 73897,0.00014374,0.,-0.00007719,-0.00037787,0.,-0.00052588,-0.00008264
 ,0.,-0.00054569,0.00111623,0.,-0.00180838,0.00355593,0.,-0.00619588,0.
 00053916,0.,0.01149713,0.01742551,0.,-0.11839271,-0.11497450,-0.000000
 02,-0.00950597,-0.02904941,-0.00000001,0.00050055,-0.00112903,0.,0.000
 08259,-0.00012998,0.,-0.00002336,-0.00012176,0.,-0.00000896,0.00002967
 ,0.,-0.00005047,-0.00002645,0.,0.00000159,-0.00000742,0.,0.00005762,0.
 00007390,0.,-0.00001531,-0.00001190,0.,0.00083054,-0.00024690,0.,0.122
 79625,0.00023620,-0.00004627,0.,0.00013183,-0.00048667,0.,-0.00111263,
 -0.00031569,0.,-0.00007273,0.00022834,0.,0.00004491,-0.00003545,0.,0.0
 0074950,0.00017869,0.,0.00401260,-0.00277907,0.,0.00028650,0.00151315,
 0.,-0.01466226,-0.01916661,-0.00000001,-0.11424714,-0.28257515,-0.0000
 0007,0.00226573,0.00276454,0.,0.00022537,0.00015488,0.,-0.00005027,0.0
 0001915,0.,-0.00005765,-0.00004161,0.,-0.00000262,0.00003206,0.,0.0000
 0113,-0.00003080,0.,-0.00001362,-0.00001739,0.,-0.00007390,-0.00011042
 ,0.,0.00005274,-0.00001308,0.,0.00035821,0.00083153,0.,0.12236711,0.29
 918320,0.,0.,0.00012313,0.,0.,-0.00063370,0.,0.,0.00028259,0.,0.,-0.00
 049978,0.,0.,-0.00016731,0.,0.,-0.00097397,0.,0.,0.00924506,0.,0.,0.00
 562217,0.,-0.00000001,0.00310561,-0.00000002,-0.00000007,-0.03669154,0
 .,0.,0.00204709,0.,0.,0.00036738,0.,0.,-0.00007157,0.,0.,0.00000297,0.
 ,0.,-0.00003321,0.,0.,-0.00001322,0.,0.,0.00007678,0.,0.,-0.00005445,0
 .,0.,0.00015051,0.,0.,-0.00511947,0.00000002,0.00000008,0.02593387,0.0
 0009758,-0.00028106,0.,-0.00028492,-0.00013118,0.,0.00009723,0.0003970
 0,0.,0.00062030,-0.00027945,0.,0.00020580,0.00008033,0.,-0.00116987,-0
 .00315802,0.,-0.00032137,-0.00103917,0.,0.01361821,-0.01234729,0.,-0.0
 0532896,-0.00160743,0.,-0.01028502,0.02822716,0.,-0.13416276,0.1221097
 5,0.,-0.00009386,0.00066398,0.,-0.00004509,0.00007403,0.,0.00046250,-0
 .00031888,0.,-0.00010515,0.00013027,0.,0.00005543,0.00003009,0.,0.0000
 4286,-0.00007620,0.,0.00000159,0.00001362,0.,0.00001834,-0.00005968,0.
 ,-0.00070581,0.00129280,0.,0.00086200,-0.00042839,0.,0.13671929,-0.000
 41954,-0.00042890,0.,-0.00014542,-0.00000805,0.,0.00007637,0.00018162,
 0.,0.00154210,-0.00069427,0.,-0.00011395,-0.00025694,0.,-0.00417240,-0
 .00295567,0.,-0.00068213,-0.00015090,0.,0.01819129,-0.01869053,0.,-0.0
 0089771,0.00151157,0.,-0.00303060,0.00447434,0.,0.12330080,-0.26722676
 ,0.,0.00037691,0.00137307,0.,0.00019942,0.00010747,0.,-0.00017119,-0.0
 0059994,0.,-0.00037704,0.00012843,0.,-0.00007372,0.00021577,0.,0.00007
 620,-0.00015644,0.,0.00000742,-0.00001739,0.,0.00004142,-0.00003648,0.
 ,-0.00017986,0.00006655,0.,0.00040882,0.00071267,0.,-0.13347267,0.2822
 5854,0.,0.,-0.00075328,0.,0.,0.00025832,0.,0.,-0.00108054,0.,0.,0.0001
 2975,0.,0.,0.00012490,0.,-0.00000002,0.00990485,0.,0.,-0.00100867,0.00
 000003,0.,0.00376134,0.,0.,0.00608138,0.00000001,0.,0.00230372,-0.0000
 0003,0.,-0.03823257,0.,0.,-0.00427054,0.,0.,0.00017838,0.,0.,-0.000094
 27,0.,0.,0.00005789,0.,0.,-0.00002827,0.,0.,-0.00012267,0.,0.,0.000076
 78,0.,0.,0.00006642,0.,0.,-0.00003415,0.,0.,-0.00277919,0.,0.00000001,
 0.02507639,-0.00009951,-0.00050715,0.,-0.00007643,0.00028173,0.,0.0001
 0675,0.00002116,0.,0.00083939,0.00081800,0.,0.00646563,-0.02842052,0.0
 0000002,0.00015978,-0.00015190,0.,0.00001607,0.00006741,0.,0.00020776,
 -0.00152201,0.,-0.00005707,-0.00004335,0.,-0.00001425,-0.00004445,0.,-
 0.00040001,0.00013763,0.,-0.00416154,-0.00192516,0.,-0.06109074,-0.003
 64711,0.,-0.00141073,-0.00007679,0.,-0.00446274,0.00250074,0.,0.005604
 17,0.02808999,-0.00000002,-0.00032585,0.00045256,0.,-0.00000362,-0.000
 00932,0.,0.00002020,0.00003512,0.,0.00000523,0.00001053,0.,-0.00004891
 ,0.00000156,0.,0.00001236,0.00000955,0.,0.05764635,-0.00056733,0.00004
 436,0.,-0.00008638,0.00018958,0.,0.00002938,0.00005660,0.,0.00080051,0
 .00038746,0.,0.00220845,-0.01217913,0.00000001,-0.00029422,-0.00016071
 ,0.,0.00012170,-0.00001901,0.,0.00030919,-0.00082033,0.,-0.00008508,-0
 .00007458,0.,-0.00005530,0.00000507,0.,-0.00020632,0.00014794,0.,-0.00
 254064,0.00103266,0.,-0.00236036,-0.33965859,0.00000012,-0.00023528,0.
 00058061,0.,0.00321758,0.00075408,0.,-0.00330567,-0.01150481,0.,-0.000
 14075,0.00017451,0.,-0.00003445,0.00000660,0.,-0.00000221,0.00001414,0
 .,-0.00000929,0.00000180,0.,-0.00003758,-0.00000525,0.,0.00001727,0.00
 000500,0.,0.00309054,0.36098984,0.,0.,-0.00025042,0.,0.,0.00005130,0.,
 0.,-0.00007354,0.,0.,-0.00351424,-0.00000001,0.00000001,0.00299226,0.,
 0.,-0.00011883,0.,0.,0.00017476,0.,0.,0.00023330,0.,0.,-0.00003836,0.,
 0.,-0.00007014,0.,0.,-0.00022166,0.00000001,0.00000001,0.00796115,0.00
 000002,0.00000008,-0.03721349,0.,0.,-0.00085035,-0.00000001,0.,0.00768
 008,0.,0.00000004,0.00273705,0.,0.,0.00035072,0.,0.,0.00003614,0.,0.,0
 .00003250,0.,0.,0.00001846,0.,0.,0.00003408,0.,0.,0.00002412,0.,-0.000
 00013,0.02519062,-0.00040001,-0.00013763,0.,-0.00001425,0.00004445,0.,
 -0.00005707,0.00004335,0.,0.00020776,0.00152201,0.,-0.00416154,0.00192
 516,0.,0.00015978,0.00015190,0.,0.00001607,-0.00006741,0.,0.00083939,-
 0.00081800,0.,0.00010675,-0.00002116,0.,-0.00007643,-0.00028173,0.,-0.
 00009951,0.00050715,0.,0.00646563,0.02842052,-0.00000002,-0.00141072,0
 .00007679,0.,-0.06109074,0.00364707,0.,0.00560416,-0.02808999,0.000000
 02,-0.00446274,-0.00250074,0.,0.00001236,-0.00000955,0.,-0.00004891,-0
 .00000156,0.,0.00000523,-0.00001053,0.,0.00002020,-0.00003512,0.,-0.00
 000362,0.00000932,0.,-0.00032585,-0.00045256,0.,0.00014733,0.00002335,
 0.,0.05764635,0.00020632,0.00014794,0.,0.00005530,0.00000507,0.,0.0000
 8508,-0.00007458,0.,-0.00030919,-0.00082033,0.,0.00254064,0.00103266,0
 .,0.00029422,-0.00016071,0.,-0.00012170,-0.00001901,0.,-0.00080051,0.0
 0038746,0.,-0.00002938,0.00005660,0.,0.00008638,0.00018958,0.,0.000567
 33,0.00004436,0.,-0.00220845,-0.01217914,0.00000001,0.00023528,0.00058
 061,0.,0.00236031,-0.33965859,0.00000012,0.00330567,-0.01150481,0.,-0.
 00321758,0.00075408,0.,-0.00001727,0.00000500,0.,0.00003758,-0.0000052
 5,0.,0.00000929,0.00000180,0.,0.00000221,0.00001414,0.,0.00003445,0.00
 000660,0.,0.00014075,0.00017451,0.,-0.00002335,-0.00008654,0.,-0.00309
 049,0.36098984,0.,0.,-0.00022166,0.,0.,-0.00007014,0.,0.,-0.00003836,0
 .,0.,0.00023330,-0.00000001,0.00000001,0.00796115,0.,0.,-0.00011883,0.
 ,0.,0.00017476,0.,0.,-0.00351424,0.,0.,-0.00007354,0.,0.,0.00005130,0.
 ,0.,-0.00025042,0.00000001,0.00000002,0.00299227,0.,0.,-0.00085035,-0.
 00000002,0.00000008,-0.03721349,0.,0.00000003,0.00273705,0.00000001,0.
 ,0.00768008,0.,0.,0.00002412,0.,0.,0.00003408,0.,0.,0.00001846,0.,0.,0
 .00003250,0.,0.,0.00003614,0.,0.,0.00035072,0.,0.,-0.00133575,0.,-0.00
 000014,0.02519062,-0.00002642,0.00002138,0.,0.00000933,0.00003263,0.,-
 0.00002774,-0.00003365,0.,0.00001830,0.00001074,0.,0.00018493,-0.00090
 781,0.,-0.00048171,-0.00020678,0.,0.00002914,0.00012665,0.,-0.00017617
 ,0.00106916,0.,-0.00005457,-0.00004145,0.,-0.00002495,-0.00001205,0.,-
 0.00006497,0.00009352,0.,-0.00323470,-0.00393946,0.,0.00162286,-0.0004
 6528,0.,-0.01828980,0.01600285,-0.00000001,-0.27341002,0.12111110,-0.0
 0000007,0.00365048,-0.00255726,0.,0.00000241,0.00001107,0.,-0.00000709
 ,0.00000965,0.,-0.00001749,0.00001466,0.,-0.00001186,-0.00000085,0.,-0
 .00003521,-0.00001185,0.,0.00001275,-0.00003045,0.,0.00004538,-0.00016
 800,0.,0.00087501,-0.00031092,0.,0.28864808,-0.00000223,-0.00003390,0.
 ,-0.00002808,0.00003639,0.,-0.00000819,-0.00000411,0.,0.00003166,0.000
 06217,0.,-0.00113007,-0.00095240,0.,-0.00022575,-0.00011930,0.,0.00005
 086,0.00008560,0.,-0.00036514,0.00067703,0.,0.00000024,0.00000305,0.,-
 0.00000686,-0.00004041,0.,-0.00001416,0.00004641,0.,-0.00354978,-0.000
 92626,0.,-0.00087679,-0.00563925,0.00000001,-0.01541913,0.01169535,0.,
 0.12108870,-0.12909222,0.00000007,0.02924836,-0.01007232,0.00000001,-0
 .00002769,0.00003804,0.,0.00000422,-0.00000261,0.,-0.00000096,0.000011
 54,0.,0.00000062,-0.00000096,0.,-0.00000891,0.00000126,0.,-0.00000530,
 -0.00002531,0.,0.00135559,-0.00068130,0.,0.00050098,0.00080000,0.,-0.1
 3021489,0.13331425,0.,0.,0.00003837,0.,0.,-0.00004471,0.,0.,0.00000194
 ,0.,0.,-0.00068199,0.,0.,-0.00102920,0.,0.,-0.00017472,0.,0.,-0.000246
 57,0.,0.,0.00055875,0.,0.,-0.00001336,0.,0.,0.00003904,0.,0.,0.0000064
 1,0.,0.00000002,0.00730783,0.00000002,0.00000001,0.00741306,0.00000004
 ,-0.00000001,0.00253798,-0.00000008,0.00000005,-0.03612198,-0.00000004
 ,0.00000004,0.00248247,0.,0.,0.00003652,0.,0.,0.00000950,0.,0.,0.00007
 879,0.,0.,0.00000144,0.,0.,0.00000054,0.,0.,-0.00002733,0.,0.,0.000064
 68,0.,0.,-0.00389442,0.00000007,-0.00000009,0.02564517,-0.00006497,-0.
 00009352,0.,-0.00002495,0.00001205,0.,-0.00005457,0.00004145,0.,-0.000
 17617,-0.00106916,0.,-0.00323469,0.00393946,0.,-0.00048171,0.00020678,
 0.,0.00002914,-0.00012665,0.,0.00001830,-0.00001074,0.,-0.00002774,0.0
 0003365,0.,0.00000933,-0.00003263,0.,-0.00002642,-0.00002138,0.,0.0001
 8493,0.00090781,0.,-0.01828980,-0.01600284,0.00000001,0.00162286,0.000
 46528,0.,0.00365047,0.00255726,0.,-0.27341006,-0.12111108,0.00000004,0
 .00001275,0.00003045,0.,-0.00003521,0.00001185,0.,-0.00001186,0.000000
 85,0.,-0.00001749,-0.00001466,0.,-0.00000709,-0.00000965,0.,0.00000241
 ,-0.00001107,0.,0.00087501,0.00031092,0.,0.00004538,0.00016800,0.,0.00
 076404,-0.00039728,0.,0.28864812,0.00001416,0.00004641,0.,0.00000686,-
 0.00004041,0.,-0.00000024,0.00000305,0.,0.00036514,0.00067703,0.,0.003
 54978,-0.00092626,0.,0.00022575,-0.00011930,0.,-0.00005086,0.00008560,
 0.,-0.00003166,0.00006217,0.,0.00000819,-0.00000411,0.,0.00002808,0.00
 003639,0.,0.00000223,-0.00003390,0.,0.00113007,-0.00095240,0.,0.015419
 14,0.01169535,0.,0.00087679,-0.00563925,0.00000001,-0.02924836,-0.0100
 7231,0.00000001,-0.12108868,-0.12909219,0.00000006,0.00000530,-0.00002
 531,0.,0.00000891,0.00000126,0.,-0.00000062,-0.00000096,0.,0.00000096,
 0.00001154,0.,-0.00000422,-0.00000261,0.,0.00002769,0.00003804,0.,-0.0
 0050098,0.00080000,0.,-0.00135559,-0.00068130,0.,0.00039728,0.00081927
 ,0.,0.13021487,0.13331421,0.,0.,0.00000641,0.,0.,0.00003904,0.,0.,-0.0
 0001336,0.,0.,0.00055875,0.,0.00000002,0.00730783,0.,0.,-0.00017471,0.
 ,0.,-0.00024657,0.,0.,-0.00068199,0.,0.,0.00000194,0.,0.,-0.00004471,0
 .,0.,0.00003837,0.,0.,-0.00102920,-0.00000004,-0.00000001,0.00253798,-
 0.00000002,0.00000001,0.00741306,0.00000004,0.00000004,0.00248247,0.00
 000005,0.00000004,-0.03612198,0.,0.,-0.00002733,0.,0.,0.00000054,0.,0.
 ,0.00000144,0.,0.,0.00007879,0.,0.,0.00000950,0.,0.,0.00003652,0.,0.,-
 0.00389442,0.,0.,0.00006468,0.,0.,-0.00398823,-0.00000004,-0.00000007,
 0.02564517\\-0.00000359,0.00000059,-0.00000011,0.00000290,0.00000151,0
 .00000005,0.00000030,-0.00000096,-0.00000002,0.00000175,-0.00000005,-0
 .00000021,-0.00000181,0.00000183,0.00000038,-0.00000105,0.,0.,0.000000
 34,0.,0.,0.00000175,0.00000004,0.00000020,0.00000030,0.00000096,0.0000
 0002,0.00000290,-0.00000151,-0.00000005,-0.00000359,-0.00000059,0.0000
 0011,-0.00000181,-0.00000183,-0.00000038,0.00000209,-0.00000162,0.0000
 0011,0.00000209,0.00000162,-0.00000011,-0.00000141,-0.00000226,0.00000
 004,-0.00000141,0.00000226,-0.00000004,0.00000100,0.00000007,0.0000000
 2,-0.00000061,-0.00000032,0.00000002,0.00000025,0.00000050,0.,0.000000
 25,-0.00000050,0.,-0.00000061,0.00000032,-0.00000002,0.00000100,-0.000
 00007,-0.00000002,-0.00000050,0.00000036,-0.00000004,-0.00000050,-0.00
 000036,0.00000004,0.,0.00000016,0.00000002,0.,-0.00000016,-0.00000002\
 \\@


 WHEN HAVING A MEETING OF THE MINDS,
 MAKE SURE YOU HAVE THE EQUIPMENT FOR IT.
 Job cpu time:       0 days 14 hours  4 minutes 37.5 seconds.
 File lengths (MBytes):  RWF=    706 Int=      0 D2E=      0 Chk=     23 Scr=      1
 Normal termination of Gaussian 09 at Thu Sep 28 16:22:09 2023.
