 Entering Gaussian System, Link 0=g09
 Initial command:
 /home/minenky/programs//g09/l1.exe "/local/scratch/minenky/m1_00_313-71-3-C32H18_wB97XD/Gau-208116.inp" -scrdir="/local/scratch/minenky/m1_00_313-71-3-C32H18_wB97XD/"
 Entering Link 1 = /home/minenky/programs//g09/l1.exe PID=    208117.
  
 Copyright (c) 1988,1990,1992,1993,1995,1998,2003,2009,2013,
            Gaussian, Inc.  All Rights Reserved.
  
 This is part of the Gaussian(R) 09 program.  It is based on
 the Gaussian(R) 03 system (copyright 2003, Gaussian, Inc.),
 the Gaussian(R) 98 system (copyright 1998, Gaussian, Inc.),
 the Gaussian(R) 94 system (copyright 1995, Gaussian, Inc.),
 the Gaussian 92(TM) system (copyright 1992, Gaussian, Inc.),
 the Gaussian 90(TM) system (copyright 1990, Gaussian, Inc.),
 the Gaussian 88(TM) system (copyright 1988, Gaussian, Inc.),
 the Gaussian 86(TM) system (copyright 1986, Carnegie Mellon
 University), and the Gaussian 82(TM) system (copyright 1983,
 Carnegie Mellon University). Gaussian is a federally registered
 trademark of Gaussian, Inc.
  
 This software contains proprietary and confidential information,
 including trade secrets, belonging to Gaussian, Inc.
  
 This software is provided under written license and may be
 used, copied, transmitted, or stored only in accord with that
 written license.
  
 The following legend is applicable only to US Government
 contracts under FAR:
  
                    RESTRICTED RIGHTS LEGEND
  
 Use, reproduction and disclosure by the US Government is
 subject to restrictions as set forth in subparagraphs (a)
 and (c) of the Commercial Computer Software - Restricted
 Rights clause in FAR 52.227-19.
  
 Gaussian, Inc.
 340 Quinnipiac St., Bldg. 40, Wallingford CT 06492
  
  
 ---------------------------------------------------------------
 Warning -- This program may not be used in any manner that
 competes with the business of Gaussian, Inc. or will provide
 assistance to any competitor of Gaussian, Inc.  The licensee
 of this program is prohibited from giving any competitor of
 Gaussian, Inc. access to this program.  By using this program,
 the user acknowledges that Gaussian, Inc. is engaged in the
 business of creating and licensing software in the field of
 computational chemistry and represents and warrants to the
 licensee that it is not a competitor of Gaussian, Inc. and that
 it will not use this program in any manner prohibited above.
 ---------------------------------------------------------------
  

 Cite this work as:
 Gaussian 09, Revision D.01,
 M. J. Frisch, G. W. Trucks, H. B. Schlegel, G. E. Scuseria, 
 M. A. Robb, J. R. Cheeseman, G. Scalmani, V. Barone, B. Mennucci, 
 G. A. Petersson, H. Nakatsuji, M. Caricato, X. Li, H. P. Hratchian, 
 A. F. Izmaylov, J. Bloino, G. Zheng, J. L. Sonnenberg, M. Hada, 
 M. Ehara, K. Toyota, R. Fukuda, J. Hasegawa, M. Ishida, T. Nakajima, 
 Y. Honda, O. Kitao, H. Nakai, T. Vreven, J. A. Montgomery, Jr., 
 J. E. Peralta, F. Ogliaro, M. Bearpark, J. J. Heyd, E. Brothers, 
 K. N. Kudin, V. N. Staroverov, T. Keith, R. Kobayashi, J. Normand, 
 K. Raghavachari, A. Rendell, J. C. Burant, S. S. Iyengar, J. Tomasi, 
 M. Cossi, N. Rega, J. M. Millam, M. Klene, J. E. Knox, J. B. Cross, 
 V. Bakken, C. Adamo, J. Jaramillo, R. Gomperts, R. E. Stratmann, 
 O. Yazyev, A. J. Austin, R. Cammi, C. Pomelli, J. W. Ochterski, 
 R. L. Martin, K. Morokuma, V. G. Zakrzewski, G. A. Voth, 
 P. Salvador, J. J. Dannenberg, S. Dapprich, A. D. Daniels, 
 O. Farkas, J. B. Foresman, J. V. Ortiz, J. Cioslowski, 
 and D. J. Fox, Gaussian, Inc., Wallingford CT, 2013.
 
 ******************************************
 Gaussian 09:  AM64L-G09RevD.01 24-Apr-2013
                27-Jul-2019 
 ******************************************
 %Mem=32000MB
 %NProcShared=16
 Will use up to   16 processors via shared memory.
 %Chk=m1_00_313-71-3-C32H18_wB97XD
 ----------------------------------------------------------------------
 #P wB97XD/def2tzvp opt=(tight) freq integral(Grid=ultrafine) # SCF(Max
 Cycle=380) 5d 7f GFPrint
 ----------------------------------------------------------------------
 1/7=10,14=-1,18=20,19=15,26=4,38=1/1,3;
 2/9=110,12=2,17=6,18=5,40=1/2;
 3/5=44,7=101,8=11,11=2,16=1,24=100,25=1,30=1,71=1,74=-58,75=-5/1,2,3;
 4//1;
 5/5=2,7=380,38=5/2;
 6/7=2,8=2,9=2,10=2,28=1/1;
 7//1,2,3,16;
 1/7=10,14=-1,18=20,19=15,26=4/3(2);
 2/9=110/2;
 99//99;
 2/9=110/2;
 3/5=44,7=101,8=11,11=2,16=1,25=1,30=1,71=1,74=-58,75=-5/1,2,3;
 4/5=5,16=3,69=1/1;
 5/5=2,7=380,38=5/2;
 7//1,2,3,16;
 1/7=10,14=-1,18=20,19=15,26=4/3(-5);
 2/9=110/2;
 6/7=2,8=2,9=2,10=2,19=2,28=1/1;
 99/9=1/99;
 Leave Link    1 at Sat Jul 27 14:44:14 2019, MaxMem=  4194304000 cpu:         1.6
 (Enter /home/minenky/programs//g09/l101.exe)
 ---------------------------------------
 The PBEPBE optimization and frequencies
 ---------------------------------------
 Symbolic Z-matrix:
 Charge =  0 Multiplicity = 1
 C                     12.1676  -17.0417   4.5679 
 C                     13.5047  -17.1439   4.3512 
 C                     14.3114  -15.9781   4.1288 
 C                     13.6999  -14.6871   4.1355 
 C                     12.2809  -14.5786   4.3672 
 C                     11.514   -15.7643   4.5832 
 C                     11.635   -13.3082   4.3834 
 C                     12.4307  -12.0878   4.1604 
 C                     13.8622  -12.1978   3.9204 
 C                     14.4981  -13.5274   3.9133 
 C                     14.5903  -11.0443   3.7053 
 C                     14.0108  -9.747     3.7103 
 C                     12.5892  -9.6374    3.9548 
 C                     11.8536  -10.8334   4.1713 
 C                     11.9923  -8.3752    3.9688 
 C                     12.7377  -7.2015    3.7495 
 C                     14.1671  -7.3119    3.5017 
 C                     14.7591  -8.5889    3.4907 
 C                     14.9115  -6.133     3.281 
 C                     14.3185  -4.8741    3.2943 
 C                     12.8912  -4.7638    3.5424 
 C                     12.1472  -5.9193    3.761 
 C                     12.2985  -3.4576    3.5525 
 C                     13.0535  -2.3395    3.3343 
 C                     14.4597  -2.4482    3.0899 
 C                     15.0681  -3.6717    3.0709 
 C                     10.2547  -13.2679   4.6112 
 C                     9.5086   -14.4309   4.8211 
 C                     10.1283  -15.6685   4.8084 
 C                     15.6957  -16.0938   3.9046 
 C                     16.4639  -14.9624   3.6908 
 C                     15.8701  -13.6972   3.6956 
 H                     11.5638  -17.9303   4.7349 
 H                     13.9919  -18.1158   4.3415 
 H                     15.6579  -11.0965   3.5214 
 H                     10.7897  -10.7211   4.35 
 H                     10.923   -8.2936    4.1531 
 H                     15.8283  -8.6725    3.3065 
 H                     15.9806  -6.2156    3.0956 
 H                     11.0781  -5.8366    3.9464 
 H                     11.2301  -3.3769    3.7382 
 H                     12.59    -1.3567    3.3449 
 H                     15.041   -1.5461    2.9191 
 H                     16.1364  -3.7564    2.8857 
 H                     9.7315   -12.3189   4.6284 
 H                     8.4385   -14.3559   4.994 
 H                     9.5546   -16.5775   4.9707 
 H                     16.1505  -17.0813   3.9021 
 H                     17.533   -15.0509   3.5183 
 H                     16.5066  -12.8368   3.525 
 
 NAtoms=     50 NQM=       50 NQMF=       0 NMMI=      0 NMMIF=      0
                NMic=       0 NMicF=      0.
                    Isotopes and Nuclear Properties:
 (Nuclear quadrupole moments (NQMom) in fm**2, nuclear magnetic moments (NMagM)
  in nuclear magnetons)

  Atom         1           2           3           4           5           6           7           8           9          10
 IAtWgt=          12          12          12          12          12          12          12          12          12          12
 AtmWgt=  12.0000000  12.0000000  12.0000000  12.0000000  12.0000000  12.0000000  12.0000000  12.0000000  12.0000000  12.0000000
 NucSpn=           0           0           0           0           0           0           0           0           0           0
 AtZEff=   0.0000000   0.0000000   0.0000000   0.0000000   0.0000000   0.0000000   0.0000000   0.0000000   0.0000000   0.0000000
 NQMom=    0.0000000   0.0000000   0.0000000   0.0000000   0.0000000   0.0000000   0.0000000   0.0000000   0.0000000   0.0000000
 NMagM=    0.0000000   0.0000000   0.0000000   0.0000000   0.0000000   0.0000000   0.0000000   0.0000000   0.0000000   0.0000000
 AtZNuc=   6.0000000   6.0000000   6.0000000   6.0000000   6.0000000   6.0000000   6.0000000   6.0000000   6.0000000   6.0000000

  Atom        11          12          13          14          15          16          17          18          19          20
 IAtWgt=          12          12          12          12          12          12          12          12          12          12
 AtmWgt=  12.0000000  12.0000000  12.0000000  12.0000000  12.0000000  12.0000000  12.0000000  12.0000000  12.0000000  12.0000000
 NucSpn=           0           0           0           0           0           0           0           0           0           0
 AtZEff=   0.0000000   0.0000000   0.0000000   0.0000000   0.0000000   0.0000000   0.0000000   0.0000000   0.0000000   0.0000000
 NQMom=    0.0000000   0.0000000   0.0000000   0.0000000   0.0000000   0.0000000   0.0000000   0.0000000   0.0000000   0.0000000
 NMagM=    0.0000000   0.0000000   0.0000000   0.0000000   0.0000000   0.0000000   0.0000000   0.0000000   0.0000000   0.0000000
 AtZNuc=   6.0000000   6.0000000   6.0000000   6.0000000   6.0000000   6.0000000   6.0000000   6.0000000   6.0000000   6.0000000

  Atom        21          22          23          24          25          26          27          28          29          30
 IAtWgt=          12          12          12          12          12          12          12          12          12          12
 AtmWgt=  12.0000000  12.0000000  12.0000000  12.0000000  12.0000000  12.0000000  12.0000000  12.0000000  12.0000000  12.0000000
 NucSpn=           0           0           0           0           0           0           0           0           0           0
 AtZEff=   0.0000000   0.0000000   0.0000000   0.0000000   0.0000000   0.0000000   0.0000000   0.0000000   0.0000000   0.0000000
 NQMom=    0.0000000   0.0000000   0.0000000   0.0000000   0.0000000   0.0000000   0.0000000   0.0000000   0.0000000   0.0000000
 NMagM=    0.0000000   0.0000000   0.0000000   0.0000000   0.0000000   0.0000000   0.0000000   0.0000000   0.0000000   0.0000000
 AtZNuc=   6.0000000   6.0000000   6.0000000   6.0000000   6.0000000   6.0000000   6.0000000   6.0000000   6.0000000   6.0000000

  Atom        31          32          33          34          35          36          37          38          39          40
 IAtWgt=          12          12           1           1           1           1           1           1           1           1
 AtmWgt=  12.0000000  12.0000000   1.0078250   1.0078250   1.0078250   1.0078250   1.0078250   1.0078250   1.0078250   1.0078250
 NucSpn=           0           0           1           1           1           1           1           1           1           1
 AtZEff=   0.0000000   0.0000000   0.0000000   0.0000000   0.0000000   0.0000000   0.0000000   0.0000000   0.0000000   0.0000000
 NQMom=    0.0000000   0.0000000   0.0000000   0.0000000   0.0000000   0.0000000   0.0000000   0.0000000   0.0000000   0.0000000
 NMagM=    0.0000000   0.0000000   2.7928460   2.7928460   2.7928460   2.7928460   2.7928460   2.7928460   2.7928460   2.7928460
 AtZNuc=   6.0000000   6.0000000   1.0000000   1.0000000   1.0000000   1.0000000   1.0000000   1.0000000   1.0000000   1.0000000

  Atom        41          42          43          44          45          46          47          48          49          50
 IAtWgt=           1           1           1           1           1           1           1           1           1           1
 AtmWgt=   1.0078250   1.0078250   1.0078250   1.0078250   1.0078250   1.0078250   1.0078250   1.0078250   1.0078250   1.0078250
 NucSpn=           1           1           1           1           1           1           1           1           1           1
 AtZEff=   0.0000000   0.0000000   0.0000000   0.0000000   0.0000000   0.0000000   0.0000000   0.0000000   0.0000000   0.0000000
 NQMom=    0.0000000   0.0000000   0.0000000   0.0000000   0.0000000   0.0000000   0.0000000   0.0000000   0.0000000   0.0000000
 NMagM=    2.7928460   2.7928460   2.7928460   2.7928460   2.7928460   2.7928460   2.7928460   2.7928460   2.7928460   2.7928460
 AtZNuc=   1.0000000   1.0000000   1.0000000   1.0000000   1.0000000   1.0000000   1.0000000   1.0000000   1.0000000   1.0000000
 Leave Link  101 at Sat Jul 27 14:44:14 2019, MaxMem=  4194304000 cpu:         5.4
 (Enter /home/minenky/programs//g09/l103.exe)

 GradGradGradGradGradGradGradGradGradGradGradGradGradGradGradGradGradGrad
 Berny optimization.
 Initialization pass.
                           ----------------------------
                           !    Initial Parameters    !
                           ! (Angstroms and Degrees)  !
 --------------------------                            --------------------------
 ! Name  Definition              Value          Derivative Info.                !
 --------------------------------------------------------------------------------
 ! R1    R(1,2)                  1.3584         estimate D2E/DX2                !
 ! R2    R(1,6)                  1.435          estimate D2E/DX2                !
 ! R3    R(1,33)                 1.0872         estimate D2E/DX2                !
 ! R4    R(2,3)                  1.435          estimate D2E/DX2                !
 ! R5    R(2,34)                 1.0872         estimate D2E/DX2                !
 ! R6    R(3,4)                  1.4285         estimate D2E/DX2                !
 ! R7    R(3,30)                 1.4071         estimate D2E/DX2                !
 ! R8    R(4,5)                  1.4419         estimate D2E/DX2                !
 ! R9    R(4,10)                 1.4253         estimate D2E/DX2                !
 ! R10   R(5,6)                  1.4285         estimate D2E/DX2                !
 ! R11   R(5,7)                  1.4253         estimate D2E/DX2                !
 ! R12   R(6,29)                 1.4071         estimate D2E/DX2                !
 ! R13   R(7,8)                  1.4739         estimate D2E/DX2                !
 ! R14   R(7,27)                 1.3996         estimate D2E/DX2                !
 ! R15   R(8,9)                  1.4556         estimate D2E/DX2                !
 ! R16   R(8,14)                 1.3808         estimate D2E/DX2                !
 ! R17   R(9,10)                 1.4739         estimate D2E/DX2                !
 ! R18   R(9,11)                 1.3809         estimate D2E/DX2                !
 ! R19   R(10,32)                1.3995         estimate D2E/DX2                !
 ! R20   R(11,12)                1.4209         estimate D2E/DX2                !
 ! R21   R(11,35)                1.0846         estimate D2E/DX2                !
 ! R22   R(12,13)                1.4466         estimate D2E/DX2                !
 ! R23   R(12,18)                1.3962         estimate D2E/DX2                !
 ! R24   R(13,14)                1.4207         estimate D2E/DX2                !
 ! R25   R(13,15)                1.3963         estimate D2E/DX2                !
 ! R26   R(14,36)                1.0846         estimate D2E/DX2                !
 ! R27   R(15,16)                1.4076         estimate D2E/DX2                !
 ! R28   R(15,37)                1.0881         estimate D2E/DX2                !
 ! R29   R(16,17)                1.4549         estimate D2E/DX2                !
 ! R30   R(16,22)                1.4117         estimate D2E/DX2                !
 ! R31   R(17,18)                1.4076         estimate D2E/DX2                !
 ! R32   R(17,19)                1.4116         estimate D2E/DX2                !
 ! R33   R(18,38)                1.0882         estimate D2E/DX2                !
 ! R34   R(19,20)                1.3916         estimate D2E/DX2                !
 ! R35   R(19,39)                1.0882         estimate D2E/DX2                !
 ! R36   R(20,21)                1.4529         estimate D2E/DX2                !
 ! R37   R(20,26)                1.4344         estimate D2E/DX2                !
 ! R38   R(21,22)                1.3916         estimate D2E/DX2                !
 ! R39   R(21,23)                1.4344         estimate D2E/DX2                !
 ! R40   R(22,40)                1.0882         estimate D2E/DX2                !
 ! R41   R(23,24)                1.3667         estimate D2E/DX2                !
 ! R42   R(23,41)                1.0874         estimate D2E/DX2                !
 ! R43   R(24,25)                1.4314         estimate D2E/DX2                !
 ! R44   R(24,42)                1.0867         estimate D2E/DX2                !
 ! R45   R(25,26)                1.3666         estimate D2E/DX2                !
 ! R46   R(25,43)                1.0867         estimate D2E/DX2                !
 ! R47   R(26,44)                1.0875         estimate D2E/DX2                !
 ! R48   R(27,28)                1.3976         estimate D2E/DX2                !
 ! R49   R(27,45)                1.0838         estimate D2E/DX2                !
 ! R50   R(28,29)                1.3841         estimate D2E/DX2                !
 ! R51   R(28,46)                1.0866         estimate D2E/DX2                !
 ! R52   R(29,47)                1.0871         estimate D2E/DX2                !
 ! R53   R(30,31)                1.3842         estimate D2E/DX2                !
 ! R54   R(30,48)                1.0872         estimate D2E/DX2                !
 ! R55   R(31,32)                1.3976         estimate D2E/DX2                !
 ! R56   R(31,49)                1.0865         estimate D2E/DX2                !
 ! R57   R(32,50)                1.0838         estimate D2E/DX2                !
 ! A1    A(2,1,6)              121.1319         estimate D2E/DX2                !
 ! A2    A(2,1,33)             120.6413         estimate D2E/DX2                !
 ! A3    A(6,1,33)             118.2268         estimate D2E/DX2                !
 ! A4    A(1,2,3)              121.1271         estimate D2E/DX2                !
 ! A5    A(1,2,34)             120.6484         estimate D2E/DX2                !
 ! A6    A(3,2,34)             118.2245         estimate D2E/DX2                !
 ! A7    A(2,3,4)              119.526          estimate D2E/DX2                !
 ! A8    A(2,3,30)             120.726          estimate D2E/DX2                !
 ! A9    A(4,3,30)             119.7481         estimate D2E/DX2                !
 ! A10   A(3,4,5)              119.3427         estimate D2E/DX2                !
 ! A11   A(3,4,10)             119.6617         estimate D2E/DX2                !
 ! A12   A(5,4,10)             120.9955         estimate D2E/DX2                !
 ! A13   A(4,5,6)              119.3517         estimate D2E/DX2                !
 ! A14   A(4,5,7)              120.99           estimate D2E/DX2                !
 ! A15   A(6,5,7)              119.6583         estimate D2E/DX2                !
 ! A16   A(1,6,5)              119.5206         estimate D2E/DX2                !
 ! A17   A(1,6,29)             120.7201         estimate D2E/DX2                !
 ! A18   A(5,6,29)             119.7593         estimate D2E/DX2                !
 ! A19   A(5,7,8)              119.4513         estimate D2E/DX2                !
 ! A20   A(5,7,27)             118.3244         estimate D2E/DX2                !
 ! A21   A(8,7,27)             122.2243         estimate D2E/DX2                !
 ! A22   A(7,8,9)              119.5575         estimate D2E/DX2                !
 ! A23   A(7,8,14)             121.6945         estimate D2E/DX2                !
 ! A24   A(9,8,14)             118.7479         estimate D2E/DX2                !
 ! A25   A(8,9,10)             119.5553         estimate D2E/DX2                !
 ! A26   A(8,9,11)             118.7553         estimate D2E/DX2                !
 ! A27   A(10,9,11)            121.6894         estimate D2E/DX2                !
 ! A28   A(4,10,9)             119.4491         estimate D2E/DX2                !
 ! A29   A(4,10,32)            118.3305         estimate D2E/DX2                !
 ! A30   A(9,10,32)            122.2203         estimate D2E/DX2                !
 ! A31   A(9,11,12)            123.167          estimate D2E/DX2                !
 ! A32   A(9,11,35)            120.3452         estimate D2E/DX2                !
 ! A33   A(12,11,35)           116.4878         estimate D2E/DX2                !
 ! A34   A(11,12,13)           118.071          estimate D2E/DX2                !
 ! A35   A(11,12,18)           122.5607         estimate D2E/DX2                !
 ! A36   A(13,12,18)           119.3684         estimate D2E/DX2                !
 ! A37   A(12,13,14)           118.0856         estimate D2E/DX2                !
 ! A38   A(12,13,15)           119.3586         estimate D2E/DX2                !
 ! A39   A(14,13,15)           122.5558         estimate D2E/DX2                !
 ! A40   A(8,14,13)            123.1724         estimate D2E/DX2                !
 ! A41   A(8,14,36)            120.3518         estimate D2E/DX2                !
 ! A42   A(13,14,36)           116.4758         estimate D2E/DX2                !
 ! A43   A(13,15,16)           121.7235         estimate D2E/DX2                !
 ! A44   A(13,15,37)           119.3129         estimate D2E/DX2                !
 ! A45   A(16,15,37)           118.9636         estimate D2E/DX2                !
 ! A46   A(15,16,17)           118.9167         estimate D2E/DX2                !
 ! A47   A(15,16,22)           122.3152         estimate D2E/DX2                !
 ! A48   A(17,16,22)           118.7681         estimate D2E/DX2                !
 ! A49   A(16,17,18)           118.9059         estimate D2E/DX2                !
 ! A50   A(16,17,19)           118.7736         estimate D2E/DX2                !
 ! A51   A(18,17,19)           122.3205         estimate D2E/DX2                !
 ! A52   A(12,18,17)           121.727          estimate D2E/DX2                !
 ! A53   A(12,18,38)           119.3086         estimate D2E/DX2                !
 ! A54   A(17,18,38)           118.9645         estimate D2E/DX2                !
 ! A55   A(17,19,20)           121.9571         estimate D2E/DX2                !
 ! A56   A(17,19,39)           118.7724         estimate D2E/DX2                !
 ! A57   A(20,19,39)           119.2705         estimate D2E/DX2                !
 ! A58   A(19,20,21)           119.2695         estimate D2E/DX2                !
 ! A59   A(19,20,26)           122.2845         estimate D2E/DX2                !
 ! A60   A(21,20,26)           118.446          estimate D2E/DX2                !
 ! A61   A(20,21,22)           119.2756         estimate D2E/DX2                !
 ! A62   A(20,21,23)           118.441          estimate D2E/DX2                !
 ! A63   A(22,21,23)           122.2834         estimate D2E/DX2                !
 ! A64   A(16,22,21)           121.956          estimate D2E/DX2                !
 ! A65   A(16,22,40)           118.7746         estimate D2E/DX2                !
 ! A66   A(21,22,40)           119.2694         estimate D2E/DX2                !
 ! A67   A(21,23,24)           121.0376         estimate D2E/DX2                !
 ! A68   A(21,23,41)           118.3434         estimate D2E/DX2                !
 ! A69   A(24,23,41)           120.619          estimate D2E/DX2                !
 ! A70   A(23,24,25)           120.5201         estimate D2E/DX2                !
 ! A71   A(23,24,42)           120.1809         estimate D2E/DX2                !
 ! A72   A(25,24,42)           119.299          estimate D2E/DX2                !
 ! A73   A(24,25,26)           120.5127         estimate D2E/DX2                !
 ! A74   A(24,25,43)           119.295          estimate D2E/DX2                !
 ! A75   A(26,25,43)           120.1923         estimate D2E/DX2                !
 ! A76   A(20,26,25)           121.0426         estimate D2E/DX2                !
 ! A77   A(20,26,44)           118.3315         estimate D2E/DX2                !
 ! A78   A(25,26,44)           120.6259         estimate D2E/DX2                !
 ! A79   A(7,27,28)            121.8019         estimate D2E/DX2                !
 ! A80   A(7,27,45)            120.2583         estimate D2E/DX2                !
 ! A81   A(28,27,45)           117.9398         estimate D2E/DX2                !
 ! A82   A(27,28,29)           120.242          estimate D2E/DX2                !
 ! A83   A(27,28,46)           119.486          estimate D2E/DX2                !
 ! A84   A(29,28,46)           120.272          estimate D2E/DX2                !
 ! A85   A(6,29,28)            120.2142         estimate D2E/DX2                !
 ! A86   A(6,29,47)            119.1216         estimate D2E/DX2                !
 ! A87   A(28,29,47)           120.6643         estimate D2E/DX2                !
 ! A88   A(3,30,31)            120.2251         estimate D2E/DX2                !
 ! A89   A(3,30,48)            119.117          estimate D2E/DX2                !
 ! A90   A(31,30,48)           120.6579         estimate D2E/DX2                !
 ! A91   A(30,31,32)           120.2395         estimate D2E/DX2                !
 ! A92   A(30,31,49)           120.267          estimate D2E/DX2                !
 ! A93   A(32,31,49)           119.4935         estimate D2E/DX2                !
 ! A94   A(10,32,31)           121.795          estimate D2E/DX2                !
 ! A95   A(10,32,50)           120.2604         estimate D2E/DX2                !
 ! A96   A(31,32,50)           117.9446         estimate D2E/DX2                !
 ! D1    D(6,1,2,3)             -0.0474         estimate D2E/DX2                !
 ! D2    D(6,1,2,34)           179.985          estimate D2E/DX2                !
 ! D3    D(33,1,2,3)           179.9603         estimate D2E/DX2                !
 ! D4    D(33,1,2,34)           -0.0073         estimate D2E/DX2                !
 ! D5    D(2,1,6,5)             -0.0074         estimate D2E/DX2                !
 ! D6    D(2,1,6,29)           179.9943         estimate D2E/DX2                !
 ! D7    D(33,1,6,5)           179.9851         estimate D2E/DX2                !
 ! D8    D(33,1,6,29)           -0.0132         estimate D2E/DX2                !
 ! D9    D(1,2,3,4)              0.0232         estimate D2E/DX2                !
 ! D10   D(1,2,3,30)          -179.9726         estimate D2E/DX2                !
 ! D11   D(34,2,3,4)           179.9916         estimate D2E/DX2                !
 ! D12   D(34,2,3,30)           -0.0041         estimate D2E/DX2                !
 ! D13   D(2,3,4,5)              0.0548         estimate D2E/DX2                !
 ! D14   D(2,3,4,10)          -179.9234         estimate D2E/DX2                !
 ! D15   D(30,3,4,5)          -179.9494         estimate D2E/DX2                !
 ! D16   D(30,3,4,10)            0.0723         estimate D2E/DX2                !
 ! D17   D(2,3,30,31)          179.9795         estimate D2E/DX2                !
 ! D18   D(2,3,30,48)           -0.0309         estimate D2E/DX2                !
 ! D19   D(4,3,30,31)           -0.0162         estimate D2E/DX2                !
 ! D20   D(4,3,30,48)          179.9734         estimate D2E/DX2                !
 ! D21   D(3,4,5,6)             -0.1076         estimate D2E/DX2                !
 ! D22   D(3,4,5,7)            179.9011         estimate D2E/DX2                !
 ! D23   D(10,4,5,6)           179.8703         estimate D2E/DX2                !
 ! D24   D(10,4,5,7)            -0.1209         estimate D2E/DX2                !
 ! D25   D(3,4,10,9)           179.9633         estimate D2E/DX2                !
 ! D26   D(3,4,10,32)           -0.0881         estimate D2E/DX2                !
 ! D27   D(5,4,10,9)            -0.0146         estimate D2E/DX2                !
 ! D28   D(5,4,10,32)          179.934          estimate D2E/DX2                !
 ! D29   D(4,5,6,1)              0.0848         estimate D2E/DX2                !
 ! D30   D(4,5,6,29)          -179.9168         estimate D2E/DX2                !
 ! D31   D(7,5,6,1)           -179.9238         estimate D2E/DX2                !
 ! D32   D(7,5,6,29)             0.0746         estimate D2E/DX2                !
 ! D33   D(4,5,7,8)             -0.0261         estimate D2E/DX2                !
 ! D34   D(4,5,7,27)           179.8925         estimate D2E/DX2                !
 ! D35   D(6,5,7,8)            179.9827         estimate D2E/DX2                !
 ! D36   D(6,5,7,27)            -0.0988         estimate D2E/DX2                !
 ! D37   D(1,6,29,28)          179.9931         estimate D2E/DX2                !
 ! D38   D(1,6,29,47)           -0.0555         estimate D2E/DX2                !
 ! D39   D(5,6,29,28)           -0.0052         estimate D2E/DX2                !
 ! D40   D(5,6,29,47)          179.9461         estimate D2E/DX2                !
 ! D41   D(5,7,8,9)              0.306          estimate D2E/DX2                !
 ! D42   D(5,7,8,14)          -179.7543         estimate D2E/DX2                !
 ! D43   D(27,7,8,9)          -179.6093         estimate D2E/DX2                !
 ! D44   D(27,7,8,14)            0.3305         estimate D2E/DX2                !
 ! D45   D(5,7,27,28)            0.0565         estimate D2E/DX2                !
 ! D46   D(5,7,27,45)         -179.8973         estimate D2E/DX2                !
 ! D47   D(8,7,27,28)          179.9727         estimate D2E/DX2                !
 ! D48   D(8,7,27,45)            0.0188         estimate D2E/DX2                !
 ! D49   D(7,8,9,10)            -0.4381         estimate D2E/DX2                !
 ! D50   D(7,8,9,11)           179.6058         estimate D2E/DX2                !
 ! D51   D(14,8,9,10)          179.6203         estimate D2E/DX2                !
 ! D52   D(14,8,9,11)           -0.3358         estimate D2E/DX2                !
 ! D53   D(7,8,14,13)         -179.7364         estimate D2E/DX2                !
 ! D54   D(7,8,14,36)            0.2101         estimate D2E/DX2                !
 ! D55   D(9,8,14,13)            0.2038         estimate D2E/DX2                !
 ! D56   D(9,8,14,36)         -179.8497         estimate D2E/DX2                !
 ! D57   D(8,9,10,4)             0.2947         estimate D2E/DX2                !
 ! D58   D(8,9,10,32)         -179.6519         estimate D2E/DX2                !
 ! D59   D(11,9,10,4)         -179.7506         estimate D2E/DX2                !
 ! D60   D(11,9,10,32)           0.3029         estimate D2E/DX2                !
 ! D61   D(8,9,11,12)            0.199          estimate D2E/DX2                !
 ! D62   D(8,9,11,35)         -179.8427         estimate D2E/DX2                !
 ! D63   D(10,9,11,12)        -179.7561         estimate D2E/DX2                !
 ! D64   D(10,9,11,35)           0.2022         estimate D2E/DX2                !
 ! D65   D(4,10,32,31)           0.0501         estimate D2E/DX2                !
 ! D66   D(4,10,32,50)        -179.8977         estimate D2E/DX2                !
 ! D67   D(9,10,32,31)         179.9972         estimate D2E/DX2                !
 ! D68   D(9,10,32,50)           0.0494         estimate D2E/DX2                !
 ! D69   D(9,11,12,13)           0.0752         estimate D2E/DX2                !
 ! D70   D(9,11,12,18)        -179.9719         estimate D2E/DX2                !
 ! D71   D(35,11,12,13)       -179.8846         estimate D2E/DX2                !
 ! D72   D(35,11,12,18)          0.0684         estimate D2E/DX2                !
 ! D73   D(11,12,13,14)         -0.2105         estimate D2E/DX2                !
 ! D74   D(11,12,13,15)        179.8496         estimate D2E/DX2                !
 ! D75   D(18,12,13,14)        179.835          estimate D2E/DX2                !
 ! D76   D(18,12,13,15)         -0.1049         estimate D2E/DX2                !
 ! D77   D(11,12,18,17)       -179.8938         estimate D2E/DX2                !
 ! D78   D(11,12,18,38)          0.0711         estimate D2E/DX2                !
 ! D79   D(13,12,18,17)          0.0586         estimate D2E/DX2                !
 ! D80   D(13,12,18,38)       -179.9765         estimate D2E/DX2                !
 ! D81   D(12,13,14,8)           0.0704         estimate D2E/DX2                !
 ! D82   D(12,13,14,36)       -179.878          estimate D2E/DX2                !
 ! D83   D(15,13,14,8)        -179.9918         estimate D2E/DX2                !
 ! D84   D(15,13,14,36)          0.0598         estimate D2E/DX2                !
 ! D85   D(12,13,15,16)          0.0633         estimate D2E/DX2                !
 ! D86   D(12,13,15,37)       -179.9804         estimate D2E/DX2                !
 ! D87   D(14,13,15,16)       -179.8738         estimate D2E/DX2                !
 ! D88   D(14,13,15,37)          0.0825         estimate D2E/DX2                !
 ! D89   D(13,15,16,17)          0.0242         estimate D2E/DX2                !
 ! D90   D(13,15,16,22)       -179.9948         estimate D2E/DX2                !
 ! D91   D(37,15,16,17)       -179.9323         estimate D2E/DX2                !
 ! D92   D(37,15,16,22)          0.0488         estimate D2E/DX2                !
 ! D93   D(15,16,17,18)         -0.0708         estimate D2E/DX2                !
 ! D94   D(15,16,17,19)        179.9455         estimate D2E/DX2                !
 ! D95   D(22,16,17,18)        179.9475         estimate D2E/DX2                !
 ! D96   D(22,16,17,19)         -0.0362         estimate D2E/DX2                !
 ! D97   D(15,16,22,21)       -179.9578         estimate D2E/DX2                !
 ! D98   D(15,16,22,40)          0.0231         estimate D2E/DX2                !
 ! D99   D(17,16,22,21)          0.0233         estimate D2E/DX2                !
 ! D100  D(17,16,22,40)       -179.9958         estimate D2E/DX2                !
 ! D101  D(16,17,18,12)          0.0288         estimate D2E/DX2                !
 ! D102  D(16,17,18,38)       -179.9362         estimate D2E/DX2                !
 ! D103  D(19,17,18,12)       -179.9881         estimate D2E/DX2                !
 ! D104  D(19,17,18,38)          0.0469         estimate D2E/DX2                !
 ! D105  D(16,17,19,20)          0.0201         estimate D2E/DX2                !
 ! D106  D(16,17,19,39)       -179.9963         estimate D2E/DX2                !
 ! D107  D(18,17,19,20)       -179.963          estimate D2E/DX2                !
 ! D108  D(18,17,19,39)          0.0206         estimate D2E/DX2                !
 ! D109  D(17,19,20,21)          0.0095         estimate D2E/DX2                !
 ! D110  D(17,19,20,26)       -179.9986         estimate D2E/DX2                !
 ! D111  D(39,19,20,21)       -179.9741         estimate D2E/DX2                !
 ! D112  D(39,19,20,26)          0.0178         estimate D2E/DX2                !
 ! D113  D(19,20,21,22)         -0.0231         estimate D2E/DX2                !
 ! D114  D(19,20,21,23)        179.9842         estimate D2E/DX2                !
 ! D115  D(26,20,21,22)        179.9847         estimate D2E/DX2                !
 ! D116  D(26,20,21,23)         -0.008          estimate D2E/DX2                !
 ! D117  D(19,20,26,25)       -179.9847         estimate D2E/DX2                !
 ! D118  D(19,20,26,44)         -0.0119         estimate D2E/DX2                !
 ! D119  D(21,20,26,25)          0.0073         estimate D2E/DX2                !
 ! D120  D(21,20,26,44)        179.9801         estimate D2E/DX2                !
 ! D121  D(20,21,22,16)          0.0063         estimate D2E/DX2                !
 ! D122  D(20,21,22,40)       -179.9745         estimate D2E/DX2                !
 ! D123  D(23,21,22,16)        179.9988         estimate D2E/DX2                !
 ! D124  D(23,21,22,40)          0.0179         estimate D2E/DX2                !
 ! D125  D(20,21,23,24)          0.0109         estimate D2E/DX2                !
 ! D126  D(20,21,23,41)        179.9911         estimate D2E/DX2                !
 ! D127  D(22,21,23,24)       -179.9817         estimate D2E/DX2                !
 ! D128  D(22,21,23,41)         -0.0014         estimate D2E/DX2                !
 ! D129  D(21,23,24,25)         -0.0124         estimate D2E/DX2                !
 ! D130  D(21,23,24,42)        179.9909         estimate D2E/DX2                !
 ! D131  D(41,23,24,25)       -179.9922         estimate D2E/DX2                !
 ! D132  D(41,23,24,42)          0.0111         estimate D2E/DX2                !
 ! D133  D(23,24,25,26)          0.0114         estimate D2E/DX2                !
 ! D134  D(23,24,25,43)       -179.9853         estimate D2E/DX2                !
 ! D135  D(42,24,25,26)       -179.9919         estimate D2E/DX2                !
 ! D136  D(42,24,25,43)          0.0114         estimate D2E/DX2                !
 ! D137  D(24,25,26,20)         -0.0088         estimate D2E/DX2                !
 ! D138  D(24,25,26,44)       -179.981          estimate D2E/DX2                !
 ! D139  D(43,25,26,20)        179.9878         estimate D2E/DX2                !
 ! D140  D(43,25,26,44)          0.0157         estimate D2E/DX2                !
 ! D141  D(7,27,28,29)           0.0124         estimate D2E/DX2                !
 ! D142  D(7,27,28,46)        -179.9701         estimate D2E/DX2                !
 ! D143  D(45,27,28,29)        179.9673         estimate D2E/DX2                !
 ! D144  D(45,27,28,46)         -0.0153         estimate D2E/DX2                !
 ! D145  D(27,28,29,6)          -0.0386         estimate D2E/DX2                !
 ! D146  D(27,28,29,47)       -179.9892         estimate D2E/DX2                !
 ! D147  D(46,28,29,6)         179.9439         estimate D2E/DX2                !
 ! D148  D(46,28,29,47)         -0.0067         estimate D2E/DX2                !
 ! D149  D(3,30,31,32)          -0.0231         estimate D2E/DX2                !
 ! D150  D(3,30,31,49)         179.9571         estimate D2E/DX2                !
 ! D151  D(48,30,31,32)        179.9874         estimate D2E/DX2                !
 ! D152  D(48,30,31,49)         -0.0323         estimate D2E/DX2                !
 ! D153  D(30,31,32,10)          0.0057         estimate D2E/DX2                !
 ! D154  D(30,31,32,50)        179.9547         estimate D2E/DX2                !
 ! D155  D(49,31,32,10)       -179.9747         estimate D2E/DX2                !
 ! D156  D(49,31,32,50)         -0.0257         estimate D2E/DX2                !
 --------------------------------------------------------------------------------
 Trust Radius=3.00D-01 FncErr=1.00D-07 GrdErr=1.00D-06
 Number of steps in this run=    300 maximum allowed number of steps=    300.
 GradGradGradGradGradGradGradGradGradGradGradGradGradGradGradGradGradGrad

 Leave Link  103 at Sat Jul 27 14:44:14 2019, MaxMem=  4194304000 cpu:         0.6
 (Enter /home/minenky/programs//g09/l202.exe)
                          Input orientation:                          
 ---------------------------------------------------------------------
 Center     Atomic      Atomic             Coordinates (Angstroms)
 Number     Number       Type             X           Y           Z
 ---------------------------------------------------------------------
      1          6           0       12.167600  -17.041700    4.567900
      2          6           0       13.504700  -17.143900    4.351200
      3          6           0       14.311400  -15.978100    4.128800
      4          6           0       13.699900  -14.687100    4.135500
      5          6           0       12.280900  -14.578600    4.367200
      6          6           0       11.514000  -15.764300    4.583200
      7          6           0       11.635000  -13.308200    4.383400
      8          6           0       12.430700  -12.087800    4.160400
      9          6           0       13.862200  -12.197800    3.920400
     10          6           0       14.498100  -13.527400    3.913300
     11          6           0       14.590300  -11.044300    3.705300
     12          6           0       14.010800   -9.747000    3.710300
     13          6           0       12.589200   -9.637400    3.954800
     14          6           0       11.853600  -10.833400    4.171300
     15          6           0       11.992300   -8.375200    3.968800
     16          6           0       12.737700   -7.201500    3.749500
     17          6           0       14.167100   -7.311900    3.501700
     18          6           0       14.759100   -8.588900    3.490700
     19          6           0       14.911500   -6.133000    3.281000
     20          6           0       14.318500   -4.874100    3.294300
     21          6           0       12.891200   -4.763800    3.542400
     22          6           0       12.147200   -5.919300    3.761000
     23          6           0       12.298500   -3.457600    3.552500
     24          6           0       13.053500   -2.339500    3.334300
     25          6           0       14.459700   -2.448200    3.089900
     26          6           0       15.068100   -3.671700    3.070900
     27          6           0       10.254700  -13.267900    4.611200
     28          6           0        9.508600  -14.430900    4.821100
     29          6           0       10.128300  -15.668500    4.808400
     30          6           0       15.695700  -16.093800    3.904600
     31          6           0       16.463900  -14.962400    3.690800
     32          6           0       15.870100  -13.697200    3.695600
     33          1           0       11.563800  -17.930300    4.734900
     34          1           0       13.991900  -18.115800    4.341500
     35          1           0       15.657900  -11.096500    3.521400
     36          1           0       10.789700  -10.721100    4.350000
     37          1           0       10.923000   -8.293600    4.153100
     38          1           0       15.828300   -8.672500    3.306500
     39          1           0       15.980600   -6.215600    3.095600
     40          1           0       11.078100   -5.836600    3.946400
     41          1           0       11.230100   -3.376900    3.738200
     42          1           0       12.590000   -1.356700    3.344900
     43          1           0       15.041000   -1.546100    2.919100
     44          1           0       16.136400   -3.756400    2.885700
     45          1           0        9.731500  -12.318900    4.628400
     46          1           0        8.438500  -14.355900    4.994000
     47          1           0        9.554600  -16.577500    4.970700
     48          1           0       16.150500  -17.081300    3.902100
     49          1           0       17.533000  -15.050900    3.518300
     50          1           0       16.506600  -12.836800    3.525000
 ---------------------------------------------------------------------
                    Distance matrix (angstroms):
                    1          2          3          4          5
     1  C    0.000000
     2  C    1.358396   0.000000
     3  C    2.433091   1.435032   0.000000
     4  C    2.842368   2.473964   1.428516   0.000000
     5  C    2.473859   2.842307   2.477572   1.441880   0.000000
     6  C    1.434984   2.433106   2.842118   2.477691   1.428522
     7  C    3.775808   4.267248   3.788971   2.495322   1.425260
     8  C    4.977590   5.172430   4.321165   2.892723   2.503855
     9  C    5.172455   4.977680   3.812595   2.503842   2.892810
    10  C    4.267322   3.775933   2.467231   1.425272   2.495400
    11  C    6.525516   6.229032   4.959790   3.774636   4.273490
    12  C    7.572682   7.441842   6.252368   4.968102   5.173822
    13  C    7.441592   7.572504   6.572726   5.173565   4.967955
    14  C    6.228874   6.525405   5.701800   4.273302   3.774584
    15  C    8.688951   8.906384   7.950340   6.540930   6.222876
    16  C    9.890618   9.990078   8.924635   7.557052   7.416996
    17  C    9.990185   9.890837   8.690057   7.417112   7.557233
    18  C    8.906518   8.689189   7.430201   6.222999   6.541119
    19  C   11.321874  11.151876   9.899741   8.681634   8.912241
    20  C   12.421712  12.342095  11.135316   9.868397   9.973979
    21  C   12.341883  12.421651  11.319071   9.973848   9.868286
    22  C   11.151649  11.321784  10.295557   8.912095   8.681522
    23  C   13.622626  13.762545  12.694361  11.331614  11.150816
    24  C   14.780435  14.846142  13.719510  12.390439  12.306883
    25  C   14.846159  14.780612  13.570538  12.306959  12.390531
    26  C   13.762660  13.622906  12.374944  11.150981  11.331785
    27  C    4.231150   5.064926   4.902521   3.756304   2.425481
    28  C    3.735059   4.852833   5.093132   4.254725   2.813092
    29  C    2.470276   3.712939   4.249239   3.764607   2.452800
    30  C    3.712946   2.470353   1.407103   2.452618   3.764398
    31  C    4.852936   3.735229   2.420072   2.813049   4.254681
    32  C    5.065086   4.231391   2.796375   2.425527   3.756364
    33  H    1.087232   2.129024   3.424580   3.929447   3.447220
    34  H    2.129089   1.087220   2.171885   3.447272   3.929372
    35  H    6.973002   6.472703   5.100198   4.135613   4.923873
    36  H    6.472718   6.973061   6.331457   4.923863   4.135732
    37  H    8.845922   9.221292   8.398416   6.970533   6.433580
    38  H    9.221462   8.846193   7.506594   6.433719   6.970735
    39  H   11.571995  11.275387   9.957918   8.834551   9.232796
    40  H   11.275085  11.571831  10.646010   9.232602   8.834385
    41  H   13.722029  13.967099  12.978337  11.583539  11.268447
    42  H   15.738277  15.845662  14.743238  13.399869  13.264964
    43  H   15.845775  15.738567  14.500976  13.265145  13.400045
    44  H   13.967117  13.722197  12.419576  11.268484  11.583598
    45  H    5.314422   6.131436   5.883437   4.647528   3.416710
    46  H    4.615330   5.818292   6.153947   5.341259   3.899553
    47  H    2.684306   4.038302   4.867774   4.631920   3.434025
    48  H    4.038360   2.684375   2.156556   3.433964   4.631806
    49  H    5.818287   4.615363   3.407509   3.899480   5.341185
    50  H    6.131537   5.314614   3.879593   3.416707   4.647549
                    6          7          8          9         10
     6  C    0.000000
     7  C    2.467182   0.000000
     8  C    3.812578   1.473853   0.000000
     9  C    4.321258   2.531359   1.455642   0.000000
    10  C    3.789108   2.909705   2.531334   1.473857   0.000000
    11  C    5.701994   3.784027   2.441287   1.380927   2.493502
    12  C    6.572965   4.333548   2.859834   2.464274   3.817079
    13  C    6.252187   3.816932   2.464113   2.859608   4.333327
    14  C    4.959714   2.493473   1.380827   2.441109   3.783858
    15  C    7.430011   4.963270   3.743301   4.255718   5.729509
    16  C    8.689882   6.237753   4.913147   5.124131   6.568322
    17  C    8.924777   6.568450   5.124275   4.913277   6.237902
    18  C    7.950509   5.729634   4.255848   3.743425   4.963416
    19  C   10.295663   7.964561   6.510557   6.188026   7.432890
    20  C   11.319140   8.917475   7.506756   7.364563   8.677270
    21  C   11.135122   8.677102   7.364439   7.506669   8.917420
    22  C    9.899544   7.432737   6.187914   6.510468   7.964491
    23  C   12.374678   9.907823   8.652593   8.886597  10.313549
    24  C   13.570375  11.109686   9.803044   9.908763  11.295628
    25  C   13.719534  11.295648   9.908819   9.803134  11.109822
    26  C   12.694473  10.313630   8.886711   8.652758   9.908045
    27  C    2.796182   1.399552   2.516115   3.825752   4.308230
    28  C    2.419955   2.444098   3.803329   4.975121   5.151264
    29  C    1.407145   2.832276   4.306084   5.174583   4.947794
    30  C    4.249198   4.947535   5.174330   4.305902   2.832089
    31  C    5.093224   5.151150   4.974993   3.803232   2.443993
    32  C    4.902687   4.308185   3.825661   2.516028   1.399503
    33  H    2.171877   4.635993   5.934338   6.229575   5.354500
    34  H    3.424611   5.354414   6.229521   5.934380   4.636055
    35  H    6.331483   4.671015   3.435959   2.143969   2.721763
    36  H    5.100280   2.721899   2.143991   3.435907   4.671002
    37  H    7.506372   5.070128   4.082789   4.892425   6.342831
    38  H    8.398617   6.342964   4.892556   4.082911   5.070275
    39  H   10.646180   8.417104   6.943941   6.399580   7.505255
    40  H    9.957648   7.505059   6.399439   6.943829   8.417001
    41  H   12.419432   9.960469   8.803378   9.207031  10.665043
    42  H   14.500693  12.034486  10.763221  10.930652  12.332472
    43  H   14.743343  12.332559  10.930779  10.763405  12.034730
    44  H   12.978357  10.665017   9.207024   8.803398   9.960544
    45  H    3.879450   2.159178   2.749202   4.192685   4.969136
    46  H    3.407499   3.418789   4.666565   5.935195   6.210723
    47  H    2.156548   3.919350   5.393139   6.232200   5.904185
    48  H    4.867804   5.904039   6.232068   5.393072   3.919280
    49  H    6.153967   6.210620   5.935126   4.666544   3.418727
    50  H    5.883545   4.969060   4.192576   2.749093   2.159115
                   11         12         13         14         15
    11  C    0.000000
    12  C    1.420856   0.000000
    13  C    2.458865   1.446630   0.000000
    14  C    2.784091   2.458922   1.420703   0.000000
    15  C    3.734050   2.454180   1.396293   2.470423   0.000000
    16  C    4.266286   2.846382   2.449042   3.761681   1.407581
    17  C    3.761829   2.449011   2.846580   4.266334   2.465470
    18  C    2.470533   1.396199   2.454222   3.734023   2.815924
    19  C    4.940047   3.749207   4.257688   5.677777   3.744631
    20  C    6.189844   4.900295   5.110359   6.508311   4.257212
    21  C    6.508314   5.110184   4.900332   6.189683   3.745938
    22  C    5.677805   4.257565   3.749292   4.939932   2.469538
    23  C    7.926772   6.520232   6.199700   7.415071   4.944679
    24  C    8.847199   7.478560   7.338933   8.618971   6.161040
    25  C    8.619090   7.338862   7.478731   8.847190   6.479958
    26  C    7.415254   6.199676   6.520414   7.926780   5.691193
    27  C    4.956055   5.226533   4.365923   2.945638   5.231677
    28  C    6.207878   6.591100   5.763524   4.343187   6.600506
    29  C    6.519931   7.165458   6.569538   5.173079   7.574408
    30  C    5.172918   6.569514   7.165052   6.519561   8.561313
    31  C    4.343051   5.763547   6.590798   6.207607   7.966410
    32  C    2.945481   4.365924   5.226229   4.955796   6.590573
    33  H    7.591889   8.602559   8.392389   7.125140   9.595335
    34  H    7.125233   8.392591   8.602347   7.591748   9.950708
    35  H    1.084580   2.137702   3.425453   3.868370   4.587185
    36  H    3.868418   3.425430   2.137473   1.084633   2.663608
    37  H    4.606079   3.441359   2.149731   2.704983   1.088130
    38  H    2.705018   2.149630   3.441380   4.606040   3.904091
    39  H    5.061720   4.090080   4.893724   6.285963   4.618754
    40  H    6.286002   4.893639   4.090180   5.061619   2.698287
    41  H    8.371442   6.950629   6.409987   7.495046   5.061337
    42  H    9.898519   8.517589   8.303130   9.541125   7.071481
    43  H    9.541333   8.303136   8.517813   9.898559   7.552023
    44  H    7.495042   6.409792   6.950666   8.371324   6.299205
    45  H    5.107314   5.076415   3.976258   2.630391   4.593371
    46  H    7.104371   7.344411   6.369654   4.974711   7.032020
    47  H    7.587873   8.252397   7.642371   6.238520   8.615330
    48  H    6.238455   7.642451   8.252108   7.587626   9.648381
    49  H    4.974665   6.369781   7.344227   7.104175   8.687190
    50  H    2.630165   3.976206   5.076112   5.107027   6.362526
                   16         17         18         19         20
    16  C    0.000000
    17  C    1.454915   0.000000
    18  C    2.465343   1.407592   0.000000
    19  C    2.467102   1.411611   2.469543   0.000000
    20  C    2.850075   2.451287   3.745990   1.391638   0.000000
    21  C    2.451292   2.849981   4.257125   2.454516   1.452895
    22  C    1.411687   2.467097   3.744576   2.813791   2.454546
    23  C    3.774718   4.283675   5.691099   3.749566   2.480633
    24  C    4.889904   5.098322   6.479856   4.224411   2.833024
    25  C    5.098452   4.889864   6.161045   3.717310   2.438587
    26  C    4.283778   3.774711   4.944752   2.475210   1.434424
    27  C    6.611280   7.211921   6.590765   8.623341   9.418311
    28  C    7.989971   8.609448   7.966598  10.020897  10.807344
    29  C    8.923022   9.372947   8.561622  10.776721  11.677729
    30  C    9.372663   8.923044   7.574434  10.011063  11.320372
    31  C    8.609273   7.990069   6.600597   8.974196  10.321519
    32  C    7.211723   6.611343   5.231733   7.635963   8.967474
    33  H   10.837721  11.002198   9.950866  12.348976  13.421179
    34  H   11.002065  10.837906   9.595534  12.064735  13.287058
    35  H    4.873461   4.067686   2.663990   5.025061   6.368974
    36  H    4.067295   4.873304   4.587026   6.259605   6.910452
    37  H    2.156087   3.451412   3.904054   4.619186   4.894889
    38  H    3.451362   2.156136   1.088167   2.700043   4.087479
    39  H    3.451954   2.157678   2.698281   1.088196   2.145153
    40  H    2.157775   3.451983   4.618720   3.901995   3.442649
    41  H    4.111028   4.915905   6.299210   4.621453   3.460761
    42  H    5.860649   6.162486   7.551885   5.310978   3.919487
    43  H    6.162654   5.860680   7.071579   4.602977   3.426130
    44  H    4.915895   4.110861   5.061229   2.702752   2.172779
    45  H    5.999791   6.783366   6.362706   8.180052   8.845645
    46  H    8.439037   9.201182   8.687243  10.604253  11.285739
    47  H    9.976614  10.453921   9.648572  11.859133  12.746554
    48  H   10.453752   9.976742   8.615457  11.035677  12.358858
    49  H    9.201165   8.439294   7.032263   9.298253  10.674757
    50  H    6.783186   5.999860   4.593429   6.895275   8.261089
                   21         22         23         24         25
    21  C    0.000000
    22  C    1.391583   0.000000
    23  C    1.434418   2.475143   0.000000
    24  C    2.438622   3.717314   1.366669   0.000000
    25  C    2.833188   4.224520   2.429747   1.431414   0.000000
    26  C    2.480703   3.749613   2.819302   2.429557   1.366552
    27  C    8.967340   7.635857  10.076703  11.353135  11.707360
    28  C   10.321331   8.974038  11.393252  12.687744  13.080350
    29  C   11.320285  10.010989  12.465678  13.725597  14.017510
    30  C   11.677556  10.776499  13.089633  14.017390  13.725663
    31  C   10.807296  10.020803  12.236425  13.080349  12.687912
    32  C    9.418224   8.623224  10.845562  11.707311  11.353242
    33  H   13.286865  12.064533  14.539494  15.724310  15.836277
    34  H   13.421103  12.348867  14.776771  15.836246  15.724472
    35  H    6.910728   6.259858   8.345018   9.137995   8.741566
    36  H    6.368512   5.024640   7.461295   8.741147   9.137704
    37  H    4.087328   2.699946   5.063558   6.376580   6.914285
    38  H    4.894910   4.619218   6.301999   6.914273   6.376668
    39  H    3.442636   3.901987   4.623114   4.863028   4.062816
    40  H    2.145098   1.088204   2.702624   4.062829   4.863133
    41  H    2.172805   2.702848   1.087417   2.136380   3.422440
    42  H    3.426085   4.602883   2.131162   1.086665   2.179948
    43  H    3.919660   5.311097   3.402401   2.179915   1.086677
    44  H    3.460843   4.621472   3.906838   3.422444   2.136447
    45  H    8.260910   6.895134   9.288148  10.597113  11.052311
    46  H   10.674365   9.297901  11.651200  12.978702  13.478641
    47  H   12.358659  11.035496  13.478578  14.752652  15.074300
    48  H   12.746499  11.859029  14.162109  15.074298  14.752833
    49  H   11.285890  10.604332  12.720289  13.478853  12.979089
    50  H    8.845606   8.179968  10.279993  11.052311  10.597270
                   26         27         28         29         30
    26  C    0.000000
    27  C   10.845663   0.000000
    28  C   12.236487   1.397602   0.000000
    29  C   13.089833   2.412000   1.384140   0.000000
    30  C   12.465854   6.171667   6.471894   5.656295   0.000000
    31  C   11.393526   6.501741   7.066560   6.472050   1.384163
    32  C   10.076909   5.705729   6.501827   6.171921   2.412009
    33  H   14.776897   4.844277   4.059197   2.679888   4.597252
    34  H   14.539761   6.127115   5.823099   4.597247   2.679981
    35  H    7.461801   5.924290   7.114867   7.289446   5.012113
    36  H    8.344749   2.615462   3.952944   5.012419   7.289247
    37  H    6.301981   5.039855   6.333498   7.446483   9.147871
    38  H    5.063735   7.340638   8.682845   9.148209   7.446543
    39  H    2.702720   9.209664  10.599778  11.249019   9.915366
    40  H    4.623137   7.506275   8.780115   9.915212  11.248739
    41  H    3.906717   9.977245  11.239535  12.387200  13.479199
    42  H    3.402246  12.203845  13.513286  14.595527  15.071190
    43  H    2.131186  12.773898  14.150729  15.071372  14.595733
    44  H    1.087538  11.315493  12.712925  13.479324  12.387244
    45  H   10.280038   1.083806   2.132454   3.377820   7.095452
    46  H   12.720143   2.151479   1.086570   2.147741   7.541488
    47  H   14.162189   3.401887   2.152298   1.087085   6.251691
    48  H   13.478867   7.057287   7.209994   6.251742   1.087201
    49  H   11.651699   7.572791   8.153078   7.541576   2.147682
    50  H    9.288409   6.360183   7.293355   7.095657   3.377825
                   31         32         33         34         35
    31  C    0.000000
    32  C    1.397624   0.000000
    33  H    5.823191   6.127275   0.000000
    34  H    4.059326   4.844466   2.466748   0.000000
    35  H    3.952659   2.615151   8.058229   7.260764   0.000000
    36  H    7.114753   5.924177   7.260850   8.058272   4.952461
    37  H    8.682637   7.340436   9.675490  10.292194   5.538463
    38  H    6.333602   5.039916  10.292383   9.675717   2.439466
    39  H    8.780339   7.506434  12.626544  12.129384   4.910054
    40  H   10.599641   9.209517  12.129106  12.626365   6.987256
    41  H   12.712935  11.315476  14.591306  15.007554   8.901946
    42  H   14.150683  12.773801  16.663415  16.847135  10.213073
    43  H   13.513596  12.204081  16.847257  16.663697   9.589237
    44  H   11.239657   9.977292  15.007587  14.591456   7.383099
    45  H    7.293312   6.360207   5.903937   7.199817   6.151579
    46  H    8.153111   7.572873   4.755099   6.738164   8.056797
    47  H    7.210071   7.057446   2.433630   4.738343   8.330192
    48  H    2.152349   3.401970   4.738372   2.433684   6.017094
    49  H    1.086537   2.151552   6.738131   4.755067   4.376447
    50  H    2.132484   1.083755   7.199922   5.904086   1.936220
                   36         37         38         39         40
    36  H    0.000000
    37  H    2.439118   0.000000
    38  H    5.538334   4.992220   0.000000
    39  H    6.987023   5.569175   2.470634   0.000000
    40  H    4.909624   2.470553   5.569219   4.990191   0.000000
    41  H    7.382786   4.943722   7.026606   5.571212   2.473171
    42  H    9.588707   7.180018   8.000562   5.930196   4.766251
    43  H   10.212818   8.000590   7.180216   4.766365   5.930288
    44  H    8.901597   7.026523   4.943687   2.473054   5.571240
    45  H    1.936558   4.224763   7.225969   8.868540   6.655725
    46  H    4.376602   6.605402   9.474061  11.258405   8.980169
    47  H    6.017322   8.435875  10.228289  12.336063  10.896659
    48  H    8.330122  10.228071   8.436022  10.896914  12.335902
    49  H    8.056736   9.473974   6.605668   8.980598  11.258434
    50  H    6.151403   7.225771   4.224835   6.655926   8.868427
                   41         42         43         44         45
    41  H    0.000000
    42  H    2.466824   0.000000
    43  H    4.306473   2.494911   0.000000
    44  H    4.994252   4.306551   2.467072   0.000000
    45  H    9.110303  11.401238  12.131188  10.834028   0.000000
    46  H   11.397741  13.745315  14.559849  13.268459   2.440263
    47  H   13.363465  15.605436  16.132347  14.561865   4.275995
    48  H   14.561860  16.132287  15.605759  13.363616   8.025679
    49  H   13.268654  14.560029  13.745862  11.398088   8.340237
    50  H   10.834049  12.131154  11.401535   9.110402   6.883872
                   46         47         48         49         50
    46  H    0.000000
    47  H    2.486308   0.000000
    48  H    8.251969   6.700867   0.000000
    49  H    9.239624   8.251960   2.486188   0.000000
    50  H    8.340256   8.025783   4.276072   2.440447   0.000000
 Stoichiometry    C32H18
 Framework group  C1[X(C32H18)]
 Deg. of freedom   144
 Full point group                 C1      NOp   1
 Largest Abelian subgroup         C1      NOp   1
 Largest concise Abelian subgroup C1      NOp   1
                         Standard orientation:                         
 ---------------------------------------------------------------------
 Center     Atomic      Atomic             Coordinates (Angstroms)
 Number     Number       Type             X           Y           Z
 ---------------------------------------------------------------------
      1          6           0        6.510389    0.679302    0.002384
      2          6           0        6.510469   -0.679088   -0.001833
      3          6           0        5.282093   -1.420980   -0.003726
      4          6           0        4.036860   -0.720945   -0.001639
      5          6           0        4.036881    0.720932    0.001136
      6          6           0        5.282029    1.421128    0.004083
      7          6           0        2.815078    1.454801    0.001166
      8          6           0        1.533037    0.727751   -0.002267
      9          6           0        1.533029   -0.727887    0.001126
     10          6           0        2.815096   -1.454902   -0.001855
     11          6           0        0.322396   -1.392192    0.006162
     12          6           0       -0.931239   -0.723441    0.004083
     13          6           0       -0.931070    0.723159   -0.005368
     14          6           0        0.322414    1.391866   -0.007423
     15          6           0       -2.147955    1.407845   -0.010812
     16          6           0       -3.380109    0.727360   -0.006027
     17          6           0       -3.380246   -0.727510    0.005416
     18          6           0       -2.148084   -1.408004    0.009813
     19          6           0       -4.617627   -1.406846    0.011367
     20          6           0       -5.831532   -0.726359    0.006196
     21          6           0       -5.831401    0.726486   -0.005887
     22          6           0       -4.617493    1.406852   -0.011546
     23          6           0       -7.092634    1.409724   -0.011410
     24          6           0       -8.269999    0.715781   -0.005267
     25          6           0       -8.270095   -0.715584    0.006608
     26          6           0       -7.092835   -1.409479    0.012215
     27          6           0        2.880183    2.852829    0.006242
     28          6           0        4.100947    3.533281    0.010036
     29          6           0        5.292057    2.828230    0.008577
     30          6           0        5.292026   -2.828043   -0.007518
     31          6           0        4.100984   -3.533254   -0.008888
     32          6           0        2.880146   -2.852887   -0.006027
     33          1           0        7.445784    1.233474    0.004440
     34          1           0        7.445850   -1.233261   -0.003338
     35          1           0        0.292303   -2.476342    0.011345
     36          1           0        0.292069    2.476062   -0.012496
     37          1           0       -2.146961    2.495950   -0.018246
     38          1           0       -2.147075   -2.496144    0.017311
     39          1           0       -4.617707   -2.495008    0.019988
     40          1           0       -4.617512    2.495021   -0.020175
     41          1           0       -7.090683    2.497103   -0.020305
     42          1           0       -9.217620    1.247607   -0.009424
     43          1           0       -9.217835   -1.247220    0.011086
     44          1           0       -7.090760   -2.496979    0.020927
     45          1           0        1.970451    3.441912    0.008093
     46          1           0        4.107593    4.619821    0.014425
     47          1           0        6.245468    3.350487    0.011682
     48          1           0        6.245546   -3.350347   -0.009520
     49          1           0        4.107859   -4.619763   -0.012519
     50          1           0        1.970456   -3.441941   -0.007984
 ---------------------------------------------------------------------
 Rotational constants (GHZ):      0.4184664      0.0578134      0.0507959
 Leave Link  202 at Sat Jul 27 14:44:15 2019, MaxMem=  4194304000 cpu:         1.2
 (Enter /home/minenky/programs//g09/l301.exe)
 Standard basis: def2TZVP (5D, 7F)
 ======================================================================================================
                                       Pseudopotential Parameters
 ======================================================================================================
  Center     Atomic      Valence      Angular      Power
  Number     Number     Electrons     Momentum     of R      Exponent        Coefficient   SO-Coeffient
 ======================================================================================================
    1          6
                                   No pseudopotential on this center.
    2          6
                                   No pseudopotential on this center.
    3          6
                                   No pseudopotential on this center.
    4          6
                                   No pseudopotential on this center.
    5          6
                                   No pseudopotential on this center.
    6          6
                                   No pseudopotential on this center.
    7          6
                                   No pseudopotential on this center.
    8          6
                                   No pseudopotential on this center.
    9          6
                                   No pseudopotential on this center.
   10          6
                                   No pseudopotential on this center.
   11          6
                                   No pseudopotential on this center.
   12          6
                                   No pseudopotential on this center.
   13          6
                                   No pseudopotential on this center.
   14          6
                                   No pseudopotential on this center.
   15          6
                                   No pseudopotential on this center.
   16          6
                                   No pseudopotential on this center.
   17          6
                                   No pseudopotential on this center.
   18          6
                                   No pseudopotential on this center.
   19          6
                                   No pseudopotential on this center.
   20          6
                                   No pseudopotential on this center.
   21          6
                                   No pseudopotential on this center.
   22          6
                                   No pseudopotential on this center.
   23          6
                                   No pseudopotential on this center.
   24          6
                                   No pseudopotential on this center.
   25          6
                                   No pseudopotential on this center.
   26          6
                                   No pseudopotential on this center.
   27          6
                                   No pseudopotential on this center.
   28          6
                                   No pseudopotential on this center.
   29          6
                                   No pseudopotential on this center.
   30          6
                                   No pseudopotential on this center.
   31          6
                                   No pseudopotential on this center.
   32          6
                                   No pseudopotential on this center.
   33          1
                                   No pseudopotential on this center.
   34          1
                                   No pseudopotential on this center.
   35          1
                                   No pseudopotential on this center.
   36          1
                                   No pseudopotential on this center.
   37          1
                                   No pseudopotential on this center.
   38          1
                                   No pseudopotential on this center.
   39          1
                                   No pseudopotential on this center.
   40          1
                                   No pseudopotential on this center.
   41          1
                                   No pseudopotential on this center.
   42          1
                                   No pseudopotential on this center.
   43          1
                                   No pseudopotential on this center.
   44          1
                                   No pseudopotential on this center.
   45          1
                                   No pseudopotential on this center.
   46          1
                                   No pseudopotential on this center.
   47          1
                                   No pseudopotential on this center.
   48          1
                                   No pseudopotential on this center.
   49          1
                                   No pseudopotential on this center.
   50          1
                                   No pseudopotential on this center.
 ======================================================================================================
 Ernie: Thresh=  0.10000D-02 Tol=  0.10000D-05 Strict=F.
 AO basis set (Overlap normalization):
 Atom C1       Shell     1 S   6     bf    1 -     1         12.302852525918          1.283694493684          0.004505538560
      0.1357534968D+05  0.6064550360D-03
      0.2035233368D+04  0.4697908888D-02
      0.4632256236D+03  0.2433247765D-01
      0.1312001960D+03  0.9739996831D-01
      0.4285301589D+02  0.3019558425D+00
      0.1558418577D+02  0.6623360914D+00
 Atom C1       Shell     2 S   2     bf    2 -     2         12.302852525918          1.283694493684          0.004505538560
      0.6206713851D+01  0.6559530854D+00
      0.2576489653D+01  0.3758563329D+00
 Atom C1       Shell     3 S   1     bf    3 -     3         12.302852525918          1.283694493684          0.004505538560
      0.5769633942D+00  0.1000000000D+01
 Atom C1       Shell     4 S   1     bf    4 -     4         12.302852525918          1.283694493684          0.004505538560
      0.2297283136D+00  0.1000000000D+01
 Atom C1       Shell     5 S   1     bf    5 -     5         12.302852525918          1.283694493684          0.004505538560
      0.9516444003D-01  0.1000000000D+01
 Atom C1       Shell     6 P   4     bf    6 -     8         12.302852525918          1.283694493684          0.004505538560
      0.3469723224D+02  0.1132722000D-01
      0.7958262283D+01  0.7616965920D-01
      0.2378082688D+01  0.3019225220D+00
      0.8143320818D+00  0.7278502735D+00
 Atom C1       Shell     7 P   1     bf    9 -    11         12.302852525918          1.283694493684          0.004505538560
      0.2888754725D+00  0.1000000000D+01
 Atom C1       Shell     8 P   1     bf   12 -    14         12.302852525918          1.283694493684          0.004505538560
      0.1005682367D+00  0.1000000000D+01
 Atom C1       Shell     9 D   1     bf   15 -    19         12.302852525918          1.283694493684          0.004505538560
      0.1097000000D+01  0.1000000000D+01
 Atom C1       Shell    10 D   1     bf   20 -    24         12.302852525918          1.283694493684          0.004505538560
      0.3180000000D+00  0.1000000000D+01
 Atom C1       Shell    11 F   1     bf   25 -    31         12.302852525918          1.283694493684          0.004505538560
      0.7610000000D+00  0.1000000000D+01
 Atom C2       Shell    12 S   6     bf   32 -    32         12.303004202700         -1.283289862081         -0.003463872068
      0.1357534968D+05  0.6064550360D-03
      0.2035233368D+04  0.4697908888D-02
      0.4632256236D+03  0.2433247765D-01
      0.1312001960D+03  0.9739996831D-01
      0.4285301589D+02  0.3019558425D+00
      0.1558418577D+02  0.6623360914D+00
 Atom C2       Shell    13 S   2     bf   33 -    33         12.303004202700         -1.283289862081         -0.003463872068
      0.6206713851D+01  0.6559530854D+00
      0.2576489653D+01  0.3758563329D+00
 Atom C2       Shell    14 S   1     bf   34 -    34         12.303004202700         -1.283289862081         -0.003463872068
      0.5769633942D+00  0.1000000000D+01
 Atom C2       Shell    15 S   1     bf   35 -    35         12.303004202700         -1.283289862081         -0.003463872068
      0.2297283136D+00  0.1000000000D+01
 Atom C2       Shell    16 S   1     bf   36 -    36         12.303004202700         -1.283289862081         -0.003463872068
      0.9516444003D-01  0.1000000000D+01
 Atom C2       Shell    17 P   4     bf   37 -    39         12.303004202700         -1.283289862081         -0.003463872068
      0.3469723224D+02  0.1132722000D-01
      0.7958262283D+01  0.7616965920D-01
      0.2378082688D+01  0.3019225220D+00
      0.8143320818D+00  0.7278502735D+00
 Atom C2       Shell    18 P   1     bf   40 -    42         12.303004202700         -1.283289862081         -0.003463872068
      0.2888754725D+00  0.1000000000D+01
 Atom C2       Shell    19 P   1     bf   43 -    45         12.303004202700         -1.283289862081         -0.003463872068
      0.1005682367D+00  0.1000000000D+01
 Atom C2       Shell    20 D   1     bf   46 -    50         12.303004202700         -1.283289862081         -0.003463872068
      0.1097000000D+01  0.1000000000D+01
 Atom C2       Shell    21 D   1     bf   51 -    55         12.303004202700         -1.283289862081         -0.003463872068
      0.3180000000D+00  0.1000000000D+01
 Atom C2       Shell    22 F   1     bf   56 -    62         12.303004202700         -1.283289862081         -0.003463872068
      0.7610000000D+00  0.1000000000D+01
 Atom C3       Shell    23 S   6     bf   63 -    63          9.981709015514         -2.685262720211         -0.007040507149
      0.1357534968D+05  0.6064550360D-03
      0.2035233368D+04  0.4697908888D-02
      0.4632256236D+03  0.2433247765D-01
      0.1312001960D+03  0.9739996831D-01
      0.4285301589D+02  0.3019558425D+00
      0.1558418577D+02  0.6623360914D+00
 Atom C3       Shell    24 S   2     bf   64 -    64          9.981709015514         -2.685262720211         -0.007040507149
      0.6206713851D+01  0.6559530854D+00
      0.2576489653D+01  0.3758563329D+00
 Atom C3       Shell    25 S   1     bf   65 -    65          9.981709015514         -2.685262720211         -0.007040507149
      0.5769633942D+00  0.1000000000D+01
 Atom C3       Shell    26 S   1     bf   66 -    66          9.981709015514         -2.685262720211         -0.007040507149
      0.2297283136D+00  0.1000000000D+01
 Atom C3       Shell    27 S   1     bf   67 -    67          9.981709015514         -2.685262720211         -0.007040507149
      0.9516444003D-01  0.1000000000D+01
 Atom C3       Shell    28 P   4     bf   68 -    70          9.981709015514         -2.685262720211         -0.007040507149
      0.3469723224D+02  0.1132722000D-01
      0.7958262283D+01  0.7616965920D-01
      0.2378082688D+01  0.3019225220D+00
      0.8143320818D+00  0.7278502735D+00
 Atom C3       Shell    29 P   1     bf   71 -    73          9.981709015514         -2.685262720211         -0.007040507149
      0.2888754725D+00  0.1000000000D+01
 Atom C3       Shell    30 P   1     bf   74 -    76          9.981709015514         -2.685262720211         -0.007040507149
      0.1005682367D+00  0.1000000000D+01
 Atom C3       Shell    31 D   1     bf   77 -    81          9.981709015514         -2.685262720211         -0.007040507149
      0.1097000000D+01  0.1000000000D+01
 Atom C3       Shell    32 D   1     bf   82 -    86          9.981709015514         -2.685262720211         -0.007040507149
      0.3180000000D+00  0.1000000000D+01
 Atom C3       Shell    33 F   1     bf   87 -    93          9.981709015514         -2.685262720211         -0.007040507149
      0.7610000000D+00  0.1000000000D+01
 Atom C4       Shell    34 S   6     bf   94 -    94          7.628559786973         -1.362388680568         -0.003096778618
      0.1357534968D+05  0.6064550360D-03
      0.2035233368D+04  0.4697908888D-02
      0.4632256236D+03  0.2433247765D-01
      0.1312001960D+03  0.9739996831D-01
      0.4285301589D+02  0.3019558425D+00
      0.1558418577D+02  0.6623360914D+00
 Atom C4       Shell    35 S   2     bf   95 -    95          7.628559786973         -1.362388680568         -0.003096778618
      0.6206713851D+01  0.6559530854D+00
      0.2576489653D+01  0.3758563329D+00
 Atom C4       Shell    36 S   1     bf   96 -    96          7.628559786973         -1.362388680568         -0.003096778618
      0.5769633942D+00  0.1000000000D+01
 Atom C4       Shell    37 S   1     bf   97 -    97          7.628559786973         -1.362388680568         -0.003096778618
      0.2297283136D+00  0.1000000000D+01
 Atom C4       Shell    38 S   1     bf   98 -    98          7.628559786973         -1.362388680568         -0.003096778618
      0.9516444003D-01  0.1000000000D+01
 Atom C4       Shell    39 P   4     bf   99 -   101          7.628559786973         -1.362388680568         -0.003096778618
      0.3469723224D+02  0.1132722000D-01
      0.7958262283D+01  0.7616965920D-01
      0.2378082688D+01  0.3019225220D+00
      0.8143320818D+00  0.7278502735D+00
 Atom C4       Shell    40 P   1     bf  102 -   104          7.628559786973         -1.362388680568         -0.003096778618
      0.2888754725D+00  0.1000000000D+01
 Atom C4       Shell    41 P   1     bf  105 -   107          7.628559786973         -1.362388680568         -0.003096778618
      0.1005682367D+00  0.1000000000D+01
 Atom C4       Shell    42 D   1     bf  108 -   112          7.628559786973         -1.362388680568         -0.003096778618
      0.1097000000D+01  0.1000000000D+01
 Atom C4       Shell    43 D   1     bf  113 -   117          7.628559786973         -1.362388680568         -0.003096778618
      0.3180000000D+00  0.1000000000D+01
 Atom C4       Shell    44 F   1     bf  118 -   124          7.628559786973         -1.362388680568         -0.003096778618
      0.7610000000D+00  0.1000000000D+01
 Atom C5       Shell    45 S   6     bf  125 -   125          7.628598860023          1.362364723637          0.002147476359
      0.1357534968D+05  0.6064550360D-03
      0.2035233368D+04  0.4697908888D-02
      0.4632256236D+03  0.2433247765D-01
      0.1312001960D+03  0.9739996831D-01
      0.4285301589D+02  0.3019558425D+00
      0.1558418577D+02  0.6623360914D+00
 Atom C5       Shell    46 S   2     bf  126 -   126          7.628598860023          1.362364723637          0.002147476359
      0.6206713851D+01  0.6559530854D+00
      0.2576489653D+01  0.3758563329D+00
[...]
 00012149,-0.00006213,0.00002604,-0.00001838,0.00012973,-0.00000605,0.0
 0010570,-0.00006018,-0.00001310,-0.00031125,0.00015270,0.00005953,-0.0
 0005099,0.00000752,0.00002476,-0.00000714,-0.00000540,0.00000159,-0.00
 004679,0.00007576,0.00001200,0.00000077,0.00000680,-0.00000049,-0.0000
 0397,-0.00000149,0.00000089,-0.00000260,0.00000037,0.00000048,0.000002
 80,0.00000067,-0.00000043,0.00000272,0.00000022,-0.00000042,0.00000064
 ,-0.00000289,0.00000014,-0.00000110,-0.00000258,0.00000042,-0.00000234
 ,0.00000057,0.00000040,-0.00078443,-0.00101317,0.00020694,0.00025549,0
 .00080955,-0.00041569,0.13239382,0.26992992,-0.00092107,0.00001749,-0.
 00348852,-0.00001639,-0.00008679,-0.00009146,-0.00001681,0.00001595,0.
 00004969,0.00001121,0.00028203,0.00005550,0.00181057,0.00003231,0.0058
 8756,0.00232124,0.00460697,0.00222663,-0.00008945,-0.00022846,-0.00106
 349,-0.00017233,-0.00007328,-0.00091075,0.00001342,-0.00001306,0.00005
 318,0.00008956,-0.00003280,0.00007400,0.00000454,0.00000846,0.00003359
 ,0.00000183,-0.00000484,-0.00000495,-0.00001218,-0.00000559,-0.0000486
 8,0.00000304,0.00001115,0.00002448,0.00000244,0.00000417,0.00000472,-0
 .00000352,-0.00000193,-0.00000908,0.00000198,-0.00000209,0.00000170,-0
 .00000025,0.00000379,0.00000748,-0.00000142,0.00000131,-0.00000071,0.0
 0000089,-0.00000079,-0.00000048,-0.00000101,-0.00000003,0.00000184,0.0
 0000097,0.00000115,-0.00000232,0.00000100,-0.00000011,-0.00000072,-0.0
 0000054,0.00000080,-0.00000087,0.00000015,0.00000049,-0.00000044,-0.00
 000112,0.00000008,-0.00000065,0.00112717,0.00030388,0.00786186,-0.0001
 8878,-0.00075036,0.00302442,0.02657315,0.03727541,-0.04330182,-0.00000
 617,-0.00001634,0.00001060,0.00001073,-0.00000021,0.00000377,0.0000034
 2,0.00002204,0.00000526,0.00011563,-0.00021823,0.00023261,0.00004598,0
 .00001306,0.00021480,0.00000049,-0.00000007,-0.00000051,0.00002072,0.0
 0000898,0.00012519,-0.00000006,0.00000011,0.00000200,0.00000039,-0.000
 00007,0.00000128,0.00000039,-0.00000001,0.00000084,-0.00000013,0.00000
 013,0.00000129,-0.00000014,0.00000006,0.00000091,0.,0.00000033,0.00000
 048,0.00000022,0.00000033,0.00000043,0.00000035,-0.00000004,0.00000052
 ,-0.00000386,-0.00004374,-0.00003087,-0.00084863,-0.00028335,-0.004042
 25,-0.02988500,-0.04084022,0.03314951,0.00018138,-0.00046467,-0.000013
 91,0.00099572,0.00195204,-0.00094001,-0.00823223,0.02891265,-0.0002234
 5,-0.00499468,-0.00087128,0.00198316,-0.00000649,0.00162420,-0.0001058
 3,0.00006402,0.00020845,-0.00001819,-0.00039944,-0.00016161,0.00009533
 ,-0.00003979,-0.00013778,0.00002637,0.00009514,-0.00007920,-0.00017252
 ,-0.00110015,-0.00065407,0.00004922,-0.00000749,0.00002242,0.00000404,
 0.00004162,-0.00000014,-0.00001589,-0.00001343,-0.00004177,0.00000454,
 0.00002798,0.00004782,-0.00000234,0.00000940,0.00002560,-0.00000218,-0
 .00000999,-0.00001628,0.00000324,0.00000840,-0.00001323,-0.00000214,-0
 .00000104,0.00002502,-0.00000074,0.00000083,0.00000998,-0.00000124,0.0
 0000581,-0.00000563,-0.00000029,-0.00000589,-0.00000663,0.00000143,0.0
 0000174,0.00001045,-0.00000122,0.00000059,0.00000319,-0.00000048,-0.00
 000273,-0.00000138,0.00000050,0.00000355,-0.00000059,-0.00000072,-0.00
 000031,0.00000293,-0.00000026,-0.00005878,0.00010103,0.00000387,-0.000
 03734,0.00007471,0.00000182,0.00009359,-0.00014780,-0.00000366,-0.1088
 3605,0.10659274,0.00458610,0.01182206,-0.01735012,-0.00023709,-0.00111
 137,-0.00317991,0.00181050,-0.00001708,-0.00000733,0.00004180,-0.00041
 812,-0.00121924,0.00020250,0.00003919,0.00003638,0.00001277,0.00000027
 ,-0.00000330,0.00000012,0.00000106,-0.00000192,0.00000019,0.00000231,0
 .00000329,-0.00000030,0.00000053,0.00000052,0.00000009,0.00000006,-0.0
 0000025,0.00000016,-0.00000016,-0.00000010,0.00000013,-0.00000013,0.00
 000029,0.00000009,0.00000018,0.00000008,0.00000005,0.00000022,0.000000
 10,0.00000011,-0.00006108,0.00000443,-0.00000212,0.00000039,-0.0000066
 6,-0.00000024,-0.00003261,-0.00000565,0.00000918,0.11102146,0.00041448
 ,0.00005594,-0.00008264,-0.00189149,0.00091911,-0.00001407,-0.00051968
 ,-0.00058783,0.00035241,0.00016567,0.00148948,0.00032071,-0.00039556,-
 0.00017221,0.00008636,-0.00016991,0.00025683,0.00001364,0.00016620,0.0
 0001534,-0.00002318,-0.00000022,-0.00006093,0.00000859,0.00003528,-0.0
 0003458,-0.00007357,-0.00064202,0.00034279,0.00000342,-0.00003853,-0.0
 0005806,0.00001281,0.00003522,0.00002658,-0.00001180,0.00001139,-0.000
 02725,-0.00000030,0.00002463,0.00001926,-0.00000305,-0.00000481,0.0000
 1134,0.00000056,0.00000359,-0.00000673,0.00000002,-0.00000382,-0.00000
 609,0.00000038,0.00000918,-0.00000017,-0.00000116,0.00001347,0.0000010
 3,-0.00000254,-0.00000357,-0.00000587,0.00000117,0.00000110,-0.0000046
 6,0.00000013,-0.00001223,0.00000523,0.00000164,-0.00000944,0.00000552,
 0.00000115,-0.00000296,-0.00000808,0.00000108,0.00000071,-0.00000943,0
 .00000051,0.00001098,0.00000387,-0.00000221,-0.00010401,-0.00005946,0.
 00002278,0.00004062,0.00011538,-0.00001510,0.00009949,-0.00005808,-0.0
 0001213,0.10691609,-0.29018092,0.00051408,0.01386881,-0.01792234,-0.00
 083112,-0.00398042,-0.00223065,0.00144611,0.00006088,0.00000079,0.0000
 0608,0.00040157,0.00029263,-0.00007300,0.00005394,0.00006294,-0.000004
 32,0.00000641,-0.00000600,-0.00000069,0.00000366,-0.00000180,-0.000000
 39,-0.00000021,0.00000641,-0.00000029,-0.00000276,0.00000102,0.0000004
 9,0.00000266,0.,-0.00000039,0.00000246,0.00000023,-0.00000040,0.000000
 81,-0.00000279,0.00000010,-0.00000102,-0.00000281,0.00000042,-0.000002
 70,0.00000062,0.00000048,0.00000898,-0.00000667,-0.00000635,0.00000605
 ,0.00000160,-0.00000144,0.00001217,0.00000774,-0.00000129,-0.11482528,
 0.30802648,-0.00007906,0.00006803,-0.00009219,-0.00065517,-0.00067278,
 -0.00348293,0.00195764,-0.00469176,0.00297803,0.00190629,0.00049839,0.
 00583660,0.00004385,-0.00025979,0.00009006,0.00000984,-0.00005120,0.00
 005010,0.00007104,0.00003300,0.00007230,0.00001617,0.00003217,0.000049
 36,-0.00018099,-0.00005396,-0.00091070,0.00004837,0.00000549,-0.001104
 45,0.00000858,0.00000237,0.00002418,-0.00001852,-0.00000573,-0.0000475
 9,0.00000060,0.00000881,-0.00000576,-0.00000063,-0.00000703,0.00003562
 ,0.00000007,-0.00000466,0.00000805,0.00000177,0.00000343,0.00000133,-0
 .00000284,0.00000199,-0.00000949,0.00000043,-0.00000388,0.00000566,-0.
 00000149,-0.00000194,-0.00000166,-0.00000045,0.00000152,0.00000163,0.0
 0000086,0.00000145,-0.00000064,0.00000046,-0.00000224,-0.00000077,0.00
 000046,-0.00000102,-0.00000084,0.00000062,0.00000081,-0.00000055,-0.00
 000082,0.00000073,-0.00000082,-0.00000086,-0.00000083,-0.00000035,0.00
 001906,-0.00001236,0.00000513,0.00000435,-0.00002094,0.00000640,-0.000
 02198,0.00003025,0.00000986,0.00456216,0.00056948,-0.03680953,-0.00255
 061,0.00451929,0.00303869,0.00186982,0.00130892,0.00766009,0.00003674,
 0.00001777,0.00021604,0.00008239,0.00020478,0.00020696,0.00001146,-0.0
 0000131,0.00012754,-0.00000060,0.00000098,-0.00000041,-0.00000022,0.00
 000056,0.00000134,-0.00000004,-0.00000089,0.00000207,0.00000033,-0.000
 00007,0.00000123,-0.00000005,0.00000011,0.00000090,-0.00000006,0.00000
 004,0.00000058,0.00000005,0.00000019,0.00000047,0.00000013,0.00000023,
 0.00000047,0.00000032,0.,0.00000084,-0.00000246,-0.00000557,-0.0000707
 3,-0.00000118,0.00000073,-0.00000375,0.00000786,0.00000177,0.00001705,
 -0.00623302,-0.00129504,0.02616559,-0.00014928,-0.00035189,-0.00002301
 ,-0.00065670,0.00058346,0.00010054,0.00058203,-0.00325427,0.00159765,0
 .00060323,-0.00015779,-0.00025193,-0.00000776,0.00000453,-0.00015299,0
 .00005882,-0.00006148,0.00000849,-0.00001949,-0.00000128,0.00001383,0.
 00002023,0.00023222,-0.00006553,-0.00047131,-0.00033688,0.00012970,0.0
 0130683,0.00242525,0.00083272,-0.00005899,0.00003274,0.00003834,0.0000
 4116,-0.00001719,-0.00001513,-0.00000864,0.00000718,0.00000403,-0.0000
 7844,-0.00001872,0.00001220,0.00001511,-0.00000092,-0.00000245,-0.0000
 0645,0.00001033,0.00000007,0.00001812,0.00000006,-0.00000335,-0.000041
 16,0.00001580,0.00000720,-0.00002349,0.00000262,0.00000297,0.00000551,
 0.00000195,-0.00000103,-0.00000497,0.00000958,0.00000014,0.00001619,-0
 .00000273,-0.00000261,0.00001279,-0.00000644,-0.00000185,-0.00000019,0
 .00001341,-0.00000110,-0.00000268,0.00000760,-0.00000030,-0.00001339,-
 0.00000293,0.00000232,-0.00000404,0.00004805,0.00000982,0.00001432,-0.
 00001279,-0.00000232,-0.00001956,0.00002019,0.00001125,-0.01286572,0.0
 0454757,0.00233787,-0.33215177,0.02301968,0.04889284,-0.00891017,-0.00
 182184,0.00201407,-0.00009103,0.00001087,0.00001106,0.00001054,-0.0000
 3526,0.00001563,-0.00001397,-0.00000370,-0.00000302,-0.00001367,0.0000
 2068,-0.00000270,-0.00000397,0.00000029,0.00000122,0.00000543,0.000000
 67,0.00000026,0.00000446,0.00000040,-0.00000024,-0.00000334,0.00000039
 ,0.00000074,-0.00000278,0.00000014,0.00000060,-0.00000055,0.00000276,0
 .,0.00000117,0.00000354,-0.00000032,0.00000363,-0.00000036,-0.00000032
 ,-0.00000359,0.00000544,-0.00000027,-0.00000997,0.00000238,0.00000098,
 0.00000047,-0.00000603,-0.00000030,0.00065090,-0.00037281,-0.00080524,
 0.35153180,-0.00042137,-0.00023380,0.00005725,-0.00079741,0.00080265,0
 .00009068,-0.00267037,-0.00425012,0.00140230,-0.00041551,-0.00127462,0
 .00009638,0.00020172,0.00010591,-0.00010900,0.00025754,-0.00026906,-0.
 00001814,-0.00022959,-0.00000445,0.00004417,0.00002707,-0.00039722,0.0
 0000540,0.00125279,0.00065074,-0.00025258,0.00202382,-0.00491392,0.000
 55192,0.00001227,-0.00002123,0.00001274,-0.00007450,0.00004173,0.00000
 563,0.00001223,0.00004027,-0.00000375,0.00015724,0.00000423,-0.0000284
 0,-0.00001122,-0.00002506,0.00000381,0.00001351,0.00000965,-0.00000315
 ,-0.00002874,0.00001985,0.00000335,0.00004048,-0.00004771,-0.00000283,
 0.00001480,-0.00001554,-0.00000176,-0.00001057,0.00000807,0.00000124,0
 .00000951,-0.00000016,-0.00000162,-0.00000801,-0.00000968,0.00000207,-
 0.00000583,-0.00000068,0.00000099,0.00000529,-0.00000574,-0.00000054,-
 0.00000193,0.00000075,0.00000019,0.00000579,-0.00000349,-0.00000082,0.
 00016074,0.00011377,-0.00003049,-0.00000870,-0.00017809,0.00001434,-0.
 00015920,0.00013226,0.00002154,-0.02668891,0.00736643,0.00423134,0.022
 92784,-0.06248378,-0.00203481,0.02923640,0.00203101,-0.00500903,-0.000
 13043,0.00000998,0.00002000,0.00001976,-0.00003490,0.00000561,-0.00000
 975,-0.00002349,0.00000095,0.00002482,-0.00004799,-0.00000222,0.000001
 39,0.00000057,-0.00000004,-0.00000589,-0.00000479,0.00000190,-0.000002
 95,-0.00000207,0.00000090,0.00000110,-0.00000023,-0.00000009,0.0000007
 5,-0.00000026,-0.00000005,-0.00000011,-0.00000053,0.00000011,-0.000000
 24,-0.00000138,0.00000021,-0.00000175,-0.00000050,0.00000046,-0.000006
 26,0.00000141,0.00000076,-0.00000074,0.00000152,-0.00000022,0.00000667
 ,0.00000150,-0.00000154,0.00039936,0.00078739,-0.00043869,-0.02483277,
 0.06125684,-0.00001784,0.00004534,-0.00043599,0.00020287,-0.00014598,0
 .00015831,0.00155435,0.00150238,0.00811911,-0.00023282,0.00005225,-0.0
 0089897,-0.00016760,-0.00007520,-0.00086416,-0.00001517,0.00003654,0.0
 0008163,0.00003075,0.00000504,0.00005500,-0.00005033,-0.00002976,-0.00
 025090,0.00001190,0.00001985,0.00013630,0.00086236,0.00048313,0.007030
 64,0.00003986,0.00000922,0.00017140,-0.00001088,-0.00000419,-0.0000524
 0,0.00000365,-0.00000288,0.00001756,-0.00000084,0.00000176,-0.00001532
 ,-0.00000168,0.00000205,0.00000057,-0.00000017,-0.00000260,-0.00000137
 ,-0.00000122,-0.00000159,-0.00000109,0.00000538,0.00000140,0.00000669,
 0.00000206,0.00000033,-0.00000543,-0.00000010,-0.00000091,0.00000044,0
 .00000014,-0.00000163,0.00000007,-0.00000222,0.00000117,0.00000006,-0.
 00000189,0.00000110,-0.00000053,-0.00000049,-0.00000193,-0.00000055,0.
 00000041,-0.00000144,-0.00000110,0.00000167,0.00000068,-0.00000147,0.0
 0000146,-0.00001118,0.00007462,-0.00000263,0.00001504,-0.00000544,0.00
 002455,-0.00000921,0.00005127,0.00465268,-0.00112215,0.00202743,0.0488
 9965,-0.00205046,-0.04514635,-0.00028746,0.00031383,0.00207980,0.00002
 153,-0.00000422,-0.00002516,0.00001155,0.00001504,0.00008340,-0.000002
 57,-0.00000008,-0.00003274,-0.00000301,-0.00000151,-0.00001987,0.00000
 114,0.00000015,0.00000308,0.00000075,0.00000078,0.00000706,0.,0.000000
 32,0.00000320,0.00000069,0.00000003,0.00000102,0.00000055,0.00000005,0
 .00000066,0.00000022,-0.00000038,0.00000067,-0.00000004,-0.00000044,0.
 00000088,-0.00000021,0.00000022,0.00000164,0.00000060,-0.00000124,-0.0
 0000282,0.00000122,-0.00000076,-0.00000335,-0.00000124,0.00000063,-0.0
 0000373,-0.00086245,-0.00030635,-0.00403816,-0.05395086,0.00164326,0.0
 3512568,-0.00017826,0.00017632,0.00004356,0.00029994,0.00006180,-0.000
 21450,-0.00081605,0.00062673,-0.00010771,-0.00498985,0.00247424,0.0020
 1605,0.00007652,-0.00164366,0.00016488,-0.00039950,0.00007173,-0.00000
 561,-0.00001974,-0.00016488,0.00002369,-0.00018341,-0.00000257,-0.0000
 2736,0.00099834,-0.00100384,-0.00060685,-0.01204360,-0.02662514,0.0043
 9603,-0.00128230,-0.00028275,0.00012888,0.00081592,0.00045340,-0.00022
 414,0.00006642,-0.00016832,0.00000190,0.00020294,-0.00001848,-0.000006
 76,0.00009588,-0.00001217,-0.00000698,0.00003454,0.00005364,-0.0000112
 4,-0.00002417,0.00003497,0.00000027,-0.00002797,-0.00001504,0.00000326
 ,0.00002108,-0.00003508,-0.00000510,-0.00002887,0.00000392,0.00000625,
 0.00001752,0.00001915,-0.00000498,-0.00001808,-0.00002266,0.00000500,-
 0.00001412,-0.00000303,0.00000228,0.00000287,-0.00000382,-0.00000040,-
 0.00001382,-0.00001399,0.00000295,0.00001927,-0.00000435,-0.00000325,0
 .00016224,0.00015493,-0.00003432,-0.00006799,-0.00011310,0.00002322,-0
 .00010230,-0.00005769,0.00002434,0.00000992,0.00303452,0.00103546,0.01
 099667,0.01262656,-0.00231069,-0.15824434,-0.13327438,0.03084279,-0.00
 000472,-0.00001573,0.00001878,-0.00002109,-0.00006589,0.00001478,0.000
 41682,0.00276562,0.00010617,0.00001083,-0.00001767,0.00000033,0.000018
 81,-0.00003214,-0.00000113,0.00001120,0.00004191,0.00000238,-0.0000044
 4,0.00000240,0.00000187,0.00000379,-0.00000073,-0.00000016,0.00000370,
 0.00000054,-0.00000044,0.00000144,-0.00000470,0.00000032,-0.00000129,-
 0.00000433,0.00000074,-0.00000452,0.00000032,0.00000136,-0.00005938,0.
 00000932,0.00001044,-0.00000340,0.00000688,-0.00000041,-0.00006193,-0.
 00000229,-0.00000148,0.00031798,0.00060694,-0.00010544,0.00073434,-0.0
 0029016,-0.00071829,0.16327618,0.00014840,-0.00006855,-0.00000908,-0.0
 0023195,-0.00011716,-0.00002010,0.00094702,0.00019645,-0.00026382,0.00
 172535,0.00094480,0.00021552,0.00002029,0.00027560,0.00000039,-0.00009
 389,0.00013801,-0.00002386,0.00006402,-0.00005982,-0.00000303,-0.00012
 387,0.00019750,-0.00001891,-0.00071636,-0.00181130,0.00003636,0.000819
 24,0.00696809,-0.00050160,0.00249073,-0.00143351,-0.00036896,0.0000522
 5,0.00002202,-0.00003250,0.00003328,-0.00005470,-0.00000130,-0.0001248
 7,-0.00004759,0.00003645,0.00002257,0.00002115,-0.00000174,-0.00001839
 ,-0.00000971,0.00000329,0.00000932,-0.00002841,-0.00000005,0.00002489,
 0.00006249,-0.00001004,-0.00001345,0.00001789,-0.00000079,0.00001441,-
 0.00000315,-0.00000155,-0.00001010,-0.00000335,0.00000174,0.00001107,0
 .00000739,-0.00000235,0.00000962,-0.00000094,-0.00000174,-0.00000213,0
 .00000690,-0.00000023,0.00000479,0.00000716,-0.00000155,-0.00001210,0.
 00000185,0.00000182,-0.00012308,-0.00007083,0.00002848,-0.00002087,0.0
 0012378,-0.00000422,0.00011671,-0.00003901,-0.00001602,0.00374677,-0.0
 0388380,0.00019136,-0.01923378,-0.01917417,0.00493774,-0.13298660,-0.2
 3627141,0.03764039,-0.00001345,-0.00000642,0.00001005,0.00003426,0.000
 04211,-0.00000628,0.00336787,-0.00408525,-0.00010915,-0.00001747,0.000
 03135,0.00000105,-0.00000171,-0.00000458,0.00000051,-0.00000528,-0.000
 01641,0.00000532,0.00000390,-0.00000060,-0.00000007,-0.00000257,0.0000
 0044,0.00000059,-0.00000197,-0.00000013,0.00000045,-0.00000062,0.00000
 244,0.00000002,0.00000080,0.00000302,-0.00000028,0.00000349,-0.0000001
 5,-0.00000032,0.00000075,0.00000603,-0.00000016,-0.00000481,0.00000119
 ,0.00000053,0.00000225,-0.00000563,-0.00000527,-0.00085585,-0.00100217
 ,0.00021838,0.00026831,0.00086397,-0.00037549,0.14067280,0.25825716,0.
 00004564,-0.00001387,0.00014538,-0.00019273,-0.00007045,-0.00088662,-0
 .00013138,-0.00020893,-0.00113546,0.00207148,0.00008714,0.00748167,0.0
 0004155,0.00028559,0.00029959,0.00000668,-0.00005225,-0.00039846,0.000
 00675,0.00003620,0.00004339,-0.00001840,-0.00003969,-0.00033804,-0.000
 62814,0.00008555,-0.00287525,0.00236205,0.00420211,0.00137756,-0.00007
 644,0.00010639,-0.00064706,-0.00019444,-0.00010123,-0.00025498,-0.0000
 1304,0.00003328,0.00000447,0.00000111,0.00001819,0.00015396,-0.0000095
 7,0.00000420,0.00005119,-0.00000590,-0.00000905,-0.00000618,0.00000216
 ,-0.00000444,-0.00000756,0.00000031,-0.00000321,-0.00001526,-0.0000067
 0,0.00000291,-0.00002292,0.00000547,0.00000025,0.00000834,-0.00000281,
 -0.00000327,-0.00000252,0.00000250,0.00000343,0.00000063,0.00000134,0.
 00000043,-0.00000240,-0.00000052,0.00000006,-0.00000102,0.00000156,0.0
 0000167,-0.00000304,-0.00000268,0.00000049,-0.00000115,-0.00001373,-0.
 00001917,0.00003274,0.00001638,0.00001160,0.00001491,0.00001142,0.0000
 1387,0.00001176,0.00098261,0.00031338,0.00717192,0.00005042,-0.0005226
 5,0.00300431,0.03082159,0.03768975,-0.04398832,0.00001861,0.00001044,0
 .00009408,0.00000736,0.00001089,0.00003460,0.00006145,-0.00000600,0.00
 222153,0.00000032,0.00000109,0.00000499,-0.00000339,0.00000573,-0.0000
 0152,0.00000587,-0.00000277,0.00004238,0.00000176,0.00000019,0.0000071
 9,-0.00000003,0.00000028,0.00000251,-0.00000026,0.00000002,0.00000139,
 0.00000002,0.00000072,0.00000123,0.00000036,0.00000060,0.00000103,0.00
 000112,0.00000022,0.00000333,0.00001108,-0.00000163,0.00000378,0.00000
 046,-0.00000147,-0.00000277,-0.00000182,-0.00000449,-0.00007092,0.0000
 0297,-0.00003233,-0.00003288,-0.00075968,-0.00027975,-0.00343130,-0.03
 448073,-0.04155001,0.03190578\\0.00000010,-0.00000004,-0.00000001,-0.0
 0000010,-0.00000004,0.00000002,0.00000028,-0.00000012,-0.00000004,0.00
 000010,-0.00000012,0.,-0.00000010,-0.00000014,0.00000003,-0.00000032,-
 0.00000006,0.00000007,-0.00000004,0.00000007,0.,0.00000011,-0.00000004
 ,-0.00000003,-0.00000010,-0.00000004,0.00000003,0.00000003,0.00000006,
 -0.00000001,0.00000010,0.00000037,-0.00000003,-0.00000009,-0.00000009,
 0.00000003,0.00000011,-0.00000012,-0.00000001,-0.00000007,0.00000037,-
 0.00000002,0.00000007,0.00000028,-0.00000005,-0.00000001,-0.00000034,0
 .00000003,-0.00000002,-0.00000035,0.00000003,-0.00000004,0.00000029,0.
 ,0.,0.00000021,0.,0.00000002,-0.00000026,0.00000001,-0.00000005,-0.000
 00025,0.00000003,0.00000004,0.00000021,-0.00000004,-0.00000002,0.00000
 015,-0.00000002,-0.00000016,-0.00000006,0.00000003,0.00000015,-0.00000
 008,-0.00000002,0.00000005,0.00000015,0.,-0.00000024,-0.00000011,0.000
 00005,-0.00000003,0.00000012,0.,0.00000017,-0.00000012,-0.00000002,-0.
 00000017,-0.00000009,0.00000003,0.00000006,0.00000012,-0.00000003,0.00
 000022,-0.00000014,-0.00000005,0.00000004,0.00000003,0.,-0.00000004,0.
 00000003,0.00000001,0.,-0.00000003,0.,-0.00000002,-0.00000004,0.000000
 03,0.00000004,-0.00000003,0.,-0.00000005,-0.00000003,0.,-0.00000002,0.
 00000001,0.,0.00000001,0.00000001,0.,0.00000001,0.00000001,0.,-0.00000
 002,0.00000002,0.,0.00000002,0.00000001,0.,-0.00000002,0.00000002,0.,-
 0.00000001,0.00000006,-0.00000003,0.00000006,-0.00000001,-0.00000001,0
 .00000004,0.00000005,0.,-0.00000003,0.00000005,0.,-0.00000006,0.,0.,0.
 00000001,0.00000004,-0.00000002\\\@


 OUR LITTLE SYSTEMS HAVE THEIR DAY,    
   THEY HAVE THEIR DAY AND CEASE TO BE.
   THEY ARE BUT BROKEN LIGHTS OF THEE, 
 AND THOU, OH LORD, ART MORE THAN THEY.
          -------------------          
 LET KNOWLEDGE GROW FROM MORE TO MORE, 
   BUT MORE OF REVERENCE IN US DWELL.  
   THAT MIND AND SOUL, ACCORDING WELL, 
 MAY MAKE ONE MUSIC AS BEFORE.....     
          -------------------          
                    LORD TENNYSON      
 Job cpu time:       4 days 23 hours 19 minutes 36.8 seconds.
 File lengths (MBytes):  RWF=   4673 Int=      0 D2E=      0 Chk=     87 Scr=      1
 Normal termination of Gaussian 09 at Sun Jul 28 04:32:47 2019.
