 Entering Gaussian System, Link 0=g09
 Initial command:
 /home/minenky/programs//g09/l1.exe "/local/scratch/minenky/m1_00_120836-01-3-C32H16_wB97XD/Gau-269499.inp" -scrdir="/local/scratch/minenky/m1_00_120836-01-3-C32H16_wB97XD/"
 Entering Link 1 = /home/minenky/programs//g09/l1.exe PID=    269500.
  
 Copyright (c) 1988,1990,1992,1993,1995,1998,2003,2009,2013,
            Gaussian, Inc.  All Rights Reserved.
  
 This is part of the Gaussian(R) 09 program.  It is based on
 the Gaussian(R) 03 system (copyright 2003, Gaussian, Inc.),
 the Gaussian(R) 98 system (copyright 1998, Gaussian, Inc.),
 the Gaussian(R) 94 system (copyright 1995, Gaussian, Inc.),
 the Gaussian 92(TM) system (copyright 1992, Gaussian, Inc.),
 the Gaussian 90(TM) system (copyright 1990, Gaussian, Inc.),
 the Gaussian 88(TM) system (copyright 1988, Gaussian, Inc.),
 the Gaussian 86(TM) system (copyright 1986, Carnegie Mellon
 University), and the Gaussian 82(TM) system (copyright 1983,
 Carnegie Mellon University). Gaussian is a federally registered
 trademark of Gaussian, Inc.
  
 This software contains proprietary and confidential information,
 including trade secrets, belonging to Gaussian, Inc.
  
 This software is provided under written license and may be
 used, copied, transmitted, or stored only in accord with that
 written license.
  
 The following legend is applicable only to US Government
 contracts under FAR:
  
                    RESTRICTED RIGHTS LEGEND
  
 Use, reproduction and disclosure by the US Government is
 subject to restrictions as set forth in subparagraphs (a)
 and (c) of the Commercial Computer Software - Restricted
 Rights clause in FAR 52.227-19.
  
 Gaussian, Inc.
 340 Quinnipiac St., Bldg. 40, Wallingford CT 06492
  
  
 ---------------------------------------------------------------
 Warning -- This program may not be used in any manner that
 competes with the business of Gaussian, Inc. or will provide
 assistance to any competitor of Gaussian, Inc.  The licensee
 of this program is prohibited from giving any competitor of
 Gaussian, Inc. access to this program.  By using this program,
 the user acknowledges that Gaussian, Inc. is engaged in the
 business of creating and licensing software in the field of
 computational chemistry and represents and warrants to the
 licensee that it is not a competitor of Gaussian, Inc. and that
 it will not use this program in any manner prohibited above.
 ---------------------------------------------------------------
  

 Cite this work as:
 Gaussian 09, Revision D.01,
 M. J. Frisch, G. W. Trucks, H. B. Schlegel, G. E. Scuseria, 
 M. A. Robb, J. R. Cheeseman, G. Scalmani, V. Barone, B. Mennucci, 
 G. A. Petersson, H. Nakatsuji, M. Caricato, X. Li, H. P. Hratchian, 
 A. F. Izmaylov, J. Bloino, G. Zheng, J. L. Sonnenberg, M. Hada, 
 M. Ehara, K. Toyota, R. Fukuda, J. Hasegawa, M. Ishida, T. Nakajima, 
 Y. Honda, O. Kitao, H. Nakai, T. Vreven, J. A. Montgomery, Jr., 
 J. E. Peralta, F. Ogliaro, M. Bearpark, J. J. Heyd, E. Brothers, 
 K. N. Kudin, V. N. Staroverov, T. Keith, R. Kobayashi, J. Normand, 
 K. Raghavachari, A. Rendell, J. C. Burant, S. S. Iyengar, J. Tomasi, 
 M. Cossi, N. Rega, J. M. Millam, M. Klene, J. E. Knox, J. B. Cross, 
 V. Bakken, C. Adamo, J. Jaramillo, R. Gomperts, R. E. Stratmann, 
 O. Yazyev, A. J. Austin, R. Cammi, C. Pomelli, J. W. Ochterski, 
 R. L. Martin, K. Morokuma, V. G. Zakrzewski, G. A. Voth, 
 P. Salvador, J. J. Dannenberg, S. Dapprich, A. D. Daniels, 
 O. Farkas, J. B. Foresman, J. V. Ortiz, J. Cioslowski, 
 and D. J. Fox, Gaussian, Inc., Wallingford CT, 2013.
 
 ******************************************
 Gaussian 09:  AM64L-G09RevD.01 24-Apr-2013
                27-Jul-2019 
 ******************************************
 %Mem=32000MB
 %NProcShared=16
 Will use up to   16 processors via shared memory.
 %Chk=m1_00_120836-01-3-C32H16_wB97XD
 ----------------------------------------------------------------------
 #P wB97XD/def2tzvp opt=(tight) freq integral(Grid=ultrafine) # SCF(Max
 Cycle=380) 5d 7f GFPrint
 ----------------------------------------------------------------------
 1/7=10,14=-1,18=20,19=15,26=4,38=1/1,3;
 2/9=110,12=2,17=6,18=5,40=1/2;
 3/5=44,7=101,8=11,11=2,16=1,24=100,25=1,30=1,71=1,74=-58,75=-5/1,2,3;
 4//1;
 5/5=2,7=380,38=5/2;
 6/7=2,8=2,9=2,10=2,28=1/1;
 7//1,2,3,16;
 1/7=10,14=-1,18=20,19=15,26=4/3(2);
 2/9=110/2;
 99//99;
 2/9=110/2;
 3/5=44,7=101,8=11,11=2,16=1,25=1,30=1,71=1,74=-58,75=-5/1,2,3;
 4/5=5,16=3,69=1/1;
 5/5=2,7=380,38=5/2;
 7//1,2,3,16;
 1/7=10,14=-1,18=20,19=15,26=4/3(-5);
 2/9=110/2;
 6/7=2,8=2,9=2,10=2,19=2,28=1/1;
 99/9=1/99;
 Leave Link    1 at Sat Jul 27 12:55:10 2019, MaxMem=  4194304000 cpu:         1.8
 (Enter /home/minenky/programs//g09/l101.exe)
 ---------------------------------------
 The PBEPBE optimization and frequencies
 ---------------------------------------
 Symbolic Z-matrix:
 Charge =  0 Multiplicity = 1
 C                     3.16255   1.31368   0. 
 C                     2.20235  -1.33547   0. 
 C                     0.34579  -2.89202   0. 
 C                     1.69256  -2.65891   0. 
 C                    -0.57759  -1.81665   0. 
 C                    -2.83968   2.75701   0. 
 C                    -1.44799   3.01619   0. 
 C                     1.30583   3.51875   0. 
 C                     0.38971   4.58951   0. 
 C                    -0.95842   4.34992   0. 
 C                     0.86859   2.20969   0. 
 C                    -0.53247   1.94012   0. 
 C                    -1.02022   0.60462   0. 
 C                    -0.09694  -0.50366   0. 
 C                     1.30655  -0.25543   0. 
 C                     1.81201   1.09302   0. 
 C                     4.09361   0.23231   0. 
 C                     3.6235   -1.09298   0. 
 C                     4.56031  -2.15229   0. 
 C                     5.90952  -1.89338   0. 
 C                     6.37712  -0.5658    0. 
 C                     5.48682   0.48046   0. 
 C                    -2.00438  -2.06945   0. 
 C                    -4.77736  -2.51902   0. 
 C                    -3.88969  -3.59174   0. 
 C                    -2.52163  -3.37268   0. 
 C                    -4.29415  -1.21114   0. 
 C                    -2.89861  -0.97828   0. 
 C                    -2.39679   0.36676   0. 
 C                    -3.31341   1.46193   0. 
 C                    -4.73277   1.18324   0. 
 C                    -5.19719  -0.0827    0. 
 H                     3.5474    2.34668   0. 
 H                    -0.05052  -3.91919   0. 
 H                     2.41135  -3.49288   0. 
 H                    -3.53887   3.60245   0. 
 H                     2.38686   3.72741   0. 
 H                     0.77254   5.61545   0. 
 H                    -1.67595   5.17825   0. 
 H                     4.18092  -3.18557   0. 
 H                     6.63063  -2.71724   0. 
 H                     7.45546  -0.37617   0. 
 H                     5.84349   1.51669   0. 
 H                    -5.85796  -2.70137   0. 
 H                    -4.27668  -4.61617   0. 
 H                    -1.81967  -4.22065   0. 
 H                    -5.41981   2.03744   0. 
 H                    -6.2735   -0.29042   0. 
 
 NAtoms=     48 NQM=       48 NQMF=       0 NMMI=      0 NMMIF=      0
                NMic=       0 NMicF=      0.
                    Isotopes and Nuclear Properties:
 (Nuclear quadrupole moments (NQMom) in fm**2, nuclear magnetic moments (NMagM)
  in nuclear magnetons)

  Atom         1           2           3           4           5           6           7           8           9          10
 IAtWgt=          12          12          12          12          12          12          12          12          12          12
 AtmWgt=  12.0000000  12.0000000  12.0000000  12.0000000  12.0000000  12.0000000  12.0000000  12.0000000  12.0000000  12.0000000
 NucSpn=           0           0           0           0           0           0           0           0           0           0
 AtZEff=   0.0000000   0.0000000   0.0000000   0.0000000   0.0000000   0.0000000   0.0000000   0.0000000   0.0000000   0.0000000
 NQMom=    0.0000000   0.0000000   0.0000000   0.0000000   0.0000000   0.0000000   0.0000000   0.0000000   0.0000000   0.0000000
 NMagM=    0.0000000   0.0000000   0.0000000   0.0000000   0.0000000   0.0000000   0.0000000   0.0000000   0.0000000   0.0000000
 AtZNuc=   6.0000000   6.0000000   6.0000000   6.0000000   6.0000000   6.0000000   6.0000000   6.0000000   6.0000000   6.0000000

  Atom        11          12          13          14          15          16          17          18          19          20
 IAtWgt=          12          12          12          12          12          12          12          12          12          12
 AtmWgt=  12.0000000  12.0000000  12.0000000  12.0000000  12.0000000  12.0000000  12.0000000  12.0000000  12.0000000  12.0000000
 NucSpn=           0           0           0           0           0           0           0           0           0           0
 AtZEff=   0.0000000   0.0000000   0.0000000   0.0000000   0.0000000   0.0000000   0.0000000   0.0000000   0.0000000   0.0000000
 NQMom=    0.0000000   0.0000000   0.0000000   0.0000000   0.0000000   0.0000000   0.0000000   0.0000000   0.0000000   0.0000000
 NMagM=    0.0000000   0.0000000   0.0000000   0.0000000   0.0000000   0.0000000   0.0000000   0.0000000   0.0000000   0.0000000
 AtZNuc=   6.0000000   6.0000000   6.0000000   6.0000000   6.0000000   6.0000000   6.0000000   6.0000000   6.0000000   6.0000000

  Atom        21          22          23          24          25          26          27          28          29          30
 IAtWgt=          12          12          12          12          12          12          12          12          12          12
 AtmWgt=  12.0000000  12.0000000  12.0000000  12.0000000  12.0000000  12.0000000  12.0000000  12.0000000  12.0000000  12.0000000
 NucSpn=           0           0           0           0           0           0           0           0           0           0
 AtZEff=   0.0000000   0.0000000   0.0000000   0.0000000   0.0000000   0.0000000   0.0000000   0.0000000   0.0000000   0.0000000
 NQMom=    0.0000000   0.0000000   0.0000000   0.0000000   0.0000000   0.0000000   0.0000000   0.0000000   0.0000000   0.0000000
 NMagM=    0.0000000   0.0000000   0.0000000   0.0000000   0.0000000   0.0000000   0.0000000   0.0000000   0.0000000   0.0000000
 AtZNuc=   6.0000000   6.0000000   6.0000000   6.0000000   6.0000000   6.0000000   6.0000000   6.0000000   6.0000000   6.0000000

  Atom        31          32          33          34          35          36          37          38          39          40
 IAtWgt=          12          12           1           1           1           1           1           1           1           1
 AtmWgt=  12.0000000  12.0000000   1.0078250   1.0078250   1.0078250   1.0078250   1.0078250   1.0078250   1.0078250   1.0078250
 NucSpn=           0           0           1           1           1           1           1           1           1           1
 AtZEff=   0.0000000   0.0000000   0.0000000   0.0000000   0.0000000   0.0000000   0.0000000   0.0000000   0.0000000   0.0000000
 NQMom=    0.0000000   0.0000000   0.0000000   0.0000000   0.0000000   0.0000000   0.0000000   0.0000000   0.0000000   0.0000000
 NMagM=    0.0000000   0.0000000   2.7928460   2.7928460   2.7928460   2.7928460   2.7928460   2.7928460   2.7928460   2.7928460
 AtZNuc=   6.0000000   6.0000000   1.0000000   1.0000000   1.0000000   1.0000000   1.0000000   1.0000000   1.0000000   1.0000000

  Atom        41          42          43          44          45          46          47          48
 IAtWgt=           1           1           1           1           1           1           1           1
 AtmWgt=   1.0078250   1.0078250   1.0078250   1.0078250   1.0078250   1.0078250   1.0078250   1.0078250
 NucSpn=           1           1           1           1           1           1           1           1
 AtZEff=   0.0000000   0.0000000   0.0000000   0.0000000   0.0000000   0.0000000   0.0000000   0.0000000
 NQMom=    0.0000000   0.0000000   0.0000000   0.0000000   0.0000000   0.0000000   0.0000000   0.0000000
 NMagM=    2.7928460   2.7928460   2.7928460   2.7928460   2.7928460   2.7928460   2.7928460   2.7928460
 AtZNuc=   1.0000000   1.0000000   1.0000000   1.0000000   1.0000000   1.0000000   1.0000000   1.0000000
 Leave Link  101 at Sat Jul 27 12:55:11 2019, MaxMem=  4194304000 cpu:         5.1
 (Enter /home/minenky/programs//g09/l103.exe)

 GradGradGradGradGradGradGradGradGradGradGradGradGradGradGradGradGradGrad
 Berny optimization.
 Initialization pass.
                           ----------------------------
                           !    Initial Parameters    !
                           ! (Angstroms and Degrees)  !
 --------------------------                            --------------------------
 ! Name  Definition              Value          Derivative Info.                !
 --------------------------------------------------------------------------------
 ! R1    R(1,16)                 1.3684         estimate D2E/DX2                !
 ! R2    R(1,17)                 1.427          estimate D2E/DX2                !
 ! R3    R(1,33)                 1.1024         estimate D2E/DX2                !
 ! R4    R(2,4)                  1.4182         estimate D2E/DX2                !
 ! R5    R(2,15)                 1.4032         estimate D2E/DX2                !
 ! R6    R(2,18)                 1.4417         estimate D2E/DX2                !
 ! R7    R(3,4)                  1.3668         estimate D2E/DX2                !
 ! R8    R(3,5)                  1.4174         estimate D2E/DX2                !
 ! R9    R(3,34)                 1.101          estimate D2E/DX2                !
 ! R10   R(4,35)                 1.101          estimate D2E/DX2                !
 ! R11   R(5,14)                 1.3982         estimate D2E/DX2                !
 ! R12   R(5,23)                 1.449          estimate D2E/DX2                !
 ! R13   R(6,7)                  1.4156         estimate D2E/DX2                !
 ! R14   R(6,30)                 1.379          estimate D2E/DX2                !
 ! R15   R(6,36)                 1.0971         estimate D2E/DX2                !
 ! R16   R(7,10)                 1.4207         estimate D2E/DX2                !
 ! R17   R(7,12)                 1.4128         estimate D2E/DX2                !
 ! R18   R(8,9)                  1.4092         estimate D2E/DX2                !
 ! R19   R(8,11)                 1.3802         estimate D2E/DX2                !
 ! R20   R(8,37)                 1.101          estimate D2E/DX2                !
 ! R21   R(9,10)                 1.3693         estimate D2E/DX2                !
 ! R22   R(9,38)                 1.095          estimate D2E/DX2                !
 ! R23   R(10,39)                1.0959         estimate D2E/DX2                !
 ! R24   R(11,12)                1.4268         estimate D2E/DX2                !
 ! R25   R(11,16)                1.4618         estimate D2E/DX2                !
 ! R26   R(12,13)                1.4218         estimate D2E/DX2                !
 ! R27   R(13,14)                1.4425         estimate D2E/DX2                !
 ! R28   R(13,29)                1.397          estimate D2E/DX2                !
 ! R29   R(14,15)                1.4253         estimate D2E/DX2                !
 ! R30   R(15,16)                1.4401         estimate D2E/DX2                !
 ! R31   R(17,18)                1.4062         estimate D2E/DX2                !
 ! R32   R(17,22)                1.4151         estimate D2E/DX2                !
 ! R33   R(18,19)                1.4141         estimate D2E/DX2                !
 ! R34   R(19,20)                1.3738         estimate D2E/DX2                !
 ! R35   R(19,40)                1.1007         estimate D2E/DX2                !
 ! R36   R(20,21)                1.4075         estimate D2E/DX2                !
 ! R37   R(20,41)                1.0949         estimate D2E/DX2                !
 ! R38   R(21,22)                1.3738         estimate D2E/DX2                !
 ! R39   R(21,42)                1.0949         estimate D2E/DX2                !
 ! R40   R(22,43)                1.0959         estimate D2E/DX2                !
 ! R41   R(23,26)                1.4021         estimate D2E/DX2                !
 ! R42   R(23,28)                1.4108         estimate D2E/DX2                !
 ! R43   R(24,25)                1.3924         estimate D2E/DX2                !
 ! R44   R(24,27)                1.3943         estimate D2E/DX2                !
 ! R45   R(24,44)                1.0959         estimate D2E/DX2                !
 ! R46   R(25,26)                1.3855         estimate D2E/DX2                !
 ! R47   R(25,45)                1.0951         estimate D2E/DX2                !
 ! R48   R(26,46)                1.1008         estimate D2E/DX2                !
 ! R49   R(27,28)                1.4148         estimate D2E/DX2                !
 ! R50   R(27,32)                1.4453         estimate D2E/DX2                !
 ! R51   R(28,29)                1.4356         estimate D2E/DX2                !
 ! R52   R(29,30)                1.4281         estimate D2E/DX2                !
 ! R53   R(30,31)                1.4465         estimate D2E/DX2                !
 ! R54   R(31,32)                1.3484         estimate D2E/DX2                !
 ! R55   R(31,47)                1.0962         estimate D2E/DX2                !
 ! R56   R(32,48)                1.0962         estimate D2E/DX2                !
 ! A1    A(16,1,17)            121.4492         estimate D2E/DX2                !
 ! A2    A(16,1,33)            119.7122         estimate D2E/DX2                !
 ! A3    A(17,1,33)            118.8386         estimate D2E/DX2                !
 ! A4    A(4,2,15)             119.2605         estimate D2E/DX2                !
 ! A5    A(4,2,18)             120.7495         estimate D2E/DX2                !
 ! A6    A(15,2,18)            119.99           estimate D2E/DX2                !
 ! A7    A(4,3,5)              120.8318         estimate D2E/DX2                !
 ! A8    A(4,3,34)             120.9178         estimate D2E/DX2                !
 ! A9    A(5,3,34)             118.2504         estimate D2E/DX2                !
 ! A10   A(2,4,3)              120.8863         estimate D2E/DX2                !
 ! A11   A(2,4,35)             118.1755         estimate D2E/DX2                !
 ! A12   A(3,4,35)             120.9381         estimate D2E/DX2                !
 ! A13   A(3,5,14)             119.2418         estimate D2E/DX2                !
 ! A14   A(3,5,23)             120.6039         estimate D2E/DX2                !
 ! A15   A(14,5,23)            120.1543         estimate D2E/DX2                !
 ! A16   A(7,6,30)             120.6415         estimate D2E/DX2                !
 ! A17   A(7,6,36)             119.0419         estimate D2E/DX2                !
 ! A18   A(30,6,36)            120.3166         estimate D2E/DX2                !
 ! A19   A(6,7,10)             120.7058         estimate D2E/DX2                !
 ! A20   A(6,7,12)             119.8416         estimate D2E/DX2                !
 ! A21   A(10,7,12)            119.4526         estimate D2E/DX2                !
 ! A22   A(9,8,11)             120.9807         estimate D2E/DX2                !
 ! A23   A(9,8,37)             119.6241         estimate D2E/DX2                !
 ! A24   A(11,8,37)            119.3952         estimate D2E/DX2                !
 ! A25   A(8,9,10)             120.4722         estimate D2E/DX2                !
 ! A26   A(8,9,38)             118.9879         estimate D2E/DX2                !
 ! A27   A(10,9,38)            120.5399         estimate D2E/DX2                !
 ! A28   A(7,10,9)             120.2335         estimate D2E/DX2                !
 ! A29   A(7,10,39)            118.9434         estimate D2E/DX2                !
 ! A30   A(9,10,39)            120.823          estimate D2E/DX2                !
 ! A31   A(8,11,12)            119.3609         estimate D2E/DX2                !
 ! A32   A(8,11,16)            121.3369         estimate D2E/DX2                !
 ! A33   A(12,11,16)           119.3023         estimate D2E/DX2                !
 ! A34   A(7,12,11)            119.5001         estimate D2E/DX2                !
 ! A35   A(7,12,13)            119.5458         estimate D2E/DX2                !
 ! A36   A(11,12,13)           120.9541         estimate D2E/DX2                !
 ! A37   A(12,13,14)           120.14           estimate D2E/DX2                !
 ! A38   A(12,13,29)           119.8667         estimate D2E/DX2                !
 ! A39   A(14,13,29)           119.9932         estimate D2E/DX2                !
 ! A40   A(5,14,13)            120.0966         estimate D2E/DX2                !
 ! A41   A(5,14,15)            120.1365         estimate D2E/DX2                !
 ! A42   A(13,14,15)           119.7669         estimate D2E/DX2                !
 ! A43   A(2,15,14)            119.6431         estimate D2E/DX2                !
 ! A44   A(2,15,16)            119.7786         estimate D2E/DX2                !
 ! A45   A(14,15,16)           120.5783         estimate D2E/DX2                !
 ! A46   A(1,16,11)            120.9139         estimate D2E/DX2                !
 ! A47   A(1,16,15)            119.8277         estimate D2E/DX2                !
 ! A48   A(11,16,15)           119.2583         estimate D2E/DX2                !
 ! A49   A(1,17,18)            119.7409         estimate D2E/DX2                !
 ! A50   A(1,17,22)            120.6294         estimate D2E/DX2                !
 ! A51   A(18,17,22)           119.6297         estimate D2E/DX2                !
 ! A52   A(2,18,17)            119.2135         estimate D2E/DX2                !
 ! A53   A(2,18,19)            121.8051         estimate D2E/DX2                !
 ! A54   A(17,18,19)           118.9813         estimate D2E/DX2                !
 ! A55   A(18,19,20)           120.6252         estimate D2E/DX2                !
 ! A56   A(18,19,40)           118.3504         estimate D2E/DX2                !
 ! A57   A(20,19,40)           121.0245         estimate D2E/DX2                !
 ! A58   A(19,20,21)           120.2663         estimate D2E/DX2                !
 ! A59   A(19,20,41)           120.3324         estimate D2E/DX2                !
 ! A60   A(21,20,41)           119.4013         estimate D2E/DX2                !
 ! A61   A(20,21,22)           120.2008         estimate D2E/DX2                !
 ! A62   A(20,21,42)           119.377          estimate D2E/DX2                !
 ! A63   A(22,21,42)           120.4222         estimate D2E/DX2                !
 ! A64   A(17,22,21)           120.2967         estimate D2E/DX2                !
 ! A65   A(17,22,43)           119.0926         estimate D2E/DX2                !
 ! A66   A(21,22,43)           120.6107         estimate D2E/DX2                !
 ! A67   A(5,23,26)            121.6957         estimate D2E/DX2                !
 ! A68   A(5,23,28)            119.2874         estimate D2E/DX2                !
 ! A69   A(26,23,28)           119.0168         estimate D2E/DX2                !
 ! A70   A(25,24,27)           120.1149         estimate D2E/DX2                !
 ! A71   A(25,24,44)           120.0296         estimate D2E/DX2                !
 ! A72   A(27,24,44)           119.8555         estimate D2E/DX2                !
 ! A73   A(24,25,26)           120.5107         estimate D2E/DX2                !
 ! A74   A(24,25,45)           119.6973         estimate D2E/DX2                !
 ! A75   A(26,25,45)           119.792          estimate D2E/DX2                !
 ! A76   A(23,26,25)           120.7452         estimate D2E/DX2                !
 ! A77   A(23,26,46)           118.7338         estimate D2E/DX2                !
 ! A78   A(25,26,46)           120.521          estimate D2E/DX2                !
 ! A79   A(24,27,28)           119.75           estimate D2E/DX2                !
 ! A80   A(24,27,32)           121.0542         estimate D2E/DX2                !
 ! A81   A(28,27,32)           119.1958         estimate D2E/DX2                !
 ! A82   A(23,28,27)           119.8623         estimate D2E/DX2                !
 ! A83   A(23,28,29)           120.2052         estimate D2E/DX2                !
 ! A84   A(27,28,29)           119.9325         estimate D2E/DX2                !
 ! A85   A(13,29,28)           120.2632         estimate D2E/DX2                !
 ! A86   A(13,29,30)           120.1245         estimate D2E/DX2                !
 ! A87   A(28,29,30)           119.6123         estimate D2E/DX2                !
 ! A88   A(6,30,29)            119.9799         estimate D2E/DX2                !
 ! A89   A(6,30,31)            121.2008         estimate D2E/DX2                !
 ! A90   A(29,30,31)           118.8192         estimate D2E/DX2                !
 ! A91   A(30,31,32)           121.2544         estimate D2E/DX2                !
 ! A92   A(30,31,47)           117.701          estimate D2E/DX2                !
 ! A93   A(32,31,47)           121.0446         estimate D2E/DX2                !
 ! A94   A(27,32,31)           121.1858         estimate D2E/DX2                !
 ! A95   A(27,32,48)           117.7452         estimate D2E/DX2                !
 ! A96   A(31,32,48)           121.069          estimate D2E/DX2                !
 ! D1    D(17,1,16,11)         180.0            estimate D2E/DX2                !
 ! D2    D(17,1,16,15)           0.0            estimate D2E/DX2                !
 ! D3    D(33,1,16,11)           0.0            estimate D2E/DX2                !
 ! D4    D(33,1,16,15)         180.0            estimate D2E/DX2                !
 ! D5    D(16,1,17,18)           0.0            estimate D2E/DX2                !
 ! D6    D(16,1,17,22)         180.0            estimate D2E/DX2                !
 ! D7    D(33,1,17,18)         180.0            estimate D2E/DX2                !
 ! D8    D(33,1,17,22)           0.0            estimate D2E/DX2                !
 ! D9    D(15,2,4,3)             0.0            estimate D2E/DX2                !
 ! D10   D(15,2,4,35)          180.0            estimate D2E/DX2                !
 ! D11   D(18,2,4,3)           180.0            estimate D2E/DX2                !
 ! D12   D(18,2,4,35)            0.0            estimate D2E/DX2                !
 ! D13   D(4,2,15,14)            0.0            estimate D2E/DX2                !
 ! D14   D(4,2,15,16)          180.0            estimate D2E/DX2                !
 ! D15   D(18,2,15,14)         180.0            estimate D2E/DX2                !
 ! D16   D(18,2,15,16)           0.0            estimate D2E/DX2                !
 ! D17   D(4,2,18,17)          180.0            estimate D2E/DX2                !
 ! D18   D(4,2,18,19)            0.0            estimate D2E/DX2                !
 ! D19   D(15,2,18,17)           0.0            estimate D2E/DX2                !
 ! D20   D(15,2,18,19)         180.0            estimate D2E/DX2                !
 ! D21   D(5,3,4,2)              0.0            estimate D2E/DX2                !
 ! D22   D(5,3,4,35)           180.0            estimate D2E/DX2                !
 ! D23   D(34,3,4,2)           180.0            estimate D2E/DX2                !
 ! D24   D(34,3,4,35)            0.0            estimate D2E/DX2                !
 ! D25   D(4,3,5,14)             0.0            estimate D2E/DX2                !
 ! D26   D(4,3,5,23)           180.0            estimate D2E/DX2                !
 ! D27   D(34,3,5,14)          180.0            estimate D2E/DX2                !
 ! D28   D(34,3,5,23)            0.0            estimate D2E/DX2                !
 ! D29   D(3,5,14,13)          180.0            estimate D2E/DX2                !
 ! D30   D(3,5,14,15)            0.0            estimate D2E/DX2                !
 ! D31   D(23,5,14,13)           0.0            estimate D2E/DX2                !
 ! D32   D(23,5,14,15)         180.0            estimate D2E/DX2                !
 ! D33   D(3,5,23,26)            0.0            estimate D2E/DX2                !
 ! D34   D(3,5,23,28)          180.0            estimate D2E/DX2                !
 ! D35   D(14,5,23,26)         180.0            estimate D2E/DX2                !
 ! D36   D(14,5,23,28)           0.0            estimate D2E/DX2                !
 ! D37   D(30,6,7,10)          180.0            estimate D2E/DX2                !
 ! D38   D(30,6,7,12)            0.0            estimate D2E/DX2                !
 ! D39   D(36,6,7,10)            0.0            estimate D2E/DX2                !
 ! D40   D(36,6,7,12)          180.0            estimate D2E/DX2                !
 ! D41   D(7,6,30,29)            0.0            estimate D2E/DX2                !
 ! D42   D(7,6,30,31)          180.0            estimate D2E/DX2                !
 ! D43   D(36,6,30,29)         180.0            estimate D2E/DX2                !
 ! D44   D(36,6,30,31)           0.0            estimate D2E/DX2                !
 ! D45   D(6,7,10,9)           180.0            estimate D2E/DX2                !
 ! D46   D(6,7,10,39)            0.0            estimate D2E/DX2                !
 ! D47   D(12,7,10,9)            0.0            estimate D2E/DX2                !
 ! D48   D(12,7,10,39)         180.0            estimate D2E/DX2                !
 ! D49   D(6,7,12,11)          180.0            estimate D2E/DX2                !
 ! D50   D(6,7,12,13)            0.0            estimate D2E/DX2                !
 ! D51   D(10,7,12,11)           0.0            estimate D2E/DX2                !
 ! D52   D(10,7,12,13)         180.0            estimate D2E/DX2                !
 ! D53   D(11,8,9,10)            0.0            estimate D2E/DX2                !
 ! D54   D(11,8,9,38)          180.0            estimate D2E/DX2                !
 ! D55   D(37,8,9,10)          180.0            estimate D2E/DX2                !
 ! D56   D(37,8,9,38)            0.0            estimate D2E/DX2                !
 ! D57   D(9,8,11,12)            0.0            estimate D2E/DX2                !
 ! D58   D(9,8,11,16)          180.0            estimate D2E/DX2                !
 ! D59   D(37,8,11,12)         180.0            estimate D2E/DX2                !
 ! D60   D(37,8,11,16)           0.0            estimate D2E/DX2                !
 ! D61   D(8,9,10,7)             0.0            estimate D2E/DX2                !
 ! D62   D(8,9,10,39)          180.0            estimate D2E/DX2                !
 ! D63   D(38,9,10,7)          180.0            estimate D2E/DX2                !
 ! D64   D(38,9,10,39)           0.0            estimate D2E/DX2                !
 ! D65   D(8,11,12,7)            0.0            estimate D2E/DX2                !
 ! D66   D(8,11,12,13)         180.0            estimate D2E/DX2                !
 ! D67   D(16,11,12,7)         180.0            estimate D2E/DX2                !
 ! D68   D(16,11,12,13)          0.0            estimate D2E/DX2                !
 ! D69   D(8,11,16,1)            0.0            estimate D2E/DX2                !
 ! D70   D(8,11,16,15)         180.0            estimate D2E/DX2                !
 ! D71   D(12,11,16,1)         180.0            estimate D2E/DX2                !
 ! D72   D(12,11,16,15)          0.0            estimate D2E/DX2                !
 ! D73   D(7,12,13,14)         180.0            estimate D2E/DX2                !
 ! D74   D(7,12,13,29)           0.0            estimate D2E/DX2                !
 ! D75   D(11,12,13,14)          0.0            estimate D2E/DX2                !
 ! D76   D(11,12,13,29)        180.0            estimate D2E/DX2                !
 ! D77   D(12,13,14,5)         180.0            estimate D2E/DX2                !
 ! D78   D(12,13,14,15)          0.0            estimate D2E/DX2                !
 ! D79   D(29,13,14,5)           0.0            estimate D2E/DX2                !
 ! D80   D(29,13,14,15)        180.0            estimate D2E/DX2                !
 ! D81   D(12,13,29,28)        180.0            estimate D2E/DX2                !
 ! D82   D(12,13,29,30)          0.0            estimate D2E/DX2                !
 ! D83   D(14,13,29,28)          0.0            estimate D2E/DX2                !
 ! D84   D(14,13,29,30)        180.0            estimate D2E/DX2                !
 ! D85   D(5,14,15,2)            0.0            estimate D2E/DX2                !
 ! D86   D(5,14,15,16)         180.0            estimate D2E/DX2                !
 ! D87   D(13,14,15,2)         180.0            estimate D2E/DX2                !
 ! D88   D(13,14,15,16)          0.0            estimate D2E/DX2                !
 ! D89   D(2,15,16,1)            0.0            estimate D2E/DX2                !
 ! D90   D(2,15,16,11)         180.0            estimate D2E/DX2                !
 ! D91   D(14,15,16,1)         180.0            estimate D2E/DX2                !
 ! D92   D(14,15,16,11)          0.0            estimate D2E/DX2                !
 ! D93   D(1,17,18,2)            0.0            estimate D2E/DX2                !
 ! D94   D(1,17,18,19)         180.0            estimate D2E/DX2                !
 ! D95   D(22,17,18,2)         180.0            estimate D2E/DX2                !
 ! D96   D(22,17,18,19)          0.0            estimate D2E/DX2                !
 ! D97   D(1,17,22,21)         180.0            estimate D2E/DX2                !
 ! D98   D(1,17,22,43)           0.0            estimate D2E/DX2                !
 ! D99   D(18,17,22,21)          0.0            estimate D2E/DX2                !
 ! D100  D(18,17,22,43)        180.0            estimate D2E/DX2                !
 ! D101  D(2,18,19,20)         180.0            estimate D2E/DX2                !
 ! D102  D(2,18,19,40)           0.0            estimate D2E/DX2                !
 ! D103  D(17,18,19,20)          0.0            estimate D2E/DX2                !
 ! D104  D(17,18,19,40)        180.0            estimate D2E/DX2                !
 ! D105  D(18,19,20,21)          0.0            estimate D2E/DX2                !
 ! D106  D(18,19,20,41)        180.0            estimate D2E/DX2                !
 ! D107  D(40,19,20,21)        180.0            estimate D2E/DX2                !
 ! D108  D(40,19,20,41)          0.0            estimate D2E/DX2                !
 ! D109  D(19,20,21,22)          0.0            estimate D2E/DX2                !
 ! D110  D(19,20,21,42)        180.0            estimate D2E/DX2                !
 ! D111  D(41,20,21,22)        180.0            estimate D2E/DX2                !
 ! D112  D(41,20,21,42)          0.0            estimate D2E/DX2                !
 ! D113  D(20,21,22,17)          0.0            estimate D2E/DX2                !
 ! D114  D(20,21,22,43)        180.0            estimate D2E/DX2                !
 ! D115  D(42,21,22,17)        180.0            estimate D2E/DX2                !
 ! D116  D(42,21,22,43)          0.0            estimate D2E/DX2                !
 ! D117  D(5,23,26,25)         180.0            estimate D2E/DX2                !
 ! D118  D(5,23,26,46)           0.0            estimate D2E/DX2                !
 ! D119  D(28,23,26,25)          0.0            estimate D2E/DX2                !
 ! D120  D(28,23,26,46)        180.0            estimate D2E/DX2                !
 ! D121  D(5,23,28,27)         180.0            estimate D2E/DX2                !
 ! D122  D(5,23,28,29)           0.0            estimate D2E/DX2                !
 ! D123  D(26,23,28,27)          0.0            estimate D2E/DX2                !
 ! D124  D(26,23,28,29)        180.0            estimate D2E/DX2                !
 ! D125  D(27,24,25,26)          0.0            estimate D2E/DX2                !
 ! D126  D(27,24,25,45)        180.0            estimate D2E/DX2                !
 ! D127  D(44,24,25,26)        180.0            estimate D2E/DX2                !
 ! D128  D(44,24,25,45)          0.0            estimate D2E/DX2                !
 ! D129  D(25,24,27,28)          0.0            estimate D2E/DX2                !
 ! D130  D(25,24,27,32)        180.0            estimate D2E/DX2                !
 ! D131  D(44,24,27,28)        180.0            estimate D2E/DX2                !
 ! D132  D(44,24,27,32)          0.0            estimate D2E/DX2                !
 ! D133  D(24,25,26,23)          0.0            estimate D2E/DX2                !
 ! D134  D(24,25,26,46)        180.0            estimate D2E/DX2                !
 ! D135  D(45,25,26,23)        180.0            estimate D2E/DX2                !
 ! D136  D(45,25,26,46)          0.0            estimate D2E/DX2                !
 ! D137  D(24,27,28,23)          0.0            estimate D2E/DX2                !
 ! D138  D(24,27,28,29)        180.0            estimate D2E/DX2                !
 ! D139  D(32,27,28,23)        180.0            estimate D2E/DX2                !
 ! D140  D(32,27,28,29)          0.0            estimate D2E/DX2                !
 ! D141  D(24,27,32,31)        180.0            estimate D2E/DX2                !
 ! D142  D(24,27,32,48)          0.0            estimate D2E/DX2                !
 ! D143  D(28,27,32,31)          0.0            estimate D2E/DX2                !
 ! D144  D(28,27,32,48)        180.0            estimate D2E/DX2                !
 ! D145  D(23,28,29,13)          0.0            estimate D2E/DX2                !
 ! D146  D(23,28,29,30)        180.0            estimate D2E/DX2                !
 ! D147  D(27,28,29,13)        180.0            estimate D2E/DX2                !
 ! D148  D(27,28,29,30)          0.0            estimate D2E/DX2                !
 ! D149  D(13,29,30,6)           0.0            estimate D2E/DX2                !
 ! D150  D(13,29,30,31)        180.0            estimate D2E/DX2                !
 ! D151  D(28,29,30,6)         180.0            estimate D2E/DX2                !
 ! D152  D(28,29,30,31)          0.0            estimate D2E/DX2                !
 ! D153  D(6,30,31,32)         180.0            estimate D2E/DX2                !
 ! D154  D(6,30,31,47)           0.0            estimate D2E/DX2                !
 ! D155  D(29,30,31,32)          0.0            estimate D2E/DX2                !
 ! D156  D(29,30,31,47)        180.0            estimate D2E/DX2                !
 ! D157  D(30,31,32,27)          0.0            estimate D2E/DX2                !
 ! D158  D(30,31,32,48)        180.0            estimate D2E/DX2                !
 ! D159  D(47,31,32,27)        180.0            estimate D2E/DX2                !
 ! D160  D(47,31,32,48)          0.0            estimate D2E/DX2                !
 --------------------------------------------------------------------------------
 Trust Radius=3.00D-01 FncErr=1.00D-07 GrdErr=1.00D-06
 Number of steps in this run=    288 maximum allowed number of steps=    288.
 GradGradGradGradGradGradGradGradGradGradGradGradGradGradGradGradGradGrad

 Leave Link  103 at Sat Jul 27 12:55:11 2019, MaxMem=  4194304000 cpu:         0.2
 (Enter /home/minenky/programs//g09/l202.exe)
                          Input orientation:                          
 ---------------------------------------------------------------------
 Center     Atomic      Atomic             Coordinates (Angstroms)
 Number     Number       Type             X           Y           Z
 ---------------------------------------------------------------------
      1          6           0        3.162552    1.313681    0.000000
      2          6           0        2.202346   -1.335468    0.000000
      3          6           0        0.345792   -2.892019    0.000000
      4          6           0        1.692557   -2.658915    0.000000
      5          6           0       -0.577594   -1.816648    0.000000
      6          6           0       -2.839679    2.757011    0.000000
      7          6           0       -1.447986    3.016188    0.000000
      8          6           0        1.305829    3.518745    0.000000
      9          6           0        0.389713    4.589509    0.000000
     10          6           0       -0.958422    4.349922    0.000000
     11          6           0        0.868588    2.209686    0.000000
     12          6           0       -0.532468    1.940116    0.000000
     13          6           0       -1.020216    0.604622    0.000000
     14          6           0       -0.096936   -0.503660    0.000000
     15          6           0        1.306546   -0.255434    0.000000
     16          6           0        1.812014    1.093024    0.000000
     17          6           0        4.093613    0.232312    0.000000
     18          6           0        3.623505   -1.092981    0.000000
     19          6           0        4.560309   -2.152290    0.000000
     20          6           0        5.909517   -1.893380    0.000000
     21          6           0        6.377120   -0.565798    0.000000
     22          6           0        5.486821    0.480457    0.000000
     23          6           0       -2.004378   -2.069453    0.000000
     24          6           0       -4.777364   -2.519020    0.000000
     25          6           0       -3.889685   -3.591739    0.000000
     26          6           0       -2.521627   -3.372681    0.000000
     27          6           0       -4.294155   -1.211138    0.000000
     28          6           0       -2.898607   -0.978284    0.000000
     29          6           0       -2.396794    0.366759    0.000000
     30          6           0       -3.313408    1.461929    0.000000
     31          6           0       -4.732773    1.183236    0.000000
     32          6           0       -5.197185   -0.082704    0.000000
     33          1           0        3.547398    2.346682    0.000000
     34          1           0       -0.050519   -3.919188    0.000000
     35          1           0        2.411350   -3.492884    0.000000
     36          1           0       -3.538871    3.602450    0.000000
     37          1           0        2.386864    3.727414    0.000000
     38          1           0        0.772536    5.615448    0.000000
     39          1           0       -1.675947    5.178249    0.000000
     40          1           0        4.180921   -3.185574    0.000000
     41          1           0        6.630635   -2.717243    0.000000
     42          1           0        7.455462   -0.376170    0.000000
     43          1           0        5.843495    1.516694    0.000000
     44          1           0       -5.857961   -2.701368    0.000000
     45          1           0       -4.276680   -4.616170    0.000000
     46          1           0       -1.819675   -4.220648    0.000000
     47          1           0       -5.419812    2.037441    0.000000
     48          1           0       -6.273504   -0.290425    0.000000
 ---------------------------------------------------------------------
                    Distance matrix (angstroms):
                    1          2          3          4          5
     1  C    0.000000
     2  C    2.817799   0.000000
     3  C    5.061824   2.422735   0.000000
     4  C    4.235848   1.418237   1.366789   0.000000
     5  C    4.877259   2.821276   1.417415   2.421362   0.000000
     6  C    6.173328   6.493874   6.485274   7.062111   5.102488
     7  C    4.914835   5.679950   6.174509   6.486124   4.910589
     8  C    2.882660   4.936307   6.482251   6.189753   5.658065
     9  C    4.291816   6.196046   7.481657   7.364580   6.478775
    10  C    5.118710   6.504930   7.358444   7.493429   6.178318
    11  C    2.462742   3.787747   5.128422   4.937833   4.278178
    12  C    3.747745   4.267160   4.911300   5.108993   3.757034
    13  C    4.242443   3.761496   3.753996   4.243797   2.461395
    14  C    3.731889   2.445118   2.429047   2.801322   1.398202
    15  C    2.430408   1.403186   2.806177   2.434281   2.446910
    16  C    1.368446   2.459661   4.246219   3.753840   3.765158
    17  C    1.426966   2.456588   4.879304   3.758226   5.100824
    18  C    2.450408   1.441698   3.738976   2.486103   4.262971
    19  C    3.737202   2.495434   4.278943   2.912159   5.148854
    20  C    4.222684   3.748918   5.652637   4.285883   6.487564
    21  C    3.723693   4.245131   6.464381   5.130913   7.066305
    22  C    2.469107   3.753047   6.148477   4.924641   6.484891
    23  C    6.175983   4.270276   2.489962   3.743633   1.449008
    24  C    8.816568   7.079346   5.136716   6.471433   4.258098
    25  C    8.590530   6.496429   4.292886   5.659645   3.757778
    26  C    7.366945   5.144526   2.907426   4.274202   2.490081
    27  C    7.872560   6.497690   4.935025   6.159283   3.765564
    28  C    6.480028   5.113443   3.766763   4.889100   2.467783
    29  C    5.639414   4.904045   4.259274   5.086992   2.841963
    30  C    6.477658   6.184576   5.687409   6.483906   4.270100
    31  C    7.896403   7.378329   6.511492   7.486454   5.124921
    32  C    8.475560   7.504830   6.214246   7.355638   4.934287
    33  H    1.102360   3.920127   6.139567   5.338205   5.860791
    34  H    6.140582   3.427974   1.100971   2.150953   2.167598
    35  H    4.864912   2.167516   2.151179   1.100985   3.426887
    36  H    7.081493   7.572622   7.567611   8.159199   6.175418
    37  H    2.535310   5.066243   6.926967   6.423960   6.286862
    38  H    4.921115   7.096449   8.518163   8.325354   7.553734
    39  H    6.192411   7.580875   8.319655   8.530413   7.080605
    40  H    4.613065   2.708810   3.846347   2.543487   4.951507
    41  H    5.317513   4.638863   6.287272   4.938422   7.264271
    42  H    4.613531   5.339989   7.541678   6.198548   8.161186
    43  H    2.688618   4.625235   7.047091   5.887784   7.234746
    44  H    9.873717   8.175221   6.206682   7.550637   5.353972
    45  H    9.513428   7.262285   4.933553   6.281929   4.639026
    46  H    7.446569   4.949839   2.540571   3.843798   2.705916
    47  H    8.612828   8.335095   7.585629   8.523001   6.188787
    48  H    9.571432   8.540031   7.112199   8.310708   5.896842
                    6          7          8          9         10
     6  C    0.000000
     7  C    1.415620   0.000000
     8  C    4.214911   2.799297   0.000000
     9  C    3.713088   2.419190   1.409185   0.000000
    10  C    2.465055   1.420747   2.411988   1.369259   0.000000
    11  C    3.748441   2.452950   1.380150   2.427525   2.813996
    12  C    2.447558   1.412837   2.423098   2.805299   2.447163
    13  C    2.818372   2.449212   3.728619   4.226963   3.745810
    14  C    4.260823   3.770235   4.259988   5.116366   4.929444
    15  C    5.125037   4.276793   3.774179   4.930928   5.132191
    16  C    4.940354   3.784992   2.477972   3.774698   4.275827
    17  C    7.378661   6.201555   4.309569   5.718744   6.517497
    18  C    7.522977   6.527273   5.161360   6.538203   7.114721
    19  C    8.880375   7.925452   6.538523   7.927529   8.528491
    20  C    9.908308   8.845152   7.105283   8.514463   9.281563
    21  C    9.797472   8.605982   6.511643   7.901027   8.830316
    22  C    8.632109   7.383867   5.168355   6.547123   7.517574
    23  C    4.898213   5.115987   6.495031   7.076259   6.504030
    24  C    5.620599   6.459356   8.570872   8.788052   7.859179
    25  C    6.434993   7.044614   8.806381   9.232879   8.465358
    26  C    6.137938   6.478453   7.882967   8.477757   7.879227
    27  C    4.226312   5.096172   7.330185   7.455610   6.484791
    28  C    3.735760   4.249719   6.156343   6.466326   5.670459
    29  C    2.430937   2.814198   4.862554   5.059273   4.234915
    30  C    1.379006   2.428069   5.056466   4.847150   3.726455
    31  C    2.461824   3.761587   6.474513   6.151631   4.926828
    32  C    3.690775   4.864116   7.433682   7.283063   6.133131
    33  H    6.400244   5.040050   2.529499   3.873144   4.931063
    34  H    7.235402   7.074769   7.560590   8.520077   8.318802
    35  H    8.162996   7.567199   7.098248   8.331391   8.536098
    36  H    1.097104   2.171521   4.845423   4.050687   2.686529
    37  H    5.315866   3.900247   1.100991   2.175275   3.402713
    38  H    4.606382   3.418606   2.163461   1.095036   2.144241
    39  H    2.686385   2.174046   3.412468   2.147921   1.095887
    40  H    9.197997   8.375348   7.294796   8.650154   9.121214
    41  H   10.938661   9.906380   8.200068   9.609252  10.370082
    42  H   10.761355   9.527827   7.279310   8.636132   9.650357
    43  H    8.771311   7.444070   4.959700   6.259866   7.368395
    44  H    6.237302   7.220688   9.487344   9.601579   8.586396
    45  H    7.511909   8.139681   9.866167  10.320841   9.560422
    46  H    7.051818   7.246375   8.346675   9.082965   8.613735
    47  H    2.678594   4.090641   6.886836   6.345363   5.025094
    48  H    4.591081   5.849727   8.482692   8.259069   7.055701
                   11         12         13         14         15
    11  C    0.000000
    12  C    1.426753   0.000000
    13  C    2.478671   1.421774   0.000000
    14  C    2.880015   2.482283   1.442476   0.000000
    15  C    2.503722   2.863985   2.480629   1.425264   0.000000
    16  C    1.461844   2.492821   2.874033   2.488672   1.440082
    17  C    3.782961   4.931249   5.127364   4.254686   2.829424
    18  C    4.300835   5.145074   4.944290   3.766827   2.463693
    19  C    5.714512   6.533311   6.224374   4.940437   3.766303
    20  C    6.499701   7.496323   7.366221   6.165128   4.885715
    21  C    6.168245   7.349967   7.489357   6.474355   5.080064
    22  C    4.931360   6.193742   6.508222   5.669818   4.244554
    23  C    5.154121   4.271201   2.849430   2.467801   3.775298
    24  C    7.364607   6.156544   4.886031   5.095888   6.491361
    25  C    7.503179   6.470882   5.083630   4.890927   6.175090
    26  C    6.531185   5.672968   4.251256   3.756382   4.936814
    27  C    6.193218   4.907208   3.743750   4.256427   5.681656
    28  C    4.935070   3.757083   2.456409   2.841589   4.266828
    29  C    3.749547   2.439501   1.396977   2.459059   3.755243
    30  C    4.248321   2.821754   2.448205   3.769514   4.928825
    31  C    5.694633   4.267954   3.757376   4.933214   6.208313
    32  C    6.484494   5.084426   4.233142   5.117592   6.506024
    33  H    2.682311   4.100073   4.888545   4.626621   3.434011
    34  H    6.197407   5.879091   4.626572   3.415843   3.907008
    35  H    5.907573   6.179284   5.344643   3.902174   3.420771
    36  H    4.622282   3.435378   3.915430   5.357897   6.193653
    37  H    2.146779   3.423001   4.621691   4.906246   4.126763
    38  H    3.407116   3.900141   5.321873   6.180572   5.895119
    39  H    3.909862   3.434102   4.620395   5.897234   6.198401
    40  H    6.330907   6.963384   6.435636   5.049032   4.104601
    41  H    7.581281   8.544064   8.340882   7.082384   5.865699
    42  H    7.076268   8.316983   8.532238   7.553474   6.150102
    43  H    5.022941   6.390007   6.924046   6.274596   4.870765
    44  H    8.328561   7.064294   5.859467   6.165982   7.570519
    45  H    8.547871   7.550100   6.153148   5.863702   7.084379
    46  H    6.969645   6.293799   4.891050   4.096807   5.049373
    47  H    6.290758   4.888313   4.627031   5.898322   7.106417
    48  H    7.567036   6.159124   5.328990   6.180247   7.580130
                   16         17         18         19         20
    16  C    0.000000
    17  C    2.438548   0.000000
    18  C    2.839035   1.406201   0.000000
    19  C    4.252669   2.429842   1.414121   0.000000
    20  C    5.070319   2.795724   2.422083   1.373825   0.000000
    21  C    4.857148   2.418964   2.803626   2.412003   1.407525
    22  C    3.725513   1.415134   2.438781   2.791018   2.411177
    23  C    4.956421   6.517945   5.711966   6.565209   7.915853
    24  C    7.514437   9.287844   8.521043   9.344871  10.705178
    25  C    7.379456   8.851915   7.917816   8.571721   9.945289
    26  C    6.222778   7.533748   6.554363   7.186318   8.559936
    27  C    6.526443   8.511063   7.918542   8.904341  10.226454
    28  C    5.145898   7.096244   6.523120   7.550742   8.855531
    29  C    4.271010   6.491799   6.194743   7.399114   8.608311
    30  C    5.138681   7.508390   7.392451   8.663603   9.814298
    31  C    6.545409   8.877463   8.660748   9.873556  11.078082
    32  C    7.107124   9.296137   8.878358   9.974562  11.253327
    33  H    2.140845   2.183784   3.440505   4.611588   4.853631
    34  H    5.347082   5.865899   4.635288   4.937778   6.294912
    35  H    4.624906   4.087431   2.688652   2.532827   3.846502
    36  H    5.910092   8.343419   8.564269   9.935480  10.930516
    37  H    2.696380   3.889567   4.976494   6.268555   6.633431
    38  H    4.640348   6.325164   7.289104   8.642047   9.097861
    39  H    5.371679   7.599349   8.210513   9.624328  10.370496
    40  H    4.890615   3.419001   2.165562   1.100731   2.158195
    41  H    6.143065   3.890547   3.417756   2.146024   1.094880
    42  H    5.831555   3.416472   3.898424   3.396544   2.166073
    43  H    4.053682   2.170651   3.426187   3.886903   3.410714
    44  H    8.557215  10.374985   9.616918  10.432729  11.795185
    45  H    8.346681   9.673137   8.650190   9.174044  10.543822
    46  H    6.436169   7.402420   6.277779   6.706884   8.071962
    47  H    7.293232   9.683168   9.569803  10.823893  11.991874
    48  H    8.203019  10.380287   9.929495  10.992636  12.288021
                   21         22         23         24         25
    21  C    0.000000
    22  C    1.373784   0.000000
    23  C    8.515309   7.913286   0.000000
    24  C   11.324204  10.693472   2.809192   0.000000
    25  C   10.703439  10.222604   2.423167   1.392372   0.000000
    26  C    9.330932   8.887176   1.402123   2.411864   1.385486
    27  C   10.690771   9.926177   2.445360   1.394290   2.414716
    28  C    9.284894   8.511364   1.410778   2.429731   2.795063
    29  C    8.823334   7.884435   2.467614   3.740967   4.230653
    30  C    9.900405   8.854791   3.766195   4.241594   5.086419
    31  C   11.246727  10.243730   4.245483   3.702524   4.848833
    32  C   11.584383  10.698838   3.760478   2.472223   3.744714
    33  H    4.060772   2.691498   7.093974   9.642444   9.517092
    34  H    7.249811   7.072411   2.690554   4.929861   3.853105
    35  H    4.929012   5.024535   4.639484   7.254379   6.301811
    36  H   10.756448   9.550391   5.875811   6.245499   7.202737
    37  H    5.861213   4.489150   7.272323   9.504951   9.641839
    38  H    8.343810   6.970841   8.171227   9.847383  10.320300
    39  H    9.891712   8.565892   7.255140   8.298599   9.045072
    40  H    3.418554   3.891677   6.285192   8.983048   8.080820
    41  H    2.166330   3.396115   8.659276  11.409720  10.556603
    42  H    1.094888   2.146941   9.610191  12.419091  11.792041
    43  H    2.149775   1.095903   8.628416  11.361762  10.992310
    44  H   12.420060  11.782534   3.905051   1.095875   2.160294
    45  H   11.397762  11.013699   3.413082   2.156090   1.095091
    46  H    8.974707   8.688225   2.159109   3.412252   2.163439
    47  H   12.080748  11.017207   5.341514   4.601530   5.833434
    48  H   12.653621  11.785563   4.624973   2.684226   4.072010
                   26         27         28         29         30
    26  C    0.000000
    27  C    2.795376   0.000000
    28  C    2.423891   1.414841   0.000000
    29  C    3.741523   2.467740   1.435603   0.000000
    30  C    4.899018   2.847307   2.475218   1.428139   0.000000
    31  C    5.064144   2.434217   2.834843   2.474558   1.446467
    32  C    4.240585   1.445278   2.466886   2.836232   2.436085
    33  H    8.339315   8.610926   7.253026   6.265263   6.917619
    34  H    2.530819   5.034082   4.093961   4.886138   6.293081
    35  H    4.934441   7.083090   5.875275   6.165638   7.571198
    36  H    7.048918   4.872482   4.625264   3.431332   2.152362
    37  H    8.631607   8.308148   7.076708   5.846143   6.133965
    38  H    9.572772   8.501390   7.546827   6.131345   5.826376
    39  H    8.592647   6.905019   6.276767   4.865189   4.061073
    40  H    6.705159   8.702029   7.415648   7.475654   8.818405
    41  H    9.175701  11.028118   9.686610   9.539682  10.786542
    42  H   10.417359  11.779247  10.371561   9.880227  10.924614
    43  H    9.689234  10.498239   9.091164   8.320139   9.157067
    44  H    3.403203   2.160156   3.424441   4.625266   4.879323
    45  H    2.150925   3.405077   3.890154   5.325744   6.153957
    46  H    1.100811   3.896178   3.417165   4.623566   5.875621
    47  H    6.137500   3.438077   3.930786   3.453957   2.183609
    48  H    4.855604   2.183010   3.444282   3.932019   3.439900
                   31         32         33         34         35
    31  C    0.000000
    32  C    1.348437   0.000000
    33  H    8.361510   9.075773   0.000000
    34  H    6.925188   6.419251   7.225381   0.000000
    35  H    8.538419   8.337814   5.949045   2.498506   0.000000
    36  H    2.697777   4.041085   7.196678   8.291178   9.260070
    37  H    7.560561   8.487332   1.803679   8.025668   7.220339
    38  H    7.067739   8.252667   4.287737   9.570094   9.254589
    39  H    5.030340   6.330620   5.941473   9.241503   9.586164
    40  H    9.926754   9.878091   5.568412   4.294563   1.796057
    41  H   12.014191  12.117678   5.928717   6.788408   4.289986
    42  H   12.287589  12.656050   4.763076   8.300164   5.929331
    43  H   10.581524  11.155927   2.441504   8.017993   6.072519
    44  H    4.044279   2.700745  10.674437   5.933757   8.307106
    45  H    5.817313   4.625975  10.473658   4.283249   6.781705
    46  H    6.139064   5.341363   8.481468   1.794656   4.293159
    47  H    1.096216   2.131802   8.972541   8.019398   9.587054
    48  H    2.132024   1.096179  10.168798   7.203712   9.256481
                   36         37         38         39         40
    36  H    0.000000
    37  H    5.927053   0.000000
    38  H    4.758192   2.484095   0.000000
    39  H    2.440007   4.314088   2.487209   0.000000
    40  H   10.279711   7.141991   9.437959  10.210604   0.000000
    41  H   11.973194   7.716424  10.185827  11.460283   2.494079
    42  H   11.692082   6.521510   8.975578  10.688040   4.314553
    43  H    9.611409   4.103118   6.520307   8.363551   4.987532
    44  H    6.716867  10.454970  10.636396   8.920629  10.050553
    45  H    8.251671  10.677932  11.409671  10.133828   8.577740
    46  H    8.009775   8.992589  10.171939   9.399996   6.089214
    47  H    2.446873   7.987503   7.151734   4.886840  10.929500
    48  H    4.757382   9.546989   9.193803   7.144503  10.847898
                   41         42         43         44         45
    41  H    0.000000
    42  H    2.482129   0.000000
    43  H    4.306485   2.486237   0.000000
    44  H   12.488606  13.514947  12.438494   0.000000
    45  H   11.071379  12.474805  11.833426   2.483328   0.000000
    46  H    8.583004  10.040327   9.572944   4.314623   2.488637
    47  H   12.954547  13.099550  11.275339   4.759022   6.751096
    48  H   13.130355  13.729234  12.251014   2.446492   4.764386
                   46         47         48
    46  H    0.000000
    47  H    7.219742   0.000000
    48  H    5.939970   2.479466   0.000000
 Stoichiometry    C32H16
 Framework group  CS[SG(C32H16)]
 Deg. of freedom    93
 Full point group                 CS      NOp   2
 Largest Abelian subgroup         CS      NOp   2
 Largest concise Abelian subgroup C1      NOp   1
                         Standard orientation:                         
 ---------------------------------------------------------------------
 Center     Atomic      Atomic             Coordinates (Angstroms)
 Number     Number       Type             X           Y           Z
 ---------------------------------------------------------------------
      1          6           0        2.806038   -1.948854    0.000000
      2          6           0        2.422573    0.842730    0.000000
      3          6           0        0.933616    2.753921    0.000000
      4          6           0        2.201579    2.243643    0.000000
      5          6           0       -0.194703    1.896039    0.000000
      6          6           0       -3.365398   -2.101720    0.000000
      7          6           0       -2.058972   -2.646910    0.000000
      8          6           0        0.528280   -3.715644    0.000000
      9          6           0       -0.591965   -4.570544    0.000000
     10          6           0       -1.859909   -4.053642    0.000000
     11          6           0        0.375204   -2.344009    0.000000
     12          6           0       -0.938197   -1.786694    0.000000
     13          6           0       -1.135116   -0.378623    0.000000
     14          6           0        0.000000    0.511461    0.000000
     15          6           0        1.320249   -0.025493    0.000000
     16          6           0        1.531775   -1.449956    0.000000
     17          6           0        3.943119   -1.086717    0.000000
     18          6           0        3.761310    0.307682    0.000000
     19          6           0        4.899382    1.147045    0.000000
     20          6           0        6.164324    0.611023    0.000000
     21          6           0        6.343203   -0.785089    0.000000
     22          6           0        5.253340   -1.621438    0.000000
     23          6           0       -1.536776    2.442356    0.000000
     24          6           0       -4.153882    3.463297    0.000000
     25          6           0       -3.061032    4.326071    0.000000
     26          6           0       -1.769304    3.825064    0.000000
     27          6           0       -3.955614    2.083176    0.000000
     28          6           0       -2.639899    1.562916    0.000000
     29          6           0       -2.431231    0.142559    0.000000
     30          6           0       -3.557081   -0.736102    0.000000
     31          6           0       -4.886473   -0.166027    0.000000
     32          6           0       -5.075155    1.169144    0.000000
     33          1           0        2.965759   -3.039582    0.000000
     34          1           0        0.761462    3.841349    0.000000
     35          1           0        3.079242    2.908381    0.000000
     36          1           0       -4.226300   -2.781782    0.000000
     37          1           0        1.541542   -4.146318    0.000000
     38          1           0       -0.432742   -5.653943    0.000000
     39          1           0       -2.735149   -4.713128    0.000000
     40          1           0        4.745057    2.236904    0.000000
     41          1           0        7.042141    1.265392    0.000000
     42          1           0        7.357824   -1.196580    0.000000
     43          1           0        5.384836   -2.709423    0.000000
     44          1           0       -5.172234    3.868144    0.000000
     45          1           0       -3.224651    5.408870    0.000000
     46          1           0       -0.905173    4.507019    0.000000
     47          1           0       -5.737329   -0.857209    0.000000
     48          1           0       -6.084004    1.597902    0.000000
 ---------------------------------------------------------------------
 Rotational constants (GHZ):      0.2496101      0.1162126      0.0792948
 Leave Link  202 at Sat Jul 27 12:55:11 2019, MaxMem=  4194304000 cpu:         0.8
 (Enter /home/minenky/programs//g09/l301.exe)
 Standard basis: def2TZVP (5D, 7F)
 ======================================================================================================
                                       Pseudopotential Parameters
 ======================================================================================================
  Center     Atomic      Valence      Angular      Power
  Number     Number     Electrons     Momentum     of R      Exponent        Coefficient   SO-Coeffient
 ======================================================================================================
    1          6
                                   No pseudopotential on this center.
    2          6
                                   No pseudopotential on this center.
    3          6
                                   No pseudopotential on this center.
    4          6
                                   No pseudopotential on this center.
    5          6
                                   No pseudopotential on this center.
    6          6
                                   No pseudopotential on this center.
    7          6
                                   No pseudopotential on this center.
    8          6
                                   No pseudopotential on this center.
    9          6
                                   No pseudopotential on this center.
   10          6
                                   No pseudopotential on this center.
   11          6
                                   No pseudopotential on this center.
   12          6
                                   No pseudopotential on this center.
   13          6
                                   No pseudopotential on this center.
   14          6
                                   No pseudopotential on this center.
   15          6
                                   No pseudopotential on this center.
   16          6
                                   No pseudopotential on this center.
   17          6
                                   No pseudopotential on this center.
   18          6
                                   No pseudopotential on this center.
   19          6
                                   No pseudopotential on this center.
   20          6
                                   No pseudopotential on this center.
   21          6
                                   No pseudopotential on this center.
   22          6
                                   No pseudopotential on this center.
   23          6
                                   No pseudopotential on this center.
   24          6
                                   No pseudopotential on this center.
   25          6
                                   No pseudopotential on this center.
   26          6
                                   No pseudopotential on this center.
   27          6
                                   No pseudopotential on this center.
   28          6
                                   No pseudopotential on this center.
   29          6
                                   No pseudopotential on this center.
   30          6
                                   No pseudopotential on this center.
   31          6
                                   No pseudopotential on this center.
   32          6
                                   No pseudopotential on this center.
   33          1
                                   No pseudopotential on this center.
   34          1
                                   No pseudopotential on this center.
   35          1
                                   No pseudopotential on this center.
   36          1
                                   No pseudopotential on this center.
   37          1
                                   No pseudopotential on this center.
   38          1
                                   No pseudopotential on this center.
   39          1
                                   No pseudopotential on this center.
   40          1
                                   No pseudopotential on this center.
   41          1
                                   No pseudopotential on this center.
   42          1
                                   No pseudopotential on this center.
   43          1
                                   No pseudopotential on this center.
   44          1
                                   No pseudopotential on this center.
   45          1
                                   No pseudopotential on this center.
   46          1
                                   No pseudopotential on this center.
   47          1
                                   No pseudopotential on this center.
   48          1
                                   No pseudopotential on this center.
 ======================================================================================================
 Ernie: Thresh=  0.10000D-02 Tol=  0.10000D-05 Strict=F.
 AO basis set (Overlap normalization):
 Atom C1       Shell     1 S   6     bf    1 -     1          5.302642959407         -3.682800503579          0.000000000000
      0.1357534968D+05  0.6064550360D-03
      0.2035233368D+04  0.4697908888D-02
      0.4632256236D+03  0.2433247765D-01
      0.1312001960D+03  0.9739996831D-01
      0.4285301589D+02  0.3019558425D+00
      0.1558418577D+02  0.6623360914D+00
 Atom C1       Shell     2 S   2     bf    2 -     2          5.302642959407         -3.682800503579          0.000000000000
      0.6206713851D+01  0.6559530854D+00
      0.2576489653D+01  0.3758563329D+00
 Atom C1       Shell     3 S   1     bf    3 -     3          5.302642959407         -3.682800503579          0.000000000000
      0.5769633942D+00  0.1000000000D+01
 Atom C1       Shell     4 S   1     bf    4 -     4          5.302642959407         -3.682800503579          0.000000000000
      0.2297283136D+00  0.1000000000D+01
 Atom C1       Shell     5 S   1     bf    5 -     5          5.302642959407         -3.682800503579          0.000000000000
      0.9516444003D-01  0.1000000000D+01
 Atom C1       Shell     6 P   4     bf    6 -     8          5.302642959407         -3.682800503579          0.000000000000
      0.3469723224D+02  0.1132722000D-01
      0.7958262283D+01  0.7616965920D-01
      0.2378082688D+01  0.3019225220D+00
      0.8143320818D+00  0.7278502735D+00
 Atom C1       Shell     7 P   1     bf    9 -    11          5.302642959407         -3.682800503579          0.000000000000
      0.2888754725D+00  0.1000000000D+01
 Atom C1       Shell     8 P   1     bf   12 -    14          5.302642959407         -3.682800503579          0.000000000000
      0.1005682367D+00  0.1000000000D+01
 Atom C1       Shell     9 D   1     bf   15 -    19          5.302642959407         -3.682800503579          0.000000000000
      0.1097000000D+01  0.1000000000D+01
 Atom C1       Shell    10 D   1     bf   20 -    24          5.302642959407         -3.682800503579          0.000000000000
      0.3180000000D+00  0.1000000000D+01
 Atom C1       Shell    11 F   1     bf   25 -    31          5.302642959407         -3.682800503579          0.000000000000
      0.7610000000D+00  0.1000000000D+01
 Atom C2       Shell    12 S   6     bf   32 -    32          4.578000249709          1.592529701961          0.000000000000
      0.1357534968D+05  0.6064550360D-03
      0.2035233368D+04  0.4697908888D-02
      0.4632256236D+03  0.2433247765D-01
      0.1312001960D+03  0.9739996831D-01
      0.4285301589D+02  0.3019558425D+00
      0.1558418577D+02  0.6623360914D+00
 Atom C2       Shell    13 S   2     bf   33 -    33          4.578000249709          1.592529701961          0.000000000000
      0.6206713851D+01  0.6559530854D+00
      0.2576489653D+01  0.3758563329D+00
 Atom C2       Shell    14 S   1     bf   34 -    34          4.578000249709          1.592529701961          0.000000000000
      0.5769633942D+00  0.1000000000D+01
 Atom C2       Shell    15 S   1     bf   35 -    35          4.578000249709          1.592529701961          0.000000000000
      0.2297283136D+00  0.1000000000D+01
 Atom C2       Shell    16 S   1     bf   36 -    36          4.578000249709          1.592529701961          0.000000000000
      0.9516444003D-01  0.1000000000D+01
 Atom C2       Shell    17 P   4     bf   37 -    39          4.578000249709          1.592529701961          0.000000000000
      0.3469723224D+02  0.1132722000D-01
      0.7958262283D+01  0.7616965920D-01
      0.2378082688D+01  0.3019225220D+00
      0.8143320818D+00  0.7278502735D+00
 Atom C2       Shell    18 P   1     bf   40 -    42          4.578000249709          1.592529701961          0.000000000000
      0.2888754725D+00  0.1000000000D+01
 Atom C2       Shell    19 P   1     bf   43 -    45          4.578000249709          1.592529701961          0.000000000000
      0.1005682367D+00  0.1000000000D+01
 Atom C2       Shell    20 D   1     bf   46 -    50          4.578000249709          1.592529701961          0.000000000000
      0.1097000000D+01  0.1000000000D+01
 Atom C2       Shell    21 D   1     bf   51 -    55          4.578000249709          1.592529701961          0.000000000000
      0.3180000000D+00  0.1000000000D+01
 Atom C2       Shell    22 F   1     bf   56 -    62          4.578000249709          1.592529701961          0.000000000000
      0.7610000000D+00  0.1000000000D+01
 Atom C3       Shell    23 S   6     bf   63 -    63          1.764278990829          5.204156699368          0.000000000000
      0.1357534968D+05  0.6064550360D-03
      0.2035233368D+04  0.4697908888D-02
      0.4632256236D+03  0.2433247765D-01
      0.1312001960D+03  0.9739996831D-01
      0.4285301589D+02  0.3019558425D+00
      0.1558418577D+02  0.6623360914D+00
 Atom C3       Shell    24 S   2     bf   64 -    64          1.764278990829          5.204156699368          0.000000000000
      0.6206713851D+01  0.6559530854D+00
      0.2576489653D+01  0.3758563329D+00
 Atom C3       Shell    25 S   1     bf   65 -    65          1.764278990829          5.204156699368          0.000000000000
      0.5769633942D+00  0.1000000000D+01
 Atom C3       Shell    26 S   1     bf   66 -    66          1.764278990829          5.204156699368          0.000000000000
      0.2297283136D+00  0.1000000000D+01
 Atom C3       Shell    27 S   1     bf   67 -    67          1.764278990829          5.204156699368          0.000000000000
      0.9516444003D-01  0.1000000000D+01
 Atom C3       Shell    28 P   4     bf   68 -    70          1.764278990829          5.204156699368          0.000000000000
      0.3469723224D+02  0.1132722000D-01
      0.7958262283D+01  0.7616965920D-01
      0.2378082688D+01  0.3019225220D+00
      0.8143320818D+00  0.7278502735D+00
 Atom C3       Shell    29 P   1     bf   71 -    73          1.764278990829          5.204156699368          0.000000000000
      0.2888754725D+00  0.1000000000D+01
 Atom C3       Shell    30 P   1     bf   74 -    76          1.764278990829          5.204156699368          0.000000000000
      0.1005682367D+00  0.1000000000D+01
 Atom C3       Shell    31 D   1     bf   77 -    81          1.764278990829          5.204156699368          0.000000000000
      0.1097000000D+01  0.1000000000D+01
 Atom C3       Shell    32 D   1     bf   82 -    86          1.764278990829          5.204156699368          0.000000000000
      0.3180000000D+00  0.1000000000D+01
 Atom C3       Shell    33 F   1     bf   87 -    93          1.764278990829          5.204156699368          0.000000000000
      0.7610000000D+00  0.1000000000D+01
 Atom C4       Shell    34 S   6     bf   94 -    94          4.160381307510          4.239871485038          0.000000000000
      0.1357534968D+05  0.6064550360D-03
      0.2035233368D+04  0.4697908888D-02
      0.4632256236D+03  0.2433247765D-01
      0.1312001960D+03  0.9739996831D-01
      0.4285301589D+02  0.3019558425D+00
      0.1558418577D+02  0.6623360914D+00
 Atom C4       Shell    35 S   2     bf   95 -    95          4.160381307510          4.239871485038          0.000000000000
      0.6206713851D+01  0.6559530854D+00
      0.2576489653D+01  0.3758563329D+00
 Atom C4       Shell    36 S   1     bf   96 -    96          4.160381307510          4.239871485038          0.000000000000
      0.5769633942D+00  0.1000000000D+01
 Atom C4       Shell    37 S   1     bf   97 -    97          4.160381307510          4.239871485038          0.000000000000
      0.2297283136D+00  0.1000000000D+01
 Atom C4       Shell    38 S   1     bf   98 -    98          4.160381307510          4.239871485038          0.000000000000
      0.9516444003D-01  0.1000000000D+01
 Atom C4       Shell    39 P   4     bf   99 -   101          4.160381307510          4.239871485038          0.000000000000
      0.3469723224D+02  0.1132722000D-01
      0.7958262283D+01  0.7616965920D-01
      0.2378082688D+01  0.3019225220D+00
      0.8143320818D+00  0.7278502735D+00
 Atom C4       Shell    40 P   1     bf  102 -   104          4.160381307510          4.239871485038          0.000000000000
      0.2888754725D+00  0.1000000000D+01
 Atom C4       Shell    41 P   1     bf  105 -   107          4.160381307510          4.239871485038          0.000000000000
      0.1005682367D+00  0.1000000000D+01
 Atom C4       Shell    42 D   1     bf  108 -   112          4.160381307510          4.239871485038          0.000000000000
      0.1097000000D+01  0.1000000000D+01
 Atom C4       Shell    43 D   1     bf  113 -   117          4.160381307510          4.239871485038          0.000000000000
      0.3180000000D+00  0.1000000000D+01
 Atom C4       Shell    44 F   1     bf  118 -   124          4.160381307510          4.239871485038          0.000000000000
      0.7610000000D+00  0.1000000000D+01
 Atom C5       Shell    45 S   6     bf  125 -   125         -0.367935538003          3.582995287422          0.000000000000
      0.1357534968D+05  0.6064550360D-03
      0.2035233368D+04  0.4697908888D-02
      0.4632256236D+03  0.2433247765D-01
      0.1312001960D+03  0.9739996831D-01
      0.4285301589D+02  0.3019558425D+00
      0.1558418577D+02  0.6623360914D+00
 Atom C5       Shell    46 S   2     bf  126 -   126         -0.367935538003          3.582995287422          0.000000000000
      0.6206713851D+01  0.6559530854D+00
      0.2576489653D+01  0.3758563329D+00
 Atom C5       Shell    47 S   1     bf  127 -   127         -0.367935538003          3.582995287422          0.000000000000
      0.5769633942D+00  0.1000000000D+01
 Atom C5       Shell    48 S   1     bf  128 -   128         -0.367935538003          3.582995287422          0.000000000000
      0.2297283136D+00  0.1000000000D+01
 Atom C5       Shell    49 S   1     bf  129 -   129         -0.367935538003          3.582995287422          0.000000000000
      0.9516444003D-01  0.1000000000D+01
 Atom C5       Shell    50 P   4     bf  130 -   132         -0.367935538003          3.582995287422          0.000000000000
      0.3469723224D+02  0.1132722000D-01
      0.7958262283D+01  0.7616965920D-01
      0.2378082688D+01  0.3019225220D+00
      0.8143320818D+00  0.7278502735D+00
 Atom C5       Shell    51 P   1     bf  133 -   135         -0.367935538003          3.582995287422          0.000000000000
      0.2888754725D+00  0.1000000000D+01
 Atom C5       Shell    52 P   1     bf  136 -   138         -0.367935538003          3.582995287422          0.000000000000
      0.1005682367D+00  0.1000000000D+01
 Atom C5       Shell    53 D   1     bf  139 -   143         -0.367935538003          3.582995287422          0.000000000000
      0.1097000000D+01  0.1000000000D+01
 Atom C5       Shell    54 D   1     bf  144 -   148         -0.367935538003          3.582995287422          0.000000000000
      0.3180000000D+00  0.1000000000D+01
 Atom C5       Shell    55 F   1     bf  149 -   155         -0.367935538003          3.582995287422          0.000000000000
      0.7610000000D+00  0.1000000000D+01
 Atom C6       Shell    56 S   6     bf  156 -   156         -6.359679771737         -3.971675597505          0.000000000000
      0.1357534968D+05  0.6064550360D-03
      0.2035233368D+04  0.4697908888D-02
      0.4632256236D+03  0.2433247765D-01
      0.1312001960D+03  0.9739996831D-01
      0.4285301589D+02  0.3019558425D+00
      0.1558418577D+02  0.6623360914D+00
[...]
 8,0.,0.00052464,-0.00030419,0.,0.00007131,-0.00006192,0.,-0.00020064,-
 0.00001904,0.,-0.00005045,0.00006175,0.,-0.00001393,0.00000620,0.,-0.0
 0000418,0.00000897,0.,-0.00002942,0.00004320,0.,0.00001839,-0.00000984
 ,0.,-0.00001746,0.00000492,0.,0.00001239,-0.00008917,0.,-0.00002535,0.
 00002040,0.,0.00002042,-0.00003752,0.,-0.00004795,0.00000037,0.,0.0000
 7408,0.00031118,0.,-0.00044505,0.00007247,0.,0.00005970,-0.00393073,0.
 ,-0.00089169,0.00151519,0.,0.00041219,0.00052325,0.,0.00427496,-0.0015
 4974,0.,-0.01051805,-0.01764234,0.,-0.08270200,-0.31107279,0.,0.000048
 99,0.00002488,0.,-0.00001550,0.00001142,0.,0.00001112,-0.00000027,0.,-
 0.00002193,-0.00001232,0.,-0.00000429,-0.00001482,0.,-0.00000846,0.000
 02120,0.,-0.00002874,-0.00001437,0.,0.00000794,0.00000396,0.,-0.000000
 90,0.00000339,0.,0.00000485,-0.00000497,0.,-0.00049685,0.00042361,0.,-
 0.00001444,-0.00000707,0.,0.00001678,0.00001280,0.,-0.00000271,0.00000
 239,0.,-0.00000095,-0.00000021,0.,-0.00000212,0.00000946,0.,-0.0000023
 9,0.00000169,0.,-0.00005090,-0.00008265,0.,-0.00051765,-0.00097884,0.,
 0.00032314,0.00082594,0.,0.08830082,0.33099575,0.,0.,-0.00317574,0.,0.
 ,0.00005681,0.,0.,-0.00000630,0.,0.,0.00018477,0.,0.,0.00001015,0.,0.,
 -0.00000242,0.,0.,-0.00000737,0.,0.,-0.00004043,0.,0.,-0.00000500,0.,0
 .,-0.00000254,0.,0.,0.00016659,0.,0.,0.00000111,0.,0.,0.00001047,0.,0.
 ,0.00002105,0.,0.,-0.00002565,0.,0.,-0.00011888,0.,0.,0.00298435,0.,0.
 ,0.00546650,0.,0.,-0.00085649,0.,0.,0.00869226,0.,0.,0.00368559,0.,0.,
 -0.03661494,0.,0.,-0.00000431,0.,0.,-0.00000133,0.,0.,0.00000021,0.,0.
 ,-0.00000343,0.,0.,0.00000043,0.,0.,0.00000155,0.,0.,-0.00000319,0.,0.
 ,0.00000231,0.,0.,-0.00000168,0.,0.,-0.00000101,0.,0.,0.00025843,0.,0.
 ,-0.00003824,0.,0.,0.00000627,0.,0.,-0.00000033,0.,0.,0.00004362,0.,0.
 ,0.00000714,0.,0.,0.00000285,0.,0.,-0.00114143,0.,0.,0.00008602,0.,0.,
 -0.00485470,0.,0.,0.02521188,-0.00000611,-0.00001650,0.,-0.00000685,0.
 00001328,0.,-0.00004652,0.00003461,0.,-0.00000936,-0.00001524,0.,-0.00
 002306,-0.00000643,0.,-0.00002476,-0.00009749,0.,0.00006646,-0.0000083
 8,0.,-0.00000282,0.00002837,0.,0.00002168,-0.00003735,0.,-0.00002574,-
 0.00001275,0.,-0.00001487,-0.00004784,0.,-0.00002693,0.00011708,0.,-0.
 00001587,-0.00029714,0.,-0.00000419,-0.00000445,0.,0.00001105,-0.00000
 609,0.,-0.00001665,0.00000675,0.,0.00000042,-0.00000933,0.,0.00001249,
 -0.00000971,0.,-0.00000764,-0.00000456,0.,-0.00000677,0.00000152,0.,-0
 .00000589,0.00000230,0.,0.00000126,0.00000824,0.,0.00059369,0.00013220
 ,0.,-0.33255286,-0.04280412,0.,-0.01458632,-0.00624122,0.,-0.00023208,
 0.00381003,0.,-0.00885175,0.00055611,0.,0.00119074,-0.00192498,0.,-0.0
 0051195,0.00046919,0.,0.00016362,0.00020824,0.,0.00011612,-0.00038949,
 0.,0.00093928,0.00192350,0.,-0.00000366,-0.00000274,0.,0.00004520,-0.0
 0005370,0.,-0.00000728,0.00000325,0.,0.00000210,-0.00002484,0.,-0.0000
 0551,-0.00000156,0.,-0.00000123,-0.00000408,0.,0.00000319,-0.00000759,
 0.,0.00000600,-0.00000198,0.,-0.00000325,0.00000258,0.,-0.00000448,-0.
 00000079,0.,-0.00000040,-0.00000367,0.,0.35349278,-0.00003522,0.000012
 15,0.,-0.00001983,-0.00005548,0.,-0.00005850,-0.00003865,0.,0.00004077
 ,0.00011112,0.,0.00027392,0.00020987,0.,0.00025649,0.00010061,0.,-0.00
 016893,-0.00003888,0.,0.00001918,-0.00007106,0.,-0.00008342,0.00000982
 ,0.,0.00007647,0.00006927,0.,0.00004451,0.00000767,0.,-0.00017037,-0.0
 0005693,0.,-0.00008209,-0.00030896,0.,0.00016097,-0.00022610,0.,-0.000
 04005,0.00001706,0.,0.00003624,-0.00000138,0.,0.00002290,-0.00002543,0
 .,0.00003207,0.00001269,0.,-0.00001515,0.00000612,0.,0.00001215,0.0000
 1187,0.,0.00000392,-0.00001584,0.,-0.00001601,0.00000514,0.,-0.0000545
 5,-0.00132068,0.,-0.04218092,-0.06703684,0.,0.02536755,0.00874398,0.,0
 .00305851,-0.00357165,0.,-0.02945123,-0.00013013,0.,-0.00095507,-0.005
 28465,0.,-0.00142962,0.00052438,0.,-0.00024082,0.00005828,0.,0.0004921
 1,0.00012277,0.,-0.00198103,0.00121143,0.,-0.00000148,0.00000029,0.,-0
 .00004783,0.00006508,0.,-0.00000283,-0.00000151,0.,-0.00000396,-0.0000
 3017,0.,-0.00000228,-0.00000679,0.,-0.00000022,0.00000134,0.,-0.000000
 02,-0.00000606,0.,-0.00000147,0.00000082,0.,0.00000040,-0.00000015,0.,
 0.00000033,0.00000003,0.,0.00000009,0.00000035,0.,0.04543033,0.0665335
 5,0.,0.,0.00000549,0.,0.,-0.00001309,0.,0.,0.00002680,0.,0.,-0.0000667
 7,0.,0.,-0.00089058,0.,0.,-0.00000616,0.,0.,-0.00001651,0.,0.,-0.00001
 887,0.,0.,-0.00000804,0.,0.,-0.00000226,0.,0.,-0.00006801,0.,0.,0.0000
 1561,0.,0.,-0.00021564,0.,0.,0.00009455,0.,0.,0.00009437,0.,0.,-0.0000
 2682,0.,0.,0.00000026,0.,0.,0.00001912,0.,0.,0.00000033,0.,0.,-0.00000
 574,0.,0.,0.00000242,0.,0.,-0.00000593,0.,0.,-0.00097981,0.,0.,-0.0361
 2228,0.,0.,0.00253808,0.,0.,0.00716998,0.,0.,0.00322812,0.,0.,0.007054
 32,0.,0.,0.00019640,0.,0.,0.00016211,0.,0.,-0.00009311,0.,0.,-0.004241
 08,0.,0.,-0.00000268,0.,0.,0.00007750,0.,0.,-0.00000051,0.,0.,0.000026
 03,0.,0.,0.00003242,0.,0.,0.00000247,0.,0.,0.00000153,0.,0.,0.00000349
 ,0.,0.,0.00000116,0.,0.,0.00000080,0.,0.,0.00000104,0.,0.,0.02509874,-
 0.00003967,-0.00001467,0.,-0.00003801,-0.00007161,0.,-0.00005464,-0.00
 001513,0.,0.00005632,0.00009614,0.,0.00048865,-0.00145101,0.,0.0002141
 6,0.00015112,0.,-0.00018695,-0.00005052,0.,0.00001724,-0.00010937,0.,-
 0.00010113,0.00004248,0.,0.00008197,0.00007583,0.,0.00005887,0.0000758
 6,0.,-0.00003323,-0.00017249,0.,-0.00005625,0.00031236,0.,-0.00042171,
 -0.00009397,0.,-0.00002382,-0.00015419,0.,-0.00002158,0.00003700,0.,0.
 00001623,-0.00003333,0.,0.00006249,0.00001152,0.,-0.00002913,-0.000000
 44,0.,0.00001277,0.00001049,0.,-0.00000797,-0.00001788,0.,-0.00001476,
 0.00001228,0.,-0.00575853,0.00010293,0.,0.01159243,0.01972227,0.,-0.09
 656313,-0.09362598,0.,-0.00636321,-0.03069664,0.,-0.00225535,0.0036354
 3,0.,-0.00103515,0.00058294,0.,0.00011588,0.00002353,0.,-0.00022773,-0
 .00025650,0.,-0.00009467,0.00034934,0.,0.00072743,0.00046654,0.,-0.000
 00822,-0.00000292,0.,-0.00001575,0.00001234,0.,-0.00002634,0.00000171,
 0.,0.00000072,-0.00000767,0.,-0.00000051,-0.00000022,0.,-0.00000195,-0
 .00000173,0.,0.00000216,-0.00000204,0.,0.00000279,0.00000004,0.,-0.000
 00375,0.00000165,0.,-0.00000196,-0.00000047,0.,-0.00000064,-0.00000175
 ,0.,0.00075155,-0.00048410,0.,0.09835102,0.00000432,-0.00000755,0.,-0.
 00000548,0.00001808,0.,-0.00000241,-0.00005063,0.,-0.00003604,-0.00002
 351,0.,0.00004183,-0.00020705,0.,-0.00009243,-0.00006215,0.,0.00010090
 ,0.00002248,0.,-0.00003868,0.00002945,0.,0.00003345,-0.00000569,0.,-0.
 00004496,-0.00002195,0.,-0.00000838,-0.00004049,0.,-0.00000757,0.00006
 234,0.,0.00000559,-0.00008906,0.,-0.00013113,0.00012271,0.,0.00003197,
 -0.00000495,0.,-0.00002483,0.00000396,0.,-0.00000973,0.00000038,0.,0.0
 0000152,0.00000163,0.,-0.00000307,-0.00001217,0.,-0.00001011,-0.000004
 28,0.,-0.00001135,0.00000699,0.,0.00000735,0.00000871,0.,-0.00028640,0
 .00183540,0.,-0.01193517,-0.01775324,0.,-0.09404258,-0.30658952,0.,0.0
 0097167,-0.00066677,0.,0.00418961,-0.00180782,0.,0.00065551,0.00046532
 ,0.,-0.00004225,-0.00001646,0.,0.00013182,0.00009754,0.,0.00034473,-0.
 00033450,0.,-0.00101344,-0.00062998,0.,0.00000010,-0.00000289,0.,0.000
 01406,-0.00001368,0.,-0.00001175,0.00000447,0.,0.00000286,0.00000116,0
 .,-0.00000410,-0.00000065,0.,-0.00000324,-0.00000587,0.,0.00000405,-0.
 00000044,0.,0.00000417,0.00000047,0.,-0.00000391,0.00000251,0.,-0.0000
 0371,-0.00000035,0.,0.00000008,-0.00000307,0.,0.00032521,0.00082731,0.
 ,0.10122829,0.32404406,0.,0.,-0.00000193,0.,0.,0.00005315,0.,0.,0.0002
 7873,0.,0.,-0.00012166,0.,0.,0.00019799,0.,0.,0.00003072,0.,0.,-0.0000
 0536,0.,0.,-0.00000585,0.,0.,-0.00000107,0.,0.,-0.00000090,0.,0.,-0.00
 001039,0.,0.,0.00009154,0.,0.,0.00009267,0.,0.,-0.00049682,0.,0.,-0.00
 001483,0.,0.,-0.00001927,0.,0.,-0.00000888,0.,0.,-0.00000007,0.,0.,0.0
 0000959,0.,0.,-0.00000768,0.,0.,-0.00000059,0.,0.,-0.00000051,0.,0.,0.
 00823454,0.,0.,0.00241721,0.,0.,-0.03699169,0.,0.,0.00231700,0.,0.,0.0
 0751988,0.,0.,-0.00095364,0.,0.,-0.00085937,0.,0.,0.00007876,0.,0.,-0.
 00031798,0.,0.,0.00017539,0.,0.,0.00001586,0.,0.,-0.00005242,0.,0.,0.0
 0002491,0.,0.,-0.00000737,0.,0.,-0.00000084,0.,0.,0.00000129,0.,0.,0.0
 0000213,0.,0.,-0.00000314,0.,0.,0.00000330,0.,0.,0.00000100,0.,0.,0.00
 000060,0.,0.,-0.00361756,0.,0.,0.02609888,0.00003583,0.00003758,0.,-0.
 00002899,0.00003598,0.,-0.00354709,-0.00195072,0.,-0.00002204,-0.00014
 404,0.,-0.00097467,0.00111441,0.,-0.00008610,-0.00015617,0.,0.00015775
 ,0.00005073,0.,-0.00001704,0.00010380,0.,0.00008549,-0.00003822,0.,-0.
 00006826,-0.00005882,0.,-0.00004928,-0.00007485,0.,0.00002333,0.000169
 67,0.,0.00005343,-0.00013608,0.,0.00011407,0.00022604,0.,0.00002855,0.
 00012384,0.,0.00001150,-0.00004305,0.,-0.00002441,0.00003502,0.,-0.000
 06982,0.00001232,0.,0.00003007,-0.00000796,0.,-0.00000916,-0.00001165,
 0.,0.00000464,0.00001689,0.,0.00001565,-0.00001184,0.,0.01189155,-0.00
 801020,0.,-0.00529135,-0.00215616,0.,-0.01515298,0.02750598,0.,-0.1617
 7624,0.13639452,0.,-0.00041246,-0.00106341,0.,-0.00053098,-0.00284575,
 0.,0.00062827,-0.00039423,0.,0.00002117,0.00000389,0.,-0.00011909,-0.0
 0009845,0.,-0.00000502,0.00026589,0.,0.00000783,0.00000275,0.,-0.00631
 722,-0.00157678,0.,-0.00001812,-0.00000303,0.,-0.00000865,-0.00001901,
 0.,0.00000090,-0.00000358,0.,0.00000195,0.00000336,0.,-0.00000299,0.00
 000294,0.,-0.00000975,0.00000455,0.,0.00000395,-0.00000302,0.,0.000004
 64,0.00000168,0.,0.00000088,0.00000389,0.,-0.00083271,0.00121502,0.,0.
 00082316,-0.00032249,0.,0.18138211,0.00000109,0.00007489,0.,0.00015471
 ,0.00000509,0.,0.00048169,-0.00095033,0.,-0.00016965,0.00088930,0.,0.0
 0164034,0.00039779,0.,0.00006282,-0.00011867,0.,0.00006134,-0.00000256
 ,0.,-0.00001813,0.00005817,0.,0.00000522,-0.00006864,0.,-0.00005071,0.
 00002220,0.,0.00005745,-0.00007780,0.,-0.00005800,0.00017023,0.,0.0000
 9954,-0.00004524,0.,-0.00014713,-0.00005703,0.,0.00009429,0.00007086,0
 .,-0.00000975,-0.00011787,0.,0.00002423,0.00000725,0.,-0.00005221,0.00
 013141,0.,0.00001147,-0.00002922,0.,-0.00000876,0.00000560,0.,0.000001
 07,0.00000733,0.,0.00000601,0.00001480,0.,0.01970625,-0.01770886,0.,-0
 .00141519,0.00137776,0.,-0.00503916,0.00700383,0.,0.13712750,-0.243514
 52,0.,-0.00087117,-0.00026876,0.,-0.00372640,-0.00369078,0.,0.00147027
 ,-0.00046387,0.,-0.00026912,-0.00029234,0.,-0.00013647,-0.00008214,0.,
 0.00005597,0.00022355,0.,0.00000986,0.00000342,0.,-0.00090289,0.001893
 38,0.,-0.00002065,-0.00001998,0.,-0.00001237,-0.00005870,0.,-0.0000093
 2,-0.00001590,0.,-0.00000311,0.00000130,0.,0.00000120,-0.00000303,0.,-
 0.00001701,0.00001856,0.,0.00000247,-0.00000194,0.,0.00000384,0.000002
 75,0.,0.00000604,0.00000456,0.,-0.00027426,0.00015415,0.,0.00022452,0.
 00091942,0.,-0.14815931,0.25417615,0.,0.,-0.00001644,0.,0.,0.00023270,
 0.,0.,-0.00096419,0.,0.,-0.00022671,0.,0.,-0.00251423,0.,0.,-0.0000459
 6,0.,0.,0.00012983,0.,0.,-0.00002868,0.,0.,0.00002329,0.,0.,-0.0000508
 2,0.,0.,-0.00000039,0.,0.,0.00002017,0.,0.,-0.00024537,0.,0.,0.0000725
 3,0.,0.,-0.00012212,0.,0.,0.00012731,0.,0.,0.00001745,0.,0.,0.00001100
 ,0.,0.,-0.00004570,0.,0.,0.00002023,0.,0.,-0.00000858,0.,0.,-0.0000129
 0,0.,0.,0.00165821,0.,0.,0.00815891,0.,0.,0.00295845,0.,0.,-0.03470801
 ,0.,0.,-0.00124019,0.,0.,0.00684120,0.,0.,0.00014473,0.,0.,0.00002848,
 0.,0.,0.00011781,0.,0.,-0.00102888,0.,0.,-0.00000847,0.,0.,0.00209193,
 0.,0.,-0.00005750,0.,0.,-0.00011427,0.,0.,0.00000086,0.,0.,0.00000247,
 0.,0.,0.00000477,0.,0.,0.00004447,0.,0.,-0.00000687,0.,0.,0.00000472,0
 .,0.,0.00000143,0.,0.,0.00003822,0.,0.,-0.00418194,0.,0.,0.02272608,-0
 .00000394,-0.00000990,0.,-0.00004220,-0.00003454,0.,0.00000633,0.00000
 433,0.,-0.00000209,0.00001776,0.,0.00004163,-0.00001194,0.,0.00129661,
 0.00184410,0.,0.00012100,-0.00050119,0.,-0.00007716,-0.00009004,0.,-0.
 00007833,0.00004080,0.,-0.00001767,0.00009504,0.,0.00013144,-0.0000813
 8,0.,0.00010205,0.00002745,0.,-0.00035132,0.00167694,0.,-0.00037404,-0
 .00032589,0.,-0.00005759,0.00016686,0.,0.00002677,0.00001082,0.,0.0000
 0617,-0.00000589,0.,0.00000421,0.00001986,0.,-0.00001043,-0.00000652,0
 .,-0.00000280,0.00000466,0.,-0.00000329,-0.00000114,0.,-0.00000124,0.0
 0000599,0.,-0.00000322,0.00014758,0.,0.00049490,-0.00015741,0.,0.00004
 994,-0.00011882,0.,-0.00006264,-0.00008594,0.,-0.00043585,-0.00259024,
 0.,-0.00008884,-0.00073119,0.,-0.00439816,-0.00314374,0.,-0.01514051,0
 .02515756,0.,-0.17065305,0.13798679,0.,0.01107171,-0.01099012,0.,0.000
 00109,-0.00000268,0.,-0.00001062,0.00001608,0.,-0.00000141,0.00000370,
 0.,-0.00013996,-0.00134479,0.,-0.00000002,-0.00001081,0.,-0.00000406,-
 0.00000565,0.,-0.00001018,-0.00004512,0.,0.00000219,0.00000072,0.,-0.0
 0000240,0.00000134,0.,-0.00000243,-0.00000015,0.,0.00000021,-0.0000019
 5,0.,-0.00001470,0.00000861,0.,0.00003478,-0.00005037,0.,0.00000392,0.
 00001561,0.,0.17768673,0.00000854,0.00000043,0.,0.00000331,-0.00000475
 ,0.,0.00003253,0.00001943,0.,0.00000774,-0.00000598,0.,-0.00003186,-0.
 00003890,0.,-0.00142149,0.00122711,0.,0.00035065,0.00012808,0.,0.00000
 378,0.00005677,0.,0.00007545,-0.00000810,0.,-0.00001100,-0.00008886,0.
 ,-0.00003822,-0.00001661,0.,-0.00003742,0.00022170,0.,-0.00035578,0.00
 013872,0.,-0.00005572,-0.00001725,0.,-0.00002430,0.00000284,0.,0.00000
 656,0.00001295,0.,-0.00000114,0.00000922,0.,-0.00001217,0.00000087,0.,
 0.00000656,0.00000507,0.,0.00000449,-0.00000120,0.,0.00000608,-0.00000
 071,0.,-0.00000009,-0.00000916,0.,0.00006689,0.00013463,0.,0.00135355,
 -0.00047589,0.,-0.00021451,-0.00046086,0.,-0.00010316,-0.00000608,0.,-
 0.00401961,-0.00324884,0.,-0.00035182,-0.00000873,0.,-0.00155927,0.000
 20921,0.,-0.00504243,0.00607714,0.,0.13690296,-0.22741922,0.,0.0215369
 9,-0.01877189,0.,-0.00000099,0.00000223,0.,-0.00000890,0.00000203,0.,0
 .00000535,-0.00000273,0.,0.00031703,-0.00001084,0.,0.00000459,0.000001
 04,0.,0.00000928,0.00000668,0.,-0.00001428,-0.00000119,0.,-0.00000340,
 0.00000009,0.,0.00000247,-0.00000221,0.,0.00000352,0.00000034,0.,-0.00
 000023,0.00000294,0.,-0.00006156,-0.00000659,0.,0.00009464,-0.00011863
 ,0.,0.00001371,-0.00001483,0.,-0.14712093,0.24169676,0.,0.,-0.00000801
 ,0.,0.,0.00001124,0.,0.,-0.00000469,0.,0.,-0.00000754,0.,0.,0.00003916
 ,0.,0.,-0.00167930,0.,0.,-0.00020933,0.,0.,0.00001463,0.,0.,-0.0000127
 2,0.,0.,0.00006653,0.,0.,0.00001890,0.,0.,-0.00005728,0.,0.,0.00020210
 ,0.,0.,0.00002306,0.,0.,-0.00001991,0.,0.,0.00000825,0.,0.,0.00000326,
 0.,0.,-0.00000344,0.,0.,-0.00000104,0.,0.,-0.00000132,0.,0.,-0.0000006
 4,0.,0.,-0.00000142,0.,0.,-0.00075372,0.,0.,0.00000117,0.,0.,-0.000861
 41,0.,0.,0.00012919,0.,0.,0.01080554,0.,0.,-0.00069286,0.,0.,0.0032418
 6,0.,0.,0.00270557,0.,0.,-0.03724661,0.,0.,0.00469229,0.,0.,0.00000265
 ,0.,0.,0.00000495,0.,0.,0.00000118,0.,0.,0.00026607,0.,0.,-0.00000103,
 0.,0.,-0.00000285,0.,0.,0.00000633,0.,0.,0.00000091,0.,0.,0.00000112,0
 .,0.,0.00000070,0.,0.,0.00000111,0.,0.,0.00026565,0.,0.,-0.00002035,0.
 ,0.,0.00011273,0.,0.,0.02509890,-0.00001503,-0.00001107,0.,-0.00000716
 ,-0.00000595,0.,-0.00010879,-0.00007843,0.,-0.00001554,0.00005807,0.,-
 0.00000315,0.00033840,0.,-0.00051950,0.00014235,0.,0.00001152,-0.00021
 969,0.,0.00002125,-0.00000853,0.,-0.00001801,-0.00005344,0.,-0.0000489
 0,0.00003620,0.,0.00000402,-0.00000336,0.,0.00000883,0.00004377,0.,-0.
 00004550,-0.00001573,0.,0.00004212,-0.00005902,0.,0.00000209,0.0000117
 0,0.,-0.00001170,0.00001073,0.,0.00000540,-0.00001545,0.,0.00002018,-0
 .00000192,0.,-0.00001236,-0.00000488,0.,-0.00000348,0.00000368,0.,-0.0
 0000639,-0.00000235,0.,-0.00000286,0.00001089,0.,-0.00078231,-0.000911
 87,0.,0.00106322,-0.00174795,0.,-0.00001966,0.00036155,0.,0.00027763,0
 .00012139,0.,-0.01590475,-0.00605919,0.,-0.00023679,0.00346717,0.,0.00
 047779,0.00031148,0.,0.00162735,-0.00155368,0.,-0.00694322,0.00067409,
 0.,-0.33100019,-0.04814175,0.,-0.00000451,-0.00000292,0.,0.00001328,0.
 00000641,0.,-0.00001547,0.00000151,0.,0.00001527,-0.00003183,0.,-0.000
 00606,-0.00000088,0.,-0.00000796,-0.00000427,0.,0.00000647,-0.00000720
 ,0.,0.00000524,-0.00000140,0.,-0.00000328,0.00000260,0.,-0.00000426,-0
 .00000067,0.,-0.00000047,-0.00000364,0.,0.00043459,0.00097446,0.,-0.00
 002492,0.00004649,0.,0.00004378,0.00004597,0.,0.00090845,-0.00032633,0
 .,0.35078372,0.00000150,0.00000906,0.,0.00000200,0.00000986,0.,0.00012
 716,0.00005258,0.,-0.00000167,-0.00003140,0.,0.00004667,-0.00036657,0.
 ,-0.00129253,0.00059545,0.,-0.00015370,-0.00048347,0.,-0.00000463,-0.0
 0006082,0.,-0.00008138,-0.00002676,0.,-0.00009997,0.00011466,0.,0.0000
 8580,0.00003468,0.,0.00000507,-0.00013895,0.,0.00014227,0.00022822,0.,
 -0.00003969,-0.00000579,0.,-0.00001271,0.00003533,0.,-0.00000364,-0.00
 002920,0.,0.00000569,0.00000027,0.,-0.00001316,0.00000540,0.,0.0000026
 2,-0.00000589,0.,-0.00000754,0.00000385,0.,0.00000189,0.00000489,0.,0.
 00000126,0.00000442,0.,0.00112259,0.00063954,0.,0.00158397,0.00152185,
 0.,-0.00032281,0.00004057,0.,0.00005600,0.00007385,0.,0.02403838,0.006
 95255,0.,0.00197538,-0.00413592,0.,-0.00015111,-0.00061198,0.,-0.00024
 265,-0.00539451,0.,-0.03182108,-0.00073344,0.,-0.04704119,-0.06714126,
 0.,0.00000594,-0.00000003,0.,-0.00000658,0.00000388,0.,0.00001166,0.00
 000195,0.,0.00004173,-0.00004320,0.,-0.00000501,-0.00000300,0.,-0.0000
 2061,-0.00000685,0.,0.00001019,-0.00000087,0.,0.,0.00000231,0.,-0.0000
 0085,0.00000086,0.,-0.00000178,0.00000015,0.,0.00000151,-0.00000066,0.
 ,-0.00070298,-0.00058320,0.,-0.00000662,-0.00000103,0.,-0.00005563,-0.
 00003073,0.,0.00021572,0.00078375,0.,0.05260451,0.06871562,0.,0.,0.000
 00311,0.,0.,0.00000185,0.,0.,-0.00002122,0.,0.,-0.00000245,0.,0.,-0.00
 004093,0.,0.,0.00004039,0.,0.,-0.00111268,0.,0.,-0.00003452,0.,0.,0.00
 011980,0.,0.,-0.00005095,0.,0.,0.00008921,0.,0.,0.00013303,0.,0.,-0.00
 062952,0.,0.,0.00007662,0.,0.,0.00000203,0.,0.,-0.00000919,0.,0.,0.000
 00179,0.,0.,-0.00000238,0.,0.,-0.00000173,0.,0.,-0.00000070,0.,0.,-0.0
 0000117,0.,0.,-0.00000097,0.,0.,0.00008942,0.,0.,-0.00164156,0.,0.,-0.
 00018970,0.,0.,0.00002398,0.,0.,0.00270296,0.,0.,0.00324093,0.,0.,-0.0
 0060504,0.,0.,0.01093519,0.,0.,0.00468979,0.,0.,-0.03757723,0.,0.,-0.0
 0000097,0.,0.,0.00000366,0.,0.,0.00000447,0.,0.,0.00032848,0.,0.,-0.00
 001000,0.,0.,0.00000806,0.,0.,-0.00002237,0.,0.,0.00000128,0.,0.,0.000
 00083,0.,0.,0.00000078,0.,0.,0.00000088,0.,0.,0.00024444,0.,0.,0.00005
 699,0.,0.,0.00003828,0.,0.,-0.00613960,0.,0.,0.02525664\\0.00000373,-0
 .00000249,0.,0.00000191,-0.00000189,0.,0.00000023,-0.00000022,0.,-0.00
 000332,-0.00000152,0.,-0.00000163,0.00000065,0.,0.00000270,0.00000272,
 0.,0.00000016,0.00000091,0.,0.00000173,-0.00000021,0.,0.00000217,-0.00
 000036,0.,0.00000269,0.00000071,0.,0.00000199,-0.00000006,0.,0.0000007
 0,-0.00000134,0.,0.00000191,0.00000233,0.,-0.00000041,-0.00000022,0.,-
 0.00000039,0.00000189,0.,-0.00000115,-0.00000276,0.,-0.00000138,-0.000
 00070,0.,-0.00000320,-0.00000199,0.,0.00000122,-0.00000292,0.,-0.00000
 212,-0.00000406,0.,-0.00000082,-0.00000222,0.,0.00000149,-0.00000308,0
 .,-0.00000056,0.00000008,0.,-0.00000085,0.00000186,0.,-0.00000236,0.00
 000276,0.,-0.00000217,0.00000117,0.,-0.00000154,0.00000329,0.,-0.00000
 026,0.00000354,0.,-0.00000150,-0.00000024,0.,0.00000028,0.00000087,0.,
 0.00000208,0.00000371,0.,0.00000030,0.00000104,0.,0.00000062,-0.000001
 86,0.,-0.00000219,0.00000020,0.,-0.00000150,-0.00000110,0.,0.00000192,
 0.00000168,0.,0.00000188,-0.00000139,0.,0.00000297,-0.00000027,0.,0.00
 000305,0.00000102,0.,-0.00000219,-0.00000224,0.,-0.00000148,-0.0000035
 1,0.,-0.00000027,-0.00000402,0.,0.00000071,-0.00000319,0.,-0.00000132,
 0.00000325,0.,-0.00000240,0.00000234,0.,-0.00000209,0.00000137,0.,0.00
 000080,0.00000265,0.,-0.00000013,0.00000384,0.\\\@


 I do not feel obliged to believe that the same God who
 has endowed us with sense, reason, and intellect has
 intended us to forgo their use.
                   --Galileo Galilei
 Job cpu time:       4 days 20 hours 32 minutes 55.0 seconds.
 File lengths (MBytes):  RWF=   4428 Int=      0 D2E=      0 Chk=     85 Scr=      1
 Normal termination of Gaussian 09 at Sun Jul 28 02:40:18 2019.
