 Entering Gaussian System, Link 0=g09
 Initial command:
 /home/minenky/programs//g09/l1.exe "/local/scratch/minenky/m1_00_2717-39-7-C14H16_wB97XD/Gau-212029.inp" -scrdir="/local/scratch/minenky/m1_00_2717-39-7-C14H16_wB97XD/"
 Entering Link 1 = /home/minenky/programs//g09/l1.exe PID=    212031.
  
 Copyright (c) 1988,1990,1992,1993,1995,1998,2003,2009,2013,
            Gaussian, Inc.  All Rights Reserved.
  
 This is part of the Gaussian(R) 09 program.  It is based on
 the Gaussian(R) 03 system (copyright 2003, Gaussian, Inc.),
 the Gaussian(R) 98 system (copyright 1998, Gaussian, Inc.),
 the Gaussian(R) 94 system (copyright 1995, Gaussian, Inc.),
 the Gaussian 92(TM) system (copyright 1992, Gaussian, Inc.),
 the Gaussian 90(TM) system (copyright 1990, Gaussian, Inc.),
 the Gaussian 88(TM) system (copyright 1988, Gaussian, Inc.),
 the Gaussian 86(TM) system (copyright 1986, Carnegie Mellon
 University), and the Gaussian 82(TM) system (copyright 1983,
 Carnegie Mellon University). Gaussian is a federally registered
 trademark of Gaussian, Inc.
  
 This software contains proprietary and confidential information,
 including trade secrets, belonging to Gaussian, Inc.
  
 This software is provided under written license and may be
 used, copied, transmitted, or stored only in accord with that
 written license.
  
 The following legend is applicable only to US Government
 contracts under FAR:
  
                    RESTRICTED RIGHTS LEGEND
  
 Use, reproduction and disclosure by the US Government is
 subject to restrictions as set forth in subparagraphs (a)
 and (c) of the Commercial Computer Software - Restricted
 Rights clause in FAR 52.227-19.
  
 Gaussian, Inc.
 340 Quinnipiac St., Bldg. 40, Wallingford CT 06492
  
  
 ---------------------------------------------------------------
 Warning -- This program may not be used in any manner that
 competes with the business of Gaussian, Inc. or will provide
 assistance to any competitor of Gaussian, Inc.  The licensee
 of this program is prohibited from giving any competitor of
 Gaussian, Inc. access to this program.  By using this program,
 the user acknowledges that Gaussian, Inc. is engaged in the
 business of creating and licensing software in the field of
 computational chemistry and represents and warrants to the
 licensee that it is not a competitor of Gaussian, Inc. and that
 it will not use this program in any manner prohibited above.
 ---------------------------------------------------------------
  

 Cite this work as:
 Gaussian 09, Revision D.01,
 M. J. Frisch, G. W. Trucks, H. B. Schlegel, G. E. Scuseria, 
 M. A. Robb, J. R. Cheeseman, G. Scalmani, V. Barone, B. Mennucci, 
 G. A. Petersson, H. Nakatsuji, M. Caricato, X. Li, H. P. Hratchian, 
 A. F. Izmaylov, J. Bloino, G. Zheng, J. L. Sonnenberg, M. Hada, 
 M. Ehara, K. Toyota, R. Fukuda, J. Hasegawa, M. Ishida, T. Nakajima, 
 Y. Honda, O. Kitao, H. Nakai, T. Vreven, J. A. Montgomery, Jr., 
 J. E. Peralta, F. Ogliaro, M. Bearpark, J. J. Heyd, E. Brothers, 
 K. N. Kudin, V. N. Staroverov, T. Keith, R. Kobayashi, J. Normand, 
 K. Raghavachari, A. Rendell, J. C. Burant, S. S. Iyengar, J. Tomasi, 
 M. Cossi, N. Rega, J. M. Millam, M. Klene, J. E. Knox, J. B. Cross, 
 V. Bakken, C. Adamo, J. Jaramillo, R. Gomperts, R. E. Stratmann, 
 O. Yazyev, A. J. Austin, R. Cammi, C. Pomelli, J. W. Ochterski, 
 R. L. Martin, K. Morokuma, V. G. Zakrzewski, G. A. Voth, 
 P. Salvador, J. J. Dannenberg, S. Dapprich, A. D. Daniels, 
 O. Farkas, J. B. Foresman, J. V. Ortiz, J. Cioslowski, 
 and D. J. Fox, Gaussian, Inc., Wallingford CT, 2013.
 
 ******************************************
 Gaussian 09:  AM64L-G09RevD.01 24-Apr-2013
                 9-Jul-2021 
 ******************************************
 %Mem=32000MB
 %NProcShared=16
 Will use up to   16 processors via shared memory.
 %Chk=m1_00_2717-39-7-C14H16_wB97XD
 ----------------------------------------------------------------------
 #P wB97XD/def2tzvp opt=(tight) freq integral(Grid=ultrafine) # SCF(Max
 Cycle=380) 5d 7f GFPrint
 ----------------------------------------------------------------------
 1/7=10,14=-1,18=20,19=15,26=4,38=1/1,3;
 2/9=110,12=2,17=6,18=5,40=1/2;
 3/5=44,7=101,8=11,11=2,16=1,24=100,25=1,30=1,71=1,74=-58,75=-5/1,2,3;
 4//1;
 5/5=2,7=380,38=5/2;
 6/7=2,8=2,9=2,10=2,28=1/1;
 7//1,2,3,16;
 1/7=10,14=-1,18=20,19=15,26=4/3(2);
 2/9=110/2;
 99//99;
 2/9=110/2;
 3/5=44,7=101,8=11,11=2,16=1,25=1,30=1,71=1,74=-58,75=-5/1,2,3;
 4/5=5,16=3,69=1/1;
 5/5=2,7=380,38=5/2;
 7//1,2,3,16;
 1/7=10,14=-1,18=20,19=15,26=4/3(-5);
 2/9=110/2;
 6/7=2,8=2,9=2,10=2,19=2,28=1/1;
 99/9=1/99;
 Leave Link    1 at Fri Jul  9 19:19:35 2021, MaxMem=  4194304000 cpu:         2.4
 (Enter /home/minenky/programs//g09/l101.exe)
 ---------------------------------------
 The PBEPBE optimization and frequencies
 ---------------------------------------
 Symbolic Z-matrix:
 Charge =  0 Multiplicity = 1
 C                    -1.41815   1.25409   0.12585 
 C                    -0.69225   2.41743   0.08861 
 C                    -0.72673   0.        0. 
 C                    -2.89867   1.40412   0.38743 
 C                     0.69226   2.41743  -0.08857 
 C                     1.41816   1.25409  -0.12584 
 C                     0.72673   0.       0. 
 C                     2.89866   1.40411  -0.38748 
 C                     1.41816  -1.25409   0.12584 
 C                    -1.41815  -1.25409  -0.12585 
 C                    -0.69225  -2.41743  -0.08861 
 C                    -2.89867  -1.40412  -0.38743 
 C                     0.69226  -2.41743   0.08858 
 C                     2.89866  -1.40411   0.38748 
 H                    -1.20792   3.36432   0.19074 
 H                    -3.22424   0.80263   1.23578 
 H                    -3.52089   1.13533  -0.46464 
 H                    -3.11006   2.44549   0.62727 
 H                     1.20793   3.36432  -0.1907 
 H                     3.2242    0.80257  -1.23582 
 H                     3.52092   1.13537   0.46458 
 H                     3.11005   2.44547  -0.62739 
 H                    -1.20792  -3.36432  -0.19074 
 H                    -3.52089  -1.13535   0.46464 
 H                    -3.11006  -2.44549  -0.62728 
 H                    -3.22423  -0.80262  -1.23578 
 H                     1.20793  -3.36432   0.1907 
 H                     3.52091  -1.13537  -0.46459 
 H                     3.11005  -2.44546   0.62739 
 H                     3.2242   -0.80257   1.23581 
 
 NAtoms=     30 NQM=       30 NQMF=       0 NMMI=      0 NMMIF=      0
                NMic=       0 NMicF=      0.
                    Isotopes and Nuclear Properties:
 (Nuclear quadrupole moments (NQMom) in fm**2, nuclear magnetic moments (NMagM)
  in nuclear magnetons)

  Atom         1           2           3           4           5           6           7           8           9          10
 IAtWgt=          12          12          12          12          12          12          12          12          12          12
 AtmWgt=  12.0000000  12.0000000  12.0000000  12.0000000  12.0000000  12.0000000  12.0000000  12.0000000  12.0000000  12.0000000
 NucSpn=           0           0           0           0           0           0           0           0           0           0
 AtZEff=   0.0000000   0.0000000   0.0000000   0.0000000   0.0000000   0.0000000   0.0000000   0.0000000   0.0000000   0.0000000
 NQMom=    0.0000000   0.0000000   0.0000000   0.0000000   0.0000000   0.0000000   0.0000000   0.0000000   0.0000000   0.0000000
 NMagM=    0.0000000   0.0000000   0.0000000   0.0000000   0.0000000   0.0000000   0.0000000   0.0000000   0.0000000   0.0000000
 AtZNuc=   6.0000000   6.0000000   6.0000000   6.0000000   6.0000000   6.0000000   6.0000000   6.0000000   6.0000000   6.0000000

  Atom        11          12          13          14          15          16          17          18          19          20
 IAtWgt=          12          12          12          12           1           1           1           1           1           1
 AtmWgt=  12.0000000  12.0000000  12.0000000  12.0000000   1.0078250   1.0078250   1.0078250   1.0078250   1.0078250   1.0078250
 NucSpn=           0           0           0           0           1           1           1           1           1           1
 AtZEff=   0.0000000   0.0000000   0.0000000   0.0000000   0.0000000   0.0000000   0.0000000   0.0000000   0.0000000   0.0000000
 NQMom=    0.0000000   0.0000000   0.0000000   0.0000000   0.0000000   0.0000000   0.0000000   0.0000000   0.0000000   0.0000000
 NMagM=    0.0000000   0.0000000   0.0000000   0.0000000   2.7928460   2.7928460   2.7928460   2.7928460   2.7928460   2.7928460
 AtZNuc=   6.0000000   6.0000000   6.0000000   6.0000000   1.0000000   1.0000000   1.0000000   1.0000000   1.0000000   1.0000000

  Atom        21          22          23          24          25          26          27          28          29          30
 IAtWgt=           1           1           1           1           1           1           1           1           1           1
 AtmWgt=   1.0078250   1.0078250   1.0078250   1.0078250   1.0078250   1.0078250   1.0078250   1.0078250   1.0078250   1.0078250
 NucSpn=           1           1           1           1           1           1           1           1           1           1
 AtZEff=   0.0000000   0.0000000   0.0000000   0.0000000   0.0000000   0.0000000   0.0000000   0.0000000   0.0000000   0.0000000
 NQMom=    0.0000000   0.0000000   0.0000000   0.0000000   0.0000000   0.0000000   0.0000000   0.0000000   0.0000000   0.0000000
 NMagM=    2.7928460   2.7928460   2.7928460   2.7928460   2.7928460   2.7928460   2.7928460   2.7928460   2.7928460   2.7928460
 AtZNuc=   1.0000000   1.0000000   1.0000000   1.0000000   1.0000000   1.0000000   1.0000000   1.0000000   1.0000000   1.0000000
 Leave Link  101 at Fri Jul  9 19:19:35 2021, MaxMem=  4194304000 cpu:         1.7
 (Enter /home/minenky/programs//g09/l103.exe)

 GradGradGradGradGradGradGradGradGradGradGradGradGradGradGradGradGradGrad
 Berny optimization.
 Initialization pass.
                           ----------------------------
                           !    Initial Parameters    !
                           ! (Angstroms and Degrees)  !
 --------------------------                            --------------------------
 ! Name  Definition              Value          Derivative Info.                !
 --------------------------------------------------------------------------------
 ! R1    R(1,2)                  1.3717         estimate D2E/DX2                !
 ! R2    R(1,3)                  1.4376         estimate D2E/DX2                !
 ! R3    R(1,4)                  1.5109         estimate D2E/DX2                !
 ! R4    R(2,5)                  1.3958         estimate D2E/DX2                !
 ! R5    R(2,15)                 1.083          estimate D2E/DX2                !
 ! R6    R(3,7)                  1.4535         estimate D2E/DX2                !
 ! R7    R(3,10)                 1.4376         estimate D2E/DX2                !
 ! R8    R(4,16)                 1.0897         estimate D2E/DX2                !
 ! R9    R(4,17)                 1.0888         estimate D2E/DX2                !
 ! R10   R(4,18)                 1.0893         estimate D2E/DX2                !
 ! R11   R(5,6)                  1.3717         estimate D2E/DX2                !
 ! R12   R(5,19)                 1.083          estimate D2E/DX2                !
 ! R13   R(6,7)                  1.4376         estimate D2E/DX2                !
 ! R14   R(6,8)                  1.5109         estimate D2E/DX2                !
 ! R15   R(7,9)                  1.4376         estimate D2E/DX2                !
 ! R16   R(8,20)                 1.0897         estimate D2E/DX2                !
 ! R17   R(8,21)                 1.0888         estimate D2E/DX2                !
 ! R18   R(8,22)                 1.0893         estimate D2E/DX2                !
 ! R19   R(9,13)                 1.3717         estimate D2E/DX2                !
 ! R20   R(9,14)                 1.5109         estimate D2E/DX2                !
 ! R21   R(10,11)                1.3717         estimate D2E/DX2                !
 ! R22   R(10,12)                1.5109         estimate D2E/DX2                !
 ! R23   R(11,13)                1.3958         estimate D2E/DX2                !
 ! R24   R(11,23)                1.083          estimate D2E/DX2                !
 ! R25   R(12,24)                1.0888         estimate D2E/DX2                !
 ! R26   R(12,25)                1.0893         estimate D2E/DX2                !
 ! R27   R(12,26)                1.0897         estimate D2E/DX2                !
 ! R28   R(13,27)                1.083          estimate D2E/DX2                !
 ! R29   R(14,28)                1.0888         estimate D2E/DX2                !
 ! R30   R(14,29)                1.0893         estimate D2E/DX2                !
 ! R31   R(14,30)                1.0897         estimate D2E/DX2                !
 ! A1    A(2,1,3)              118.8773         estimate D2E/DX2                !
 ! A2    A(2,1,4)              116.0415         estimate D2E/DX2                !
 ! A3    A(3,1,4)              124.9642         estimate D2E/DX2                !
 ! A4    A(1,2,5)              121.8937         estimate D2E/DX2                !
 ! A5    A(1,2,15)             119.1402         estimate D2E/DX2                !
 ! A6    A(5,2,15)             118.9638         estimate D2E/DX2                !
 ! A7    A(1,3,7)              118.7482         estimate D2E/DX2                !
 ! A8    A(1,3,10)             122.5036         estimate D2E/DX2                !
 ! A9    A(7,3,10)             118.7482         estimate D2E/DX2                !
 ! A10   A(1,4,16)             111.8837         estimate D2E/DX2                !
 ! A11   A(1,4,17)             113.5774         estimate D2E/DX2                !
 ! A12   A(1,4,18)             108.8564         estimate D2E/DX2                !
 ! A13   A(16,4,17)            107.5928         estimate D2E/DX2                !
 ! A14   A(16,4,18)            107.3543         estimate D2E/DX2                !
 ! A15   A(17,4,18)            107.3016         estimate D2E/DX2                !
 ! A16   A(2,5,6)              121.8936         estimate D2E/DX2                !
 ! A17   A(2,5,19)             118.9638         estimate D2E/DX2                !
 ! A18   A(6,5,19)             119.1403         estimate D2E/DX2                !
 ! A19   A(5,6,7)              118.8772         estimate D2E/DX2                !
 ! A20   A(5,6,8)              116.0417         estimate D2E/DX2                !
 ! A21   A(7,6,8)              124.9639         estimate D2E/DX2                !
 ! A22   A(3,7,6)              118.7484         estimate D2E/DX2                !
 ! A23   A(3,7,9)              118.7484         estimate D2E/DX2                !
 ! A24   A(6,7,9)              122.5032         estimate D2E/DX2                !
 ! A25   A(6,8,20)             111.8836         estimate D2E/DX2                !
 ! A26   A(6,8,21)             113.5775         estimate D2E/DX2                !
 ! A27   A(6,8,22)             108.8565         estimate D2E/DX2                !
 ! A28   A(20,8,21)            107.5928         estimate D2E/DX2                !
 ! A29   A(20,8,22)            107.3544         estimate D2E/DX2                !
 ! A30   A(21,8,22)            107.3015         estimate D2E/DX2                !
 ! A31   A(7,9,13)             118.8773         estimate D2E/DX2                !
 ! A32   A(7,9,14)             124.9639         estimate D2E/DX2                !
 ! A33   A(13,9,14)            116.0417         estimate D2E/DX2                !
 ! A34   A(3,10,11)            118.8773         estimate D2E/DX2                !
 ! A35   A(3,10,12)            124.9642         estimate D2E/DX2                !
 ! A36   A(11,10,12)           116.0414         estimate D2E/DX2                !
 ! A37   A(10,11,13)           121.8937         estimate D2E/DX2                !
 ! A38   A(10,11,23)           119.1403         estimate D2E/DX2                !
 ! A39   A(13,11,23)           118.9637         estimate D2E/DX2                !
 ! A40   A(10,12,24)           113.5774         estimate D2E/DX2                !
 ! A41   A(10,12,25)           108.8565         estimate D2E/DX2                !
 ! A42   A(10,12,26)           111.8837         estimate D2E/DX2                !
 ! A43   A(24,12,25)           107.3015         estimate D2E/DX2                !
 ! A44   A(24,12,26)           107.5928         estimate D2E/DX2                !
 ! A45   A(25,12,26)           107.3544         estimate D2E/DX2                !
 ! A46   A(9,13,11)            121.8936         estimate D2E/DX2                !
 ! A47   A(9,13,27)            119.1404         estimate D2E/DX2                !
 ! A48   A(11,13,27)           118.9638         estimate D2E/DX2                !
 ! A49   A(9,14,28)            113.5775         estimate D2E/DX2                !
 ! A50   A(9,14,29)            108.8565         estimate D2E/DX2                !
 ! A51   A(9,14,30)            111.8836         estimate D2E/DX2                !
 ! A52   A(28,14,29)           107.3015         estimate D2E/DX2                !
 ! A53   A(28,14,30)           107.5927         estimate D2E/DX2                !
 ! A54   A(29,14,30)           107.3544         estimate D2E/DX2                !
 ! D1    D(3,1,2,5)              1.0208         estimate D2E/DX2                !
 ! D2    D(3,1,2,15)          -179.5288         estimate D2E/DX2                !
 ! D3    D(4,1,2,5)            177.2833         estimate D2E/DX2                !
 ! D4    D(4,1,2,15)            -3.2663         estimate D2E/DX2                !
 ! D5    D(2,1,3,7)              7.3278         estimate D2E/DX2                !
 ! D6    D(2,1,3,10)          -172.672          estimate D2E/DX2                !
 ! D7    D(4,1,3,7)           -168.574          estimate D2E/DX2                !
 ! D8    D(4,1,3,10)            11.4262         estimate D2E/DX2                !
 ! D9    D(2,1,4,16)          -125.4627         estimate D2E/DX2                !
 ! D10   D(2,1,4,17)           112.4856         estimate D2E/DX2                !
 ! D11   D(2,1,4,18)            -6.9826         estimate D2E/DX2                !
 ! D12   D(3,1,4,16)            50.5434         estimate D2E/DX2                !
 ! D13   D(3,1,4,17)           -71.5084         estimate D2E/DX2                !
 ! D14   D(3,1,4,18)           169.0234         estimate D2E/DX2                !
 ! D15   D(1,2,5,6)             -5.4321         estimate D2E/DX2                !
 ! D16   D(1,2,5,19)           175.1153         estimate D2E/DX2                !
 ! D17   D(15,2,5,6)           175.1166         estimate D2E/DX2                !
 ! D18   D(15,2,5,19)           -4.336          estimate D2E/DX2                !
 ! D19   D(1,3,7,6)            -11.4604         estimate D2E/DX2                !
 ! D20   D(1,3,7,9)            168.5394         estimate D2E/DX2                !
 ! D21   D(10,3,7,6)           168.5394         estimate D2E/DX2                !
 ! D22   D(10,3,7,9)           -11.4608         estimate D2E/DX2                !
 ! D23   D(1,3,10,11)         -172.6721         estimate D2E/DX2                !
 ! D24   D(1,3,10,12)           11.4263         estimate D2E/DX2                !
 ! D25   D(7,3,10,11)            7.3282         estimate D2E/DX2                !
 ! D26   D(7,3,10,12)         -168.5735         estimate D2E/DX2                !
 ! D27   D(2,5,6,7)              1.0192         estimate D2E/DX2                !
 ! D28   D(2,5,6,8)            177.2807         estimate D2E/DX2                !
 ! D29   D(19,5,6,7)          -179.5291         estimate D2E/DX2                !
 ! D30   D(19,5,6,8)            -3.2677         estimate D2E/DX2                !
 ! D31   D(5,6,7,3)              7.3294         estimate D2E/DX2                !
 ! D32   D(5,6,7,9)           -172.6704         estimate D2E/DX2                !
 ! D33   D(8,6,7,3)           -168.5713         estimate D2E/DX2                !
 ! D34   D(8,6,7,9)             11.4289         estimate D2E/DX2                !
 ! D35   D(5,6,8,20)          -125.466          estimate D2E/DX2                !
 ! D36   D(5,6,8,21)           112.4823         estimate D2E/DX2                !
 ! D37   D(5,6,8,22)            -6.986          estimate D2E/DX2                !
 ! D38   D(7,6,8,20)            50.5389         estimate D2E/DX2                !
 ! D39   D(7,6,8,21)           -71.5128         estimate D2E/DX2                !
 ! D40   D(7,6,8,22)           169.019          estimate D2E/DX2                !
 ! D41   D(3,7,9,13)             7.3295         estimate D2E/DX2                !
 ! D42   D(3,7,9,14)          -168.5711         estimate D2E/DX2                !
 ! D43   D(6,7,9,13)          -172.6707         estimate D2E/DX2                !
 ! D44   D(6,7,9,14)            11.4287         estimate D2E/DX2                !
 ! D45   D(7,9,13,11)            1.0195         estimate D2E/DX2                !
 ! D46   D(7,9,13,27)         -179.5291         estimate D2E/DX2                !
 ! D47   D(14,9,13,11)         177.2809         estimate D2E/DX2                !
 ! D48   D(14,9,13,27)          -3.2678         estimate D2E/DX2                !
 ! D49   D(7,9,14,28)          -71.513          estimate D2E/DX2                !
 ! D50   D(7,9,14,29)          169.0187         estimate D2E/DX2                !
 ! D51   D(7,9,14,30)           50.5386         estimate D2E/DX2                !
 ! D52   D(13,9,14,28)         112.4821         estimate D2E/DX2                !
 ! D53   D(13,9,14,29)          -6.9861         estimate D2E/DX2                !
 ! D54   D(13,9,14,30)        -125.4662         estimate D2E/DX2                !
 ! D55   D(3,10,11,13)           1.0208         estimate D2E/DX2                !
 ! D56   D(3,10,11,23)        -179.529          estimate D2E/DX2                !
 ! D57   D(12,10,11,13)        177.2832         estimate D2E/DX2                !
 ! D58   D(12,10,11,23)         -3.2666         estimate D2E/DX2                !
 ! D59   D(3,10,12,24)         -71.509          estimate D2E/DX2                !
 ! D60   D(3,10,12,25)         169.0228         estimate D2E/DX2                !
 ! D61   D(3,10,12,26)          50.5427         estimate D2E/DX2                !
 ! D62   D(11,10,12,24)        112.4851         estimate D2E/DX2                !
 ! D63   D(11,10,12,25)         -6.9831         estimate D2E/DX2                !
 ! D64   D(11,10,12,26)       -125.4632         estimate D2E/DX2                !
 ! D65   D(10,11,13,9)          -5.4324         estimate D2E/DX2                !
 ! D66   D(10,11,13,27)        175.1153         estimate D2E/DX2                !
 ! D67   D(23,11,13,9)         175.1164         estimate D2E/DX2                !
 ! D68   D(23,11,13,27)         -4.3359         estimate D2E/DX2                !
 --------------------------------------------------------------------------------
 Trust Radius=3.00D-01 FncErr=1.00D-07 GrdErr=1.00D-06
 Number of steps in this run=    163 maximum allowed number of steps=    180.
 GradGradGradGradGradGradGradGradGradGradGradGradGradGradGradGradGradGrad

 Leave Link  103 at Fri Jul  9 19:19:36 2021, MaxMem=  4194304000 cpu:         0.0
 (Enter /home/minenky/programs//g09/l202.exe)
                          Input orientation:                          
 ---------------------------------------------------------------------
 Center     Atomic      Atomic             Coordinates (Angstroms)
 Number     Number       Type             X           Y           Z
 ---------------------------------------------------------------------
      1          6           0       -1.418153    1.254092    0.125847
      2          6           0       -0.692254    2.417433    0.088608
      3          6           0       -0.726730    0.000000    0.000002
      4          6           0       -2.898667    1.404122    0.387429
      5          6           0        0.692262    2.417433   -0.088571
      6          6           0        1.418155    1.254089   -0.125844
      7          6           0        0.726728    0.000000   -0.000001
      8          6           0        2.898659    1.404108   -0.387483
      9          6           0        1.418155   -1.254089    0.125843
     10          6           0       -1.418153   -1.254092   -0.125845
     11          6           0       -0.692254   -2.417433   -0.088606
     12          6           0       -2.898666   -1.404123   -0.387432
     13          6           0        0.692263   -2.417433    0.088575
     14          6           0        2.898660   -1.404107    0.387480
     15          1           0       -1.207924    3.364322    0.190741
     16          1           0       -3.224235    0.802631    1.235784
     17          1           0       -3.520891    1.135334   -0.464643
     18          1           0       -3.110064    2.445494    0.627269
     19          1           0        1.207933    3.364323   -0.190697
     20          1           0        3.224198    0.802572   -1.235817
     21          1           0        3.520915    1.135366    0.464582
     22          1           0        3.110047    2.445468   -0.627385
     23          1           0       -1.207923   -3.364323   -0.190738
     24          1           0       -3.520893   -1.135345    0.464641
     25          1           0       -3.110061   -2.445492   -0.627283
     26          1           0       -3.224233   -0.802622   -1.235782
     27          1           0        1.207934   -3.364323    0.190702
     28          1           0        3.520914   -1.135370   -0.464587
     29          1           0        3.110048   -2.445465    0.627388
     30          1           0        3.224201   -0.802565    1.235810
 ---------------------------------------------------------------------
                    Distance matrix (angstroms):
                    1          2          3          4          5
     1  C    0.000000
     2  C    1.371743   0.000000
     3  C    1.437585   2.419302   0.000000
     4  C    1.510912   2.446293   2.615142   0.000000
     5  C    2.419336   1.395807   2.804526   3.761402   0.000000
     6  C    2.847453   2.419336   2.487792   4.349817   1.371743
     7  C    2.487790   2.804522   1.453458   3.907064   2.419300
     8  C    4.349814   3.761402   3.907059   5.848887   2.446296
     9  C    3.786240   4.235007   2.487792   5.076363   3.748729
    10  C    2.520781   3.748735   1.437585   3.085689   4.235013
    11  C    3.748735   4.838113   2.419302   4.438372   5.029196
    12  C    3.085690   4.438373   2.615143   2.913185   5.252463
    13  C    4.235014   5.029196   2.804526   5.252464   4.838110
    14  C    5.076352   5.252443   3.907059   6.441673   4.438354
    15  H    2.121669   1.083026   3.403908   2.596090   2.141336
    16  H    2.167420   3.214736   2.899811   1.089721   4.438519
    17  H    2.187302   3.154529   3.051592   1.088777   4.419940
    18  H    2.129184   2.477246   3.471914   1.089343   3.869224
    19  H    3.383726   2.141337   3.885609   4.587023   1.083027
    20  H    4.858953   4.438522   4.216776   6.362882   3.214755
    21  H    4.952093   4.419937   4.421242   6.425668   3.154513
    22  H    4.742503   3.869228   4.592906   6.182143   2.477255
    23  H    4.634024   5.811424   3.403909   5.092245   6.086858
    24  H    3.200891   4.556844   3.051597   2.615725   5.538858
    25  H    4.137231   5.477803   3.471914   3.986710   6.196443
    26  H    3.057128   4.305076   2.899808   2.758718   5.198440
    27  H    5.313219   6.086858   3.885609   6.296105   5.811421
    28  H    5.518381   5.538882   4.421243   6.956003   4.556871
    29  H    5.868805   6.196415   4.592905   7.140137   5.477779
    30  H    5.197433   5.198373   4.216775   6.563439   4.305007
                    6          7          8          9         10
     6  C    0.000000
     7  C    1.437584   0.000000
     8  C    1.510911   2.615138   0.000000
     9  C    2.520774   1.437584   3.085678   0.000000
    10  C    3.786240   2.487790   5.076352   2.847453   0.000000
    11  C    4.235007   2.804522   5.252443   2.419335   1.371743
    12  C    5.076363   3.907064   6.441672   4.349817   1.510912
    13  C    3.748729   2.419301   4.438354   1.371742   2.419337
    14  C    3.085677   2.615138   2.913184   1.510912   4.349814
    15  H    3.383726   3.885605   4.587026   5.313212   4.634023
    16  H    4.858974   4.216810   6.362908   5.197485   3.057135
    17  H    4.952077   4.421215   6.425637   5.518350   3.200882
    18  H    4.742509   4.592916   6.182148   5.868825   4.137231
    19  H    2.121671   3.403908   2.596097   4.634018   5.313218
    20  H    2.167418   2.899779   1.089721   3.057084   5.197435
    21  H    2.187304   3.051618   1.088779   3.200912   5.518379
    22  H    2.129184   3.471906   1.089343   4.137218   5.868806
    23  H    5.313212   3.885605   6.296083   3.383725   2.121670
    24  H    5.518357   4.421220   6.955975   4.952078   2.187302
    25  H    5.868823   4.592915   7.140143   4.742508   2.129185
    26  H    5.197479   4.216806   6.563465   4.858972   2.167420
    27  H    4.634018   3.403909   5.092228   2.121671   3.383727
    28  H    3.200915   3.051619   2.615740   2.187304   4.952093
    29  H    4.137216   3.471906   3.986711   2.129184   4.742503
    30  H    3.057079   2.899778   2.758707   2.167418   4.858954
                   11         12         13         14         15
    11  C    0.000000
    12  C    2.446293   0.000000
    13  C    1.395808   3.761403   0.000000
    14  C    3.761403   5.848887   2.446295   0.000000
    15  H    5.811423   5.092245   6.086858   6.296082   0.000000
    16  H    4.305084   2.758730   5.198448   6.563471   3.423432
    17  H    4.556835   2.615715   5.538851   6.955969   3.278373
    18  H    5.477804   3.986710   6.196446   7.140146   2.157067
    19  H    6.086858   6.296105   5.811421   5.092227   2.445784
    20  H    5.198377   6.563438   4.305013   2.758714   5.314258
    21  H    5.538880   6.956001   4.556867   2.615735   5.234993
    22  H    6.196417   7.140137   5.477781   3.986711   4.489821
    23  H    1.083026   2.596090   2.141337   4.587026   6.739450
    24  H    3.154525   1.088778   4.419939   6.425640   5.066740
    25  H    2.477247   1.089342   3.869226   6.182148   6.167757
    26  H    3.214739   1.089722   4.438522   6.362907   4.843954
    27  H    2.141338   4.587024   1.083027   2.596098   7.149198
    28  H    4.419936   6.425666   3.154511   1.088778   6.560380
    29  H    3.869229   6.182143   2.477254   1.089343   7.251839
    30  H    4.438524   6.362884   3.214756   1.089722   6.172426
                   16         17         18         19         20
    16  H    0.000000
    17  H    1.757882   0.000000
    18  H    1.755655   1.754300   0.000000
    19  H    5.314248   5.234999   4.489812   0.000000
    20  H    6.905874   6.797181   6.803907   3.423473   0.000000
    21  H    6.797243   7.102851   6.761123   3.278342   1.757882
    22  H    6.803928   6.761085   6.345387   2.157088   1.755656
    23  H    4.843964   5.066731   6.167759   7.149198   6.172431
    24  H    2.106755   2.453478   3.607996   6.560356   7.221034
    25  H    3.746246   3.607984   5.049321   7.251871   7.144443
    26  H    2.947113   2.106736   3.746232   6.172498   6.645217
    27  H    6.172505   6.560349   7.251874   6.739447   4.843892
    28  H    7.221090   7.398859   7.614762   5.066768   2.106764
    29  H    7.144467   7.614723   7.912729   6.167734   3.746239
    30  H    6.645222   7.221029   7.144447   4.843884   2.947101
                   21         22         23         24         25
    21  H    0.000000
    22  H    1.754301   0.000000
    23  H    6.560378   7.251841   0.000000
    24  H    7.398864   7.614730   3.278368   0.000000
    25  H    7.614759   7.912726   2.157070   1.754299   0.000000
    26  H    7.221084   7.144462   3.423439   1.757882   1.755656
    27  H    5.066764   6.167736   2.445784   5.234997   4.489814
    28  H    2.453487   3.608007   5.234990   7.102852   6.761118
    29  H    3.608001   5.049325   4.489822   6.761086   6.345389
    30  H    2.106753   3.746231   5.314261   6.797186   6.803911
                   26         27         28         29         30
    26  H    0.000000
    27  H    5.314252   0.000000
    28  H    6.797240   3.278340   0.000000
    29  H    6.803929   2.157089   1.754300   0.000000
    30  H    6.905872   3.423476   1.757882   1.755656   0.000000
 Stoichiometry    C14H16
 Framework group  C1[X(C14H16)]
 Deg. of freedom    84
 Full point group                 C1      NOp   1
 Largest Abelian subgroup         C1      NOp   1
 Largest concise Abelian subgroup C1      NOp   1
                         Standard orientation:                         
 ---------------------------------------------------------------------
 Center     Atomic      Atomic             Coordinates (Angstroms)
 Number     Number       Type             X           Y           Z
 ---------------------------------------------------------------------
      1          6           0       -1.418153   -1.254092   -0.125847
      2          6           0       -0.692254   -2.417433   -0.088608
      3          6           0       -0.726730    0.000000   -0.000002
      4          6           0       -2.898667   -1.404122   -0.387429
      5          6           0        0.692262   -2.417433    0.088571
      6          6           0        1.418155   -1.254089    0.125844
      7          6           0        0.726728    0.000000    0.000001
      8          6           0        2.898659   -1.404108    0.387483
      9          6           0        1.418155    1.254089   -0.125843
     10          6           0       -1.418153    1.254092    0.125845
     11          6           0       -0.692254    2.417433    0.088606
     12          6           0       -2.898666    1.404123    0.387432
     13          6           0        0.692263    2.417433   -0.088575
     14          6           0        2.898660    1.404107   -0.387480
     15          1           0       -1.207924   -3.364322   -0.190741
     16          1           0       -3.224235   -0.802631   -1.235784
     17          1           0       -3.520891   -1.135334    0.464643
     18          1           0       -3.110064   -2.445494   -0.627269
     19          1           0        1.207933   -3.364323    0.190697
     20          1           0        3.224198   -0.802572    1.235817
     21          1           0        3.520915   -1.135366   -0.464582
     22          1           0        3.110047   -2.445468    0.627385
     23          1           0       -1.207923    3.364323    0.190738
     24          1           0       -3.520893    1.135345   -0.464641
     25          1           0       -3.110061    2.445492    0.627283
     26          1           0       -3.224233    0.802622    1.235782
     27          1           0        1.207934    3.364323   -0.190702
     28          1           0        3.520914    1.135370    0.464587
     29          1           0        3.110048    2.445465   -0.627388
     30          1           0        3.224201    0.802565   -1.235810
 ---------------------------------------------------------------------
 Rotational constants (GHZ):      0.9268413      0.7330905      0.4209926
 Leave Link  202 at Fri Jul  9 19:19:36 2021, MaxMem=  4194304000 cpu:         0.6
 (Enter /home/minenky/programs//g09/l301.exe)
 Standard basis: def2TZVP (5D, 7F)
 ======================================================================================================
                                       Pseudopotential Parameters
 ======================================================================================================
  Center     Atomic      Valence      Angular      Power
  Number     Number     Electrons     Momentum     of R      Exponent        Coefficient   SO-Coeffient
 ======================================================================================================
    1          6
                                   No pseudopotential on this center.
    2          6
                                   No pseudopotential on this center.
    3          6
                                   No pseudopotential on this center.
    4          6
                                   No pseudopotential on this center.
    5          6
                                   No pseudopotential on this center.
    6          6
                                   No pseudopotential on this center.
    7          6
                                   No pseudopotential on this center.
    8          6
                                   No pseudopotential on this center.
    9          6
                                   No pseudopotential on this center.
   10          6
                                   No pseudopotential on this center.
   11          6
                                   No pseudopotential on this center.
   12          6
                                   No pseudopotential on this center.
   13          6
                                   No pseudopotential on this center.
   14          6
                                   No pseudopotential on this center.
   15          1
                                   No pseudopotential on this center.
   16          1
                                   No pseudopotential on this center.
   17          1
                                   No pseudopotential on this center.
   18          1
                                   No pseudopotential on this center.
   19          1
                                   No pseudopotential on this center.
   20          1
                                   No pseudopotential on this center.
   21          1
                                   No pseudopotential on this center.
   22          1
                                   No pseudopotential on this center.
   23          1
                                   No pseudopotential on this center.
   24          1
                                   No pseudopotential on this center.
   25          1
                                   No pseudopotential on this center.
   26          1
                                   No pseudopotential on this center.
   27          1
                                   No pseudopotential on this center.
   28          1
                                   No pseudopotential on this center.
   29          1
                                   No pseudopotential on this center.
   30          1
                                   No pseudopotential on this center.
 ======================================================================================================
 Ernie: Thresh=  0.10000D-02 Tol=  0.10000D-05 Strict=F.
 AO basis set (Overlap normalization):
 Atom C1       Shell     1 S   6     bf    1 -     1         -2.679920502229         -2.369890564710         -0.237816421337
      0.1357534968D+05  0.6064550360D-03
      0.2035233368D+04  0.4697908888D-02
      0.4632256236D+03  0.2433247765D-01
      0.1312001960D+03  0.9739996831D-01
      0.4285301589D+02  0.3019558425D+00
      0.1558418577D+02  0.6623360914D+00
 Atom C1       Shell     2 S   2     bf    2 -     2         -2.679920502229         -2.369890564710         -0.237816421337
      0.6206713851D+01  0.6559530854D+00
      0.2576489653D+01  0.3758563329D+00
 Atom C1       Shell     3 S   1     bf    3 -     3         -2.679920502229         -2.369890564710         -0.237816421337
      0.5769633942D+00  0.1000000000D+01
 Atom C1       Shell     4 S   1     bf    4 -     4         -2.679920502229         -2.369890564710         -0.237816421337
      0.2297283136D+00  0.1000000000D+01
 Atom C1       Shell     5 S   1     bf    5 -     5         -2.679920502229         -2.369890564710         -0.237816421337
      0.9516444003D-01  0.1000000000D+01
 Atom C1       Shell     6 P   4     bf    6 -     8         -2.679920502229         -2.369890564710         -0.237816421337
      0.3469723224D+02  0.1132722000D-01
      0.7958262283D+01  0.7616965920D-01
      0.2378082688D+01  0.3019225220D+00
      0.8143320818D+00  0.7278502735D+00
 Atom C1       Shell     7 P   1     bf    9 -    11         -2.679920502229         -2.369890564710         -0.237816421337
      0.2888754725D+00  0.1000000000D+01
 Atom C1       Shell     8 P   1     bf   12 -    14         -2.679920502229         -2.369890564710         -0.237816421337
      0.1005682367D+00  0.1000000000D+01
 Atom C1       Shell     9 D   1     bf   15 -    19         -2.679920502229         -2.369890564710         -0.237816421337
      0.1097000000D+01  0.1000000000D+01
 Atom C1       Shell    10 D   1     bf   20 -    24         -2.679920502229         -2.369890564710         -0.237816421337
      0.3180000000D+00  0.1000000000D+01
 Atom C1       Shell    11 F   1     bf   25 -    31         -2.679920502229         -2.369890564710         -0.237816421337
      0.7610000000D+00  0.1000000000D+01
 Atom C2       Shell    12 S   6     bf   32 -    32         -1.308170000341         -4.568286334218         -0.167444909875
      0.1357534968D+05  0.6064550360D-03
      0.2035233368D+04  0.4697908888D-02
      0.4632256236D+03  0.2433247765D-01
      0.1312001960D+03  0.9739996831D-01
      0.4285301589D+02  0.3019558425D+00
      0.1558418577D+02  0.6623360914D+00
 Atom C2       Shell    13 S   2     bf   33 -    33         -1.308170000341         -4.568286334218         -0.167444909875
      0.6206713851D+01  0.6559530854D+00
      0.2576489653D+01  0.3758563329D+00
 Atom C2       Shell    14 S   1     bf   34 -    34         -1.308170000341         -4.568286334218         -0.167444909875
      0.5769633942D+00  0.1000000000D+01
 Atom C2       Shell    15 S   1     bf   35 -    35         -1.308170000341         -4.568286334218         -0.167444909875
      0.2297283136D+00  0.1000000000D+01
 Atom C2       Shell    16 S   1     bf   36 -    36         -1.308170000341         -4.568286334218         -0.167444909875
      0.9516444003D-01  0.1000000000D+01
 Atom C2       Shell    17 P   4     bf   37 -    39         -1.308170000341         -4.568286334218         -0.167444909875
      0.3469723224D+02  0.1132722000D-01
      0.7958262283D+01  0.7616965920D-01
      0.2378082688D+01  0.3019225220D+00
      0.8143320818D+00  0.7278502735D+00
 Atom C2       Shell    18 P   1     bf   40 -    42         -1.308170000341         -4.568286334218         -0.167444909875
      0.2888754725D+00  0.1000000000D+01
 Atom C2       Shell    19 P   1     bf   43 -    45         -1.308170000341         -4.568286334218         -0.167444909875
      0.1005682367D+00  0.1000000000D+01
 Atom C2       Shell    20 D   1     bf   46 -    50         -1.308170000341         -4.568286334218         -0.167444909875
      0.1097000000D+01  0.1000000000D+01
 Atom C2       Shell    21 D   1     bf   51 -    55         -1.308170000341         -4.568286334218         -0.167444909875
      0.3180000000D+00  0.1000000000D+01
 Atom C2       Shell    22 F   1     bf   56 -    62         -1.308170000341         -4.568286334218         -0.167444909875
      0.7610000000D+00  0.1000000000D+01
 Atom C3       Shell    23 S   6     bf   63 -    63         -1.373320596963         -0.000000025300         -0.000003836144
      0.1357534968D+05  0.6064550360D-03
      0.2035233368D+04  0.4697908888D-02
      0.4632256236D+03  0.2433247765D-01
      0.1312001960D+03  0.9739996831D-01
      0.4285301589D+02  0.3019558425D+00
      0.1558418577D+02  0.6623360914D+00
 Atom C3       Shell    24 S   2     bf   64 -    64         -1.373320596963         -0.000000025300         -0.000003836144
      0.6206713851D+01  0.6559530854D+00
      0.2576489653D+01  0.3758563329D+00
 Atom C3       Shell    25 S   1     bf   65 -    65         -1.373320596963         -0.000000025300         -0.000003836144
      0.5769633942D+00  0.1000000000D+01
 Atom C3       Shell    26 S   1     bf   66 -    66         -1.373320596963         -0.000000025300         -0.000003836144
      0.2297283136D+00  0.1000000000D+01
 Atom C3       Shell    27 S   1     bf   67 -    67         -1.373320596963         -0.000000025300         -0.000003836144
      0.9516444003D-01  0.1000000000D+01
 Atom C3       Shell    28 P   4     bf   68 -    70         -1.373320596963         -0.000000025300         -0.000003836144
      0.3469723224D+02  0.1132722000D-01
      0.7958262283D+01  0.7616965920D-01
      0.2378082688D+01  0.3019225220D+00
      0.8143320818D+00  0.7278502735D+00
 Atom C3       Shell    29 P   1     bf   71 -    73         -1.373320596963         -0.000000025300         -0.000003836144
      0.2888754725D+00  0.1000000000D+01
 Atom C3       Shell    30 P   1     bf   74 -    76         -1.373320596963         -0.000000025300         -0.000003836144
      0.1005682367D+00  0.1000000000D+01
 Atom C3       Shell    31 D   1     bf   77 -    81         -1.373320596963         -0.000000025300         -0.000003836144
      0.1097000000D+01  0.1000000000D+01
 Atom C3       Shell    32 D   1     bf   82 -    86         -1.373320596963         -0.000000025300         -0.000003836144
      0.3180000000D+00  0.1000000000D+01
 Atom C3       Shell    33 F   1     bf   87 -    93         -1.373320596963         -0.000000025300         -0.000003836144
      0.7610000000D+00  0.1000000000D+01
 Atom C4       Shell    34 S   6     bf   94 -    94         -5.477686473403         -2.653406420460         -0.732134762630
      0.1357534968D+05  0.6064550360D-03
      0.2035233368D+04  0.4697908888D-02
      0.4632256236D+03  0.2433247765D-01
      0.1312001960D+03  0.9739996831D-01
      0.4285301589D+02  0.3019558425D+00
      0.1558418577D+02  0.6623360914D+00
 Atom C4       Shell    35 S   2     bf   95 -    95         -5.477686473403         -2.653406420460         -0.732134762630
      0.6206713851D+01  0.6559530854D+00
      0.2576489653D+01  0.3758563329D+00
 Atom C4       Shell    36 S   1     bf   96 -    96         -5.477686473403         -2.653406420460         -0.732134762630
      0.5769633942D+00  0.1000000000D+01
 Atom C4       Shell    37 S   1     bf   97 -    97         -5.477686473403         -2.653406420460         -0.732134762630
      0.2297283136D+00  0.1000000000D+01
 Atom C4       Shell    38 S   1     bf   98 -    98         -5.477686473403         -2.653406420460         -0.732134762630
      0.9516444003D-01  0.1000000000D+01
 Atom C4       Shell    39 P   4     bf   99 -   101         -5.477686473403         -2.653406420460         -0.732134762630
      0.3469723224D+02  0.1132722000D-01
      0.7958262283D+01  0.7616965920D-01
      0.2378082688D+01  0.3019225220D+00
      0.8143320818D+00  0.7278502735D+00
 Atom C4       Shell    40 P   1     bf  102 -   104         -5.477686473403         -2.653406420460         -0.732134762630
      0.2888754725D+00  0.1000000000D+01
 Atom C4       Shell    41 P   1     bf  105 -   107         -5.477686473403         -2.653406420460         -0.732134762630
      0.1005682367D+00  0.1000000000D+01
 Atom C4       Shell    42 D   1     bf  108 -   112         -5.477686473403         -2.653406420460         -0.732134762630
      0.1097000000D+01  0.1000000000D+01
 Atom C4       Shell    43 D   1     bf  113 -   117         -5.477686473403         -2.653406420460         -0.732134762630
      0.3180000000D+00  0.1000000000D+01
 Atom C4       Shell    44 F   1     bf  118 -   124         -5.477686473403         -2.653406420460         -0.732134762630
      0.7610000000D+00  0.1000000000D+01
 Atom C5       Shell    45 S   6     bf  125 -   125          1.308186066258         -4.568286106008          0.167374876624
      0.1357534968D+05  0.6064550360D-03
      0.2035233368D+04  0.4697908888D-02
      0.4632256236D+03  0.2433247765D-01
      0.1312001960D+03  0.9739996831D-01
      0.4285301589D+02  0.3019558425D+00
      0.1558418577D+02  0.6623360914D+00
 Atom C5       Shell    46 S   2     bf  126 -   126          1.308186066258         -4.568286106008          0.167374876624
      0.6206713851D+01  0.6559530854D+00
      0.2576489653D+01  0.3758563329D+00
 Atom C5       Shell    47 S   1     bf  127 -   127          1.308186066258         -4.568286106008          0.167374876624
      0.5769633942D+00  0.1000000000D+01
 Atom C5       Shell    48 S   1     bf  128 -   128          1.308186066258         -4.568286106008          0.167374876624
      0.2297283136D+00  0.1000000000D+01
 Atom C5       Shell    49 S   1     bf  129 -   129          1.308186066258         -4.568286106008          0.167374876624
      0.9516444003D-01  0.1000000000D+01
 Atom C5       Shell    50 P   4     bf  130 -   132          1.308186066258         -4.568286106008          0.167374876624
      0.3469723224D+02  0.1132722000D-01
      0.7958262283D+01  0.7616965920D-01
      0.2378082688D+01  0.3019225220D+00
      0.8143320818D+00  0.7278502735D+00
 Atom C5       Shell    51 P   1     bf  133 -   135          1.308186066258         -4.568286106008          0.167374876624
      0.2888754725D+00  0.1000000000D+01
 Atom C5       Shell    52 P   1     bf  136 -   138          1.308186066258         -4.568286106008          0.167374876624
      0.1005682367D+00  0.1000000000D+01
 Atom C5       Shell    53 D   1     bf  139 -   143          1.308186066258         -4.568286106008          0.167374876624
      0.1097000000D+01  0.1000000000D+01
 Atom C5       Shell    54 D   1     bf  144 -   148          1.308186066258         -4.568286106008          0.167374876624
      0.3180000000D+00  0.1000000000D+01
 Atom C5       Shell    55 F   1     bf  149 -   155          1.308186066258         -4.568286106008          0.167374876624
      0.7610000000D+00  0.1000000000D+01
 Atom C6       Shell    56 S   6     bf  156 -   156          2.679924846283         -2.369884428024          0.237810638775
      0.1357534968D+05  0.6064550360D-03
      0.2035233368D+04  0.4697908888D-02
      0.4632256236D+03  0.2433247765D-01
      0.1312001960D+03  0.9739996831D-01
      0.4285301589D+02  0.3019558425D+00
      0.1558418577D+02  0.6623360914D+00
 Atom C6       Shell    57 S   2     bf  157 -   157          2.679924846283         -2.369884428024          0.237810638775
      0.6206713851D+01  0.6559530854D+00
      0.2576489653D+01  0.3758563329D+00
 Atom C6       Shell    58 S   1     bf  158 -   158          2.679924846283         -2.369884428024          0.237810638775
      0.5769633942D+00  0.1000000000D+01
 Atom C6       Shell    59 S   1     bf  159 -   159          2.679924846283         -2.369884428024          0.237810638775
      0.2297283136D+00  0.1000000000D+01
 Atom C6       Shell    60 S   1     bf  160 -   160          2.679924846283         -2.369884428024          0.237810638775
      0.9516444003D-01  0.1000000000D+01
 Atom C6       Shell    61 P   4     bf  161 -   163          2.679924846283         -2.369884428024          0.237810638775
      0.3469723224D+02  0.1132722000D-01
      0.7958262283D+01  0.7616965920D-01
      0.2378082688D+01  0.3019225220D+00
      0.8143320818D+00  0.7278502735D+00
 Atom C6       Shell    62 P   1     bf  164 -   166          2.679924846283         -2.369884428024          0.237810638775
      0.2888754725D+00  0.1000000000D+01
 Atom C6       Shell    63 P   1     bf  167 -   169          2.679924846283         -2.369884428024          0.237810638775
      0.1005682367D+00  0.1000000000D+01
 Atom C6       Shell    64 D   1     bf  170 -   174          2.679924846283         -2.369884428024          0.237810638775
      0.1097000000D+01  0.1000000000D+01
 Atom C6       Shell    65 D   1     bf  175 -   179          2.679924846283         -2.369884428024          0.237810638775
      0.3180000000D+00  0.1000000000D+01
 Atom C6       Shell    66 F   1     bf  180 -   186          2.679924846283         -2.369884428024          0.237810638775
      0.7610000000D+00  0.1000000000D+01
 Atom C7       Shell    67 S   6     bf  187 -   187          1.373316968689          0.000000214273          0.000001833034
      0.1357534968D+05  0.6064550360D-03
      0.2035233368D+04  0.4697908888D-02
      0.4632256236D+03  0.2433247765D-01
      0.1312001960D+03  0.9739996831D-01
      0.4285301589D+02  0.3019558425D+00
      0.1558418577D+02  0.6623360914D+00
 Atom C7       Shell    68 S   2     bf  188 -   188          1.373316968689          0.000000214273          0.000001833034
      0.6206713851D+01  0.6559530854D+00
      0.2576489653D+01  0.3758563329D+00
 Atom C7       Shell    69 S   1     bf  189 -   189          1.373316968689          0.000000214273          0.000001833034
      0.5769633942D+00  0.1000000000D+01
 Atom C7       Shell    70 S   1     bf  190 -   190          1.373316968689          0.000000214273          0.000001833034
      0.2297283136D+00  0.1000000000D+01
 Atom C7       Shell    71 S   1     bf  191 -   191          1.373316968689          0.000000214273          0.000001833034
      0.9516444003D-01  0.1000000000D+01
 Atom C7       Shell    72 P   4     bf  192 -   194          1.373316968689          0.000000214273          0.000001833034
      0.3469723224D+02  0.1132722000D-01
      0.7958262283D+01  0.7616965920D-01
      0.2378082688D+01  0.3019225220D+00
      0.8143320818D+00  0.7278502735D+00
 Atom C7       Shell    73 P   1     bf  195 -   197          1.373316968689          0.000000214273          0.000001833034
      0.2888754725D+00  0.1000000000D+01
 Atom C7       Shell    74 P   1     bf  198 -   200          1.373316968689          0.000000214273          0.000001833034
      0.1005682367D+00  0.1000000000D+01
 Atom C7       Shell    75 D   1     bf  201 -   205          1.373316968689          0.000000214273          0.000001833034
      0.1097000000D+01  0.1000000000D+01
 Atom C7       Shell    76 D   1     bf  206 -   210          1.373316968689          0.000000214273          0.000001833034
      0.3180000000D+00  0.1000000000D+01
 Atom C7       Shell    77 F   1     bf  211 -   217          1.373316968689          0.000000214273          0.000001833034
      0.7610000000D+00  0.1000000000D+01
 Atom C8       Shell    78 S   6     bf  218 -   218          5.477671969652         -2.653379008722          0.732236694457
      0.1357534968D+05  0.6064550360D-03
      0.2035233368D+04  0.4697908888D-02
      0.4632256236D+03  0.2433247765D-01
      0.1312001960D+03  0.9739996831D-01
      0.4285301589D+02  0.3019558425D+00
      0.1558418577D+02  0.6623360914D+00
 Atom C8       Shell    79 S   2     bf  219 -   219          5.477671969652         -2.653379008722          0.732236694457
      0.6206713851D+01  0.6559530854D+00
      0.2576489653D+01  0.3758563329D+00
 Atom C8       Shell    80 S   1     bf  220 -   220          5.477671969652         -2.653379008722          0.732236694457
      0.5769633942D+00  0.1000000000D+01
 Atom C8       Shell    81 S   1     bf  221 -   221          5.477671969652         -2.653379008722          0.732236694457
      0.2297283136D+00  0.1000000000D+01
 Atom C8       Shell    82 S   1     bf  222 -   222          5.477671969652         -2.653379008722          0.732236694457
      0.9516444003D-01  0.1000000000D+01
 Atom C8       Shell    83 P   4     bf  223 -   225          5.477671969652         -2.653379008722          0.732236694457
      0.3469723224D+02  0.1132722000D-01
      0.7958262283D+01  0.7616965920D-01
      0.2378082688D+01  0.3019225220D+00
      0.8143320818D+00  0.7278502735D+00
 Atom C8       Shell    84 P   1     bf  226 -   228          5.477671969652         -2.653379008722          0.732236694457
      0.2888754725D+00  0.1000000000D+01
 Atom C8       Shell    85 P   1     bf  229 -   231          5.477671969652         -2.653379008722          0.732236694457
      0.1005682367D+00  0.1000000000D+01
 Atom C8       Shell    86 D   1     bf  232 -   236          5.477671969652         -2.653379008722          0.732236694457
      0.1097000000D+01  0.1000000000D+01
 Atom C8       Shell    87 D   1     bf  237 -   241          5.477671969652         -2.653379008722          0.732236694457
      0.3180000000D+00  0.1000000000D+01
 Atom C8       Shell    88 F   1     bf  242 -   248          5.477671969652         -2.653379008722          0.732236694457
      0.7610000000D+00  0.1000000000D+01
 Atom C9       Shell    89 S   6     bf  249 -   249          2.679924432860          2.369885084505         -0.237808862433
      0.1357534968D+05  0.6064550360D-03
      0.2035233368D+04  0.4697908888D-02
      0.4632256236D+03  0.2433247765D-01
      0.1312001960D+03  0.9739996831D-01
      0.4285301589D+02  0.3019558425D+00
      0.1558418577D+02  0.6623360914D+00
 Atom C9       Shell    90 S   2     bf  250 -   250          2.679924432860          2.369885084505         -0.237808862433
      0.6206713851D+01  0.6559530854D+00
      0.2576489653D+01  0.3758563329D+00
 Atom C9       Shell    91 S   1     bf  251 -   251          2.679924432860          2.369885084505         -0.237808862433
      0.5769633942D+00  0.1000000000D+01
 Atom C9       Shell    92 S   1     bf  252 -   252          2.679924432860          2.369885084505         -0.237808862433
      0.2297283136D+00  0.1000000000D+01
 Atom C9       Shell    93 S   1     bf  253 -   253          2.679924432860          2.369885084505         -0.237808862433
      0.9516444003D-01  0.1000000000D+01
 Atom C9       Shell    94 P   4     bf  254 -   256          2.679924432860          2.369885084505         -0.237808862433
      0.3469723224D+02  0.1132722000D-01
      0.7958262283D+01  0.7616965920D-01
      0.2378082688D+01  0.3019225220D+00
      0.8143320818D+00  0.7278502735D+00
 Atom C9       Shell    95 P   1     bf  257 -   259          2.679924432860          2.369885084505         -0.237808862433
      0.2888754725D+00  0.1000000000D+01
 Atom C9       Shell    96 P   1     bf  260 -   262          2.679924432860          2.369885084505         -0.237808862433
      0.1005682367D+00  0.1000000000D+01
 Atom C9       Shell    97 D   1     bf  263 -   267          2.679924432860          2.369885084505         -0.237808862433
      0.1097000000D+01  0.1000000000D+01
 Atom C9       Shell    98 D   1     bf  268 -   272          2.679924432860          2.369885084505         -0.237808862433
      0.3180000000D+00  0.1000000000D+01
 Atom C9       Shell    99 F   1     bf  273 -   279          2.679924432860          2.369885084505         -0.237808862433
      0.7610000000D+00  0.1000000000D+01
 Atom C10      Shell   100 S   6     bf  280 -   280         -2.679920915653          2.369890286175          0.237812528501
      0.1357534968D+05  0.6064550360D-03
      0.2035233368D+04  0.4697908888D-02
      0.4632256236D+03  0.2433247765D-01
      0.1312001960D+03  0.9739996831D-01
      0.4285301589D+02  0.3019558425D+00
      0.1558418577D+02  0.6623360914D+00
 Atom C10      Shell   101 S   2     bf  281 -   281         -2.679920915653          2.369890286175          0.237812528501
      0.6206713851D+01  0.6559530854D+00
      0.2576489653D+01  0.3758563329D+00
 Atom C10      Shell   102 S   1     bf  282 -   282         -2.679920915653          2.369890286175          0.237812528501
      0.5769633942D+00  0.1000000000D+01
 Atom C10      Shell   103 S   1     bf  283 -   283         -2.679920915653          2.369890286175          0.237812528501
      0.2297283136D+00  0.1000000000D+01
 Atom C10      Shell   104 S   1     bf  284 -   284         -2.679920915653          2.369890286175          0.237812528501
      0.9516444003D-01  0.1000000000D+01
 Atom C10      Shell   105 P   4     bf  285 -   287         -2.679920915653          2.369890286175          0.237812528501
      0.3469723224D+02  0.1132722000D-01
      0.7958262283D+01  0.7616965920D-01
      0.2378082688D+01  0.3019225220D+00
      0.8143320818D+00  0.7278502735D+00
 Atom C10      Shell   106 P   1     bf  288 -   290         -2.679920915653          2.369890286175          0.237812528501
      0.2888754725D+00  0.1000000000D+01
 Atom C10      Shell   107 P   1     bf  291 -   293         -2.679920915653          2.369890286175          0.237812528501
      0.1005682367D+00  0.1000000000D+01
 Atom C10      Shell   108 D   1     bf  294 -   298         -2.679920915653          2.369890286175          0.237812528501
      0.1097000000D+01  0.1000000000D+01
 Atom C10      Shell   109 D   1     bf  299 -   303         -2.679920915653          2.369890286175          0.237812528501
      0.3180000000D+00  0.1000000000D+01
 Atom C10      Shell   110 F   1     bf  304 -   310         -2.679920915653          2.369890286175          0.237812528501
      0.7610000000D+00  0.1000000000D+01
 Atom C11      Shell   111 S   6     bf  311 -   311         -1.308170797270          4.568286294982          0.167441017039
      0.1357534968D+05  0.6064550360D-03
      0.2035233368D+04  0.4697908888D-02
      0.4632256236D+03  0.2433247765D-01
      0.1312001960D+03  0.9739996831D-01
      0.4285301589D+02  0.3019558425D+00
      0.1558418577D+02  0.6623360914D+00
 Atom C11      Shell   112 S   2     bf  312 -   312         -1.308170797270          4.568286294982          0.167441017039
      0.6206713851D+01  0.6559530854D+00
      0.2576489653D+01  0.3758563329D+00
 Atom C11      Shell   113 S   1     bf  313 -   313         -1.308170797270          4.568286294982          0.167441017039
      0.5769633942D+00  0.1000000000D+01
 Atom C11      Shell   114 S   1     bf  314 -   314         -1.308170797270          4.568286294982          0.167441017039
      0.2297283136D+00  0.1000000000D+01
 Atom C11      Shell   115 S   1     bf  315 -   315         -1.308170797270          4.568286294982          0.167441017039
      0.9516444003D-01  0.1000000000D+01
 Atom C11      Shell   116 P   4     bf  316 -   318         -1.308170797270          4.568286294982          0.167441017039
      0.3469723224D+02  0.1132722000D-01
      0.7958262283D+01  0.7616965920D-01
      0.2378082688D+01  0.3019225220D+00
      0.8143320818D+00  0.7278502735D+00
 Atom C11      Shell   117 P   1     bf  319 -   321         -1.308170797270          4.568286294982          0.167441017039
      0.2888754725D+00  0.1000000000D+01
 Atom C11      Shell   118 P   1     bf  322 -   324         -1.308170797270          4.568286294982          0.167441017039
      0.1005682367D+00  0.1000000000D+01
 Atom C11      Shell   119 D   1     bf  325 -   329         -1.308170797270          4.568286294982          0.167441017039
      0.1097000000D+01  0.1000000000D+01
 Atom C11      Shell   120 D   1     bf  330 -   334         -1.308170797270          4.568286294982          0.167441017039
      0.3180000000D+00  0.1000000000D+01
 Atom C11      Shell   121 F   1     bf  335 -   341         -1.308170797270          4.568286294982          0.167441017039
      0.7610000000D+00  0.1000000000D+01
 Atom C12      Shell   122 S   6     bf  342 -   342         -5.477685046559          2.653407543586          0.732140318424
      0.1357534968D+05  0.6064550360D-03
      0.2035233368D+04  0.4697908888D-02
      0.4632256236D+03  0.2433247765D-01
      0.1312001960D+03  0.9739996831D-01
      0.4285301589D+02  0.3019558425D+00
      0.1558418577D+02  0.6623360914D+00
 Atom C12      Shell   123 S   2     bf  343 -   343         -5.477685046559          2.653407543586          0.732140318424
      0.6206713851D+01  0.6559530854D+00
      0.2576489653D+01  0.3758563329D+00
 Atom C12      Shell   124 S   1     bf  344 -   344         -5.477685046559          2.653407543586          0.732140318424
      0.5769633942D+00  0.1000000000D+01
 Atom C12      Shell   125 S   1     bf  345 -   345         -5.477685046559          2.653407543586          0.732140318424
      0.2297283136D+00  0.1000000000D+01
 Atom C12      Shell   126 S   1     bf  346 -   346         -5.477685046559          2.653407543586          0.732140318424
      0.9516444003D-01  0.1000000000D+01
 Atom C12      Shell   127 P   4     bf  347 -   349         -5.477685046559          2.653407543586          0.732140318424
      0.3469723224D+02  0.1132722000D-01
      0.7958262283D+01  0.7616965920D-01
      0.2378082688D+01  0.3019225220D+00
      0.8143320818D+00  0.7278502735D+00
 Atom C12      Shell   128 P   1     bf  350 -   352         -5.477685046559          2.653407543586          0.732140318424
      0.2888754725D+00  0.1000000000D+01
 Atom C12      Shell   129 P   1     bf  353 -   355         -5.477685046559          2.653407543586          0.732140318424
      0.1005682367D+00  0.1000000000D+01
 Atom C12      Shell   130 D   1     bf  356 -   360         -5.477685046559          2.653407543586          0.732140318424
      0.1097000000D+01  0.1000000000D+01
 Atom C12      Shell   131 D   1     bf  361 -   365         -5.477685046559          2.653407543586          0.732140318424
      0.3180000000D+00  0.1000000000D+01
 Atom C12      Shell   132 F   1     bf  366 -   372         -5.477685046559          2.653407543586          0.732140318424
      0.7610000000D+00  0.1000000000D+01
 Atom C13      Shell   133 S   6     bf  373 -   373          1.308187159054          4.568286523192         -0.167382548912
      0.1357534968D+05  0.6064550360D-03
      0.2035233368D+04  0.4697908888D-02
      0.4632256236D+03  0.2433247765D-01
      0.1312001960D+03  0.9739996831D-01
      0.4285301589D+02  0.3019558425D+00
      0.1558418577D+02  0.6623360914D+00
 Atom C13      Shell   134 S   2     bf  374 -   374          1.308187159054          4.568286523192         -0.167382548912
      0.6206713851D+01  0.6559530854D+00
      0.2576489653D+01  0.3758563329D+00
 Atom C13      Shell   135 S   1     bf  375 -   375          1.308187159054          4.568286523192         -0.167382548912
      0.5769633942D+00  0.1000000000D+01
 Atom C13      Shell   136 S   1     bf  376 -   376          1.308187159054          4.568286523192         -0.167382548912
      0.2297283136D+00  0.1000000000D+01
 Atom C13      Shell   137 S   1     bf  377 -   377          1.308187159054          4.568286523192         -0.167382548912
      0.9516444003D-01  0.1000000000D+01
 Atom C13      Shell   138 P   4     bf  378 -   380          1.308187159054          4.568286523192         -0.167382548912
      0.3469723224D+02  0.1132722000D-01
      0.7958262283D+01  0.7616965920D-01
      0.2378082688D+01  0.3019225220D+00
      0.8143320818D+00  0.7278502735D+00
 Atom C13      Shell   139 P   1     bf  381 -   383          1.308187159054          4.568286523192         -0.167382548912
      0.2888754725D+00  0.1000000000D+01
 Atom C13      Shell   140 P   1     bf  384 -   386          1.308187159054          4.568286523192         -0.167382548912
      0.1005682367D+00  0.1000000000D+01
 Atom C13      Shell   141 D   1     bf  387 -   391          1.308187159054          4.568286523192         -0.167382548912
      0.1097000000D+01  0.1000000000D+01
 Atom C13      Shell   142 D   1     bf  392 -   396          1.308187159054          4.568286523192         -0.167382548912
      0.3180000000D+00  0.1000000000D+01
 Atom C13      Shell   143 F   1     bf  397 -   403          1.308187159054          4.568286523192         -0.167382548912
      0.7610000000D+00  0.1000000000D+01
 Atom C14      Shell   144 S   6     bf  404 -   404          5.477673396501          2.653378263539         -0.732231138662
      0.1357534968D+05  0.6064550360D-03
      0.2035233368D+04  0.4697908888D-02
      0.4632256236D+03  0.2433247765D-01
      0.1312001960D+03  0.9739996831D-01
      0.4285301589D+02  0.3019558425D+00
      0.1558418577D+02  0.6623360914D+00
 Atom C14      Shell   145 S   2     bf  405 -   405          5.477673396501          2.653378263539         -0.732231138662
      0.6206713851D+01  0.6559530854D+00
      0.2576489653D+01  0.3758563329D+00
 Atom C14      Shell   146 S   1     bf  406 -   406          5.477673396501          2.653378263539         -0.732231138662
      0.5769633942D+00  0.1000000000D+01
 Atom C14      Shell   147 S   1     bf  407 -   407          5.477673396501          2.653378263539         -0.732231138662
      0.2297283136D+00  0.1000000000D+01
 Atom C14      Shell   148 S   1     bf  408 -   408          5.477673396501          2.653378263539         -0.732231138662
      0.9516444003D-01  0.1000000000D+01
 Atom C14      Shell   149 P   4     bf  409 -   411          5.477673396501          2.653378263539         -0.732231138662
      0.3469723224D+02  0.1132722000D-01
      0.7958262283D+01  0.7616965920D-01
      0.2378082688D+01  0.3019225220D+00
      0.8143320818D+00  0.7278502735D+00
 Atom C14      Shell   150 P   1     bf  412 -   414          5.477673396501          2.653378263539         -0.732231138662
      0.2888754725D+00  0.1000000000D+01
 Atom C14      Shell   151 P   1     bf  415 -   417          5.477673396501          2.653378263539         -0.732231138662
      0.1005682367D+00  0.1000000000D+01
 Atom C14      Shell   152 D   1     bf  418 -   422          5.477673396501          2.653378263539         -0.732231138662
      0.1097000000D+01  0.1000000000D+01
 Atom C14      Shell   153 D   1     bf  423 -   427          5.477673396501          2.653378263539         -0.732231138662
      0.3180000000D+00  0.1000000000D+01
 Atom C14      Shell   154 F   1     bf  428 -   434          5.477673396501          2.653378263539         -0.732231138662
      0.7610000000D+00  0.1000000000D+01
 Atom H15      Shell   155 S   3     bf  435 -   435         -2.282644919210         -6.357647307458         -0.360448309005
      0.3406134100D+02  0.2543930721D-01
      0.5123574600D+01  0.1900859489D+00
      0.1164662600D+01  0.8524411301D+00
 Atom H15      Shell   156 S   1     bf  436 -   436         -2.282644919210         -6.357647307458         -0.360448309005
      0.3272304100D+00  0.1000000000D+01
 Atom H15      Shell   157 S   1     bf  437 -   437         -2.282644919210         -6.357647307458         -0.360448309005
      0.1030724100D+00  0.1000000000D+01
 Atom H15      Shell   158 P   1     bf  438 -   440         -2.282644919210         -6.357647307458         -0.360448309005
      0.8000000000D+00  0.1000000000D+01
 Atom H16      Shell   159 S   3     bf  441 -   441         -6.092920930178         -1.516753212728         -2.335293376094
      0.3406134100D+02  0.2543930721D-01
      0.5123574600D+01  0.1900859489D+00
      0.1164662600D+01  0.8524411301D+00
 Atom H16      Shell   160 S   1     bf  442 -   442         -6.092920930178         -1.516753212728         -2.335293376094
      0.3272304100D+00  0.1000000000D+01
 Atom H16      Shell   161 S   1     bf  443 -   443         -6.092920930178         -1.516753212728         -2.335293376094
      0.1030724100D+00  0.1000000000D+01
 Atom H16      Shell   162 P   1     bf  444 -   446         -6.092920930178         -1.516753212728         -2.335293376094
      0.8000000000D+00  0.1000000000D+01
 Atom H17      Shell   163 S   3     bf  447 -   447         -6.653519471016         -2.145470815215          0.878047962871
      0.3406134100D+02  0.2543930721D-01
      0.5123574600D+01  0.1900859489D+00
      0.1164662600D+01  0.8524411301D+00
 Atom H17      Shell   164 S   1     bf  448 -   448         -6.653519471016         -2.145470815215          0.878047962871
      0.3272304100D+00  0.1000000000D+01
 Atom H17      Shell   165 S   1     bf  449 -   449         -6.653519471016         -2.145470815215          0.878047962871
      0.1030724100D+00  0.1000000000D+01
 Atom H17      Shell   166 P   1     bf  450 -   452         -6.653519471016         -2.145470815215          0.878047962871
      0.8000000000D+00  0.1000000000D+01
 Atom H18      Shell   167 S   3     bf  453 -   453         -5.877168737068         -4.621314337760         -1.185366678341
      0.3406134100D+02  0.2543930721D-01
      0.5123574600D+01  0.1900859489D+00
      0.1164662600D+01  0.8524411301D+00
 Atom H18      Shell   168 S   1     bf  454 -   454         -5.877168737068         -4.621314337760         -1.185366678341
      0.3272304100D+00  0.1000000000D+01
 Atom H18      Shell   169 S   1     bf  455 -   455         -5.877168737068         -4.621314337760         -1.185366678341
      0.1030724100D+00  0.1000000000D+01
 Atom H18      Shell   170 P   1     bf  456 -   458         -5.877168737068         -4.621314337760         -1.185366678341
      0.8000000000D+00  0.1000000000D+01
 Atom H19      Shell   171 S   3     bf  459 -   459          2.282663187004         -6.357648798979          0.360365047671
      0.3406134100D+02  0.2543930721D-01
      0.5123574600D+01  0.1900859489D+00
      0.1164662600D+01  0.8524411301D+00
 Atom H19      Shell   172 S   1     bf  460 -   460          2.282663187004         -6.357648798979          0.360365047671
      0.3272304100D+00  0.1000000000D+01
 Atom H19      Shell   173 S   1     bf  461 -   461          2.282663187004         -6.357648798979          0.360365047671
      0.1030724100D+00  0.1000000000D+01
 Atom H19      Shell   174 P   1     bf  462 -   464          2.282663187004         -6.357648798979          0.360365047671
      0.8000000000D+00  0.1000000000D+01
 Atom H20      Shell   175 S   3     bf  465 -   465          6.092851426074         -1.516640655992          2.335355623673
      0.3406134100D+02  0.2543930721D-01
      0.5123574600D+01  0.1900859489D+00
      0.1164662600D+01  0.8524411301D+00
 Atom H20      Shell   176 S   1     bf  466 -   466          6.092851426074         -1.516640655992          2.335355623673
      0.3272304100D+00  0.1000000000D+01
 Atom H20      Shell   177 S   1     bf  467 -   467          6.092851426074         -1.516640655992          2.335355623673
      0.1030724100D+00  0.1000000000D+01
 Atom H20      Shell   178 P   1     bf  468 -   470          6.092851426074         -1.516640655992          2.335355623673
      0.8000000000D+00  0.1000000000D+01
 Atom H21      Shell   179 S   3     bf  471 -   471          6.653565349900         -2.145530125752         -0.877932802960
      0.3406134100D+02  0.2543930721D-01
      0.5123574600D+01  0.1900859489D+00
      0.1164662600D+01  0.8524411301D+00
 Atom H21      Shell   180 S   1     bf  472 -   472          6.653565349900         -2.145530125752         -0.877932802960
      0.3272304100D+00  0.1000000000D+01
 Atom H21      Shell   181 S   1     bf  473 -   473          6.653565349900         -2.145530125752         -0.877932802960
      0.1030724100D+00  0.1000000000D+01
 Atom H21      Shell   182 P   1     bf  474 -   476          6.653565349900         -2.145530125752         -0.877932802960
      0.8000000000D+00  0.1000000000D+01
 Atom H22      Shell   183 S   3     bf  477 -   477          5.877137569077         -4.621264179621          1.185585773189
      0.3406134100D+02  0.2543930721D-01
      0.5123574600D+01  0.1900859489D+00
      0.1164662600D+01  0.8524411301D+00
 Atom H22      Shell   184 S   1     bf  478 -   478          5.877137569077         -4.621264179621          1.185585773189
      0.3272304100D+00  0.1000000000D+01
 Atom H22      Shell   185 S   1     bf  479 -   479          5.877137569077         -4.621264179621          1.185585773189
      0.1030724100D+00  0.1000000000D+01
 Atom H22      Shell   186 P   1     bf  480 -   482          5.877137569077         -4.621264179621          1.185585773189
      0.8000000000D+00  0.1000000000D+01
 Atom H23      Shell   187 S   3     bf  483 -   483         -2.282644138565          6.357648987953          0.360442526443
      0.3406134100D+02  0.2543930721D-01
      0.5123574600D+01  0.1900859489D+00
      0.1164662600D+01  0.8524411301D+00
 Atom H23      Shell   188 S   1     bf  484 -   484         -2.282644138565          6.357648987953          0.360442526443
      0.3272304100D+00  0.1000000000D+01
 Atom H23      Shell   189 S   1     bf  485 -   485         -2.282644138565          6.357648987953          0.360442526443
      0.1030724100D+00  0.1000000000D+01
 Atom H23      Shell   190 P   1     bf  486 -   488         -2.282644138565          6.357648987953          0.360442526443
      0.8000000000D+00  0.1000000000D+01
 Atom H24      Shell   191 S   3     bf  489 -   489         -6.653523624744          2.145490630480         -0.878044296802
      0.3406134100D+02  0.2543930721D-01
      0.5123574600D+01  0.1900859489D+00
      0.1164662600D+01  0.8524411301D+00
 Atom H24      Shell   192 S   1     bf  490 -   490         -6.653523624744          2.145490630480         -0.878044296802
      0.3272304100D+00  0.1000000000D+01
 Atom H24      Shell   193 S   1     bf  491 -   491         -6.653523624744          2.145490630480         -0.878044296802
      0.1030724100D+00  0.1000000000D+01
 Atom H24      Shell   194 P   1     bf  492 -   494         -6.653523624744          2.145490630480         -0.878044296802
      0.8000000000D+00  0.1000000000D+01
 Atom H25      Shell   195 S   3     bf  495 -   495         -5.877163874069          4.621309722019          1.185393021123
      0.3406134100D+02  0.2543930721D-01
      0.5123574600D+01  0.1900859489D+00
      0.1164662600D+01  0.8524411301D+00
 Atom H25      Shell   196 S   1     bf  496 -   496         -5.877163874069          4.621309722019          1.185393021123
      0.3272304100D+00  0.1000000000D+01
 Atom H25      Shell   197 S   1     bf  497 -   497         -5.877163874069          4.621309722019          1.185393021123
      0.1030724100D+00  0.1000000000D+01
 Atom H25      Shell   198 P   1     bf  498 -   500         -5.877163874069          4.621309722019          1.185393021123
      0.8000000000D+00  0.1000000000D+01
 Atom H26      Shell   199 S   3     bf  501 -   501         -6.092917415319          1.516735331266          2.335289483258
      0.3406134100D+02  0.2543930721D-01
      0.5123574600D+01  0.1900859489D+00
      0.1164662600D+01  0.8524411301D+00
 Atom H26      Shell   200 S   1     bf  502 -   502         -6.092917415319          1.516735331266          2.335289483258
      0.3272304100D+00  0.1000000000D+01
 Atom H26      Shell   201 S   1     bf  503 -   503         -6.092917415319          1.516735331266          2.335289483258
      0.1030724100D+00  0.1000000000D+01
 Atom H26      Shell   202 P   1     bf  504 -   506         -6.092917415319          1.516735331266          2.335289483258
      0.8000000000D+00  0.1000000000D+01
 Atom H27      Shell   203 S   3     bf  507 -   507          2.282663967650          6.357649386158         -0.360374609685
      0.3406134100D+02  0.2543930721D-01
      0.5123574600D+01  0.1900859489D+00
      0.1164662600D+01  0.8524411301D+00
 Atom H27      Shell   204 S   1     bf  508 -   508          2.282663967650          6.357649386158         -0.360374609685
      0.3272304100D+00  0.1000000000D+01
 Atom H27      Shell   205 S   1     bf  509 -   509          2.282663967650          6.357649386158         -0.360374609685
      0.1030724100D+00  0.1000000000D+01
 Atom H27      Shell   206 P   1     bf  510 -   512          2.282663967650          6.357649386158         -0.360374609685
      0.8000000000D+00  0.1000000000D+01
 Atom H28      Shell   207 S   3     bf  513 -   513          6.653563085889          2.145539034332          0.877942138207
      0.3406134100D+02  0.2543930721D-01
      0.5123574600D+01  0.1900859489D+00
      0.1164662600D+01  0.8524411301D+00
 Atom H28      Shell   208 S   1     bf  514 -   514          6.653563085889          2.145539034332          0.877942138207
      0.3272304100D+00  0.1000000000D+01
[...]
 0004203,-0.00005578,-0.00010245,0.00000329,-0.00001791,0.00006149,-0.0
 0065286,-0.00277844,-0.00120009,-0.00005774,-0.00197120,0.00035723,-0.
 00008192,-0.00000534,-0.00006088,0.00004078,0.00000385,-0.00001290,0.0
 0002406,0.00000013,-0.00001691,0.00002537,0.00000399,0.00000659,0.0000
 0252,-0.00000228,-0.00000046,0.00015258,0.00023508,-0.00055982,-0.0414
 6809,0.07032462,0.00016231,-0.00003504,-0.00007786,-0.00017672,-0.0001
 1069,0.00005060,0.00019721,-0.00073782,0.00028223,0.00021629,-0.002518
 57,-0.00037377,0.00006645,0.00007326,-0.00005114,0.00000572,-0.0000258
 6,0.00000098,0.00005265,0.00005130,-0.00015625,-0.00000937,0.00004128,
 -0.00001138,-0.00006750,0.00006756,0.00000847,-0.00449365,0.00379446,0
 .00935017,-0.00091434,0.00017556,-0.00030740,0.12158404,-0.05096536,-0
 .21392568,0.00011238,0.00026191,-0.00060289,0.00000059,0.00000652,0.00
 002720,0.00003209,0.00005962,0.00003836,-0.00015382,-0.00190995,0.0007
 3644,0.00000365,0.00035738,-0.00105297,-0.00049384,-0.00052376,-0.0000
 2898,-0.00001231,-0.00000294,-0.00000443,-0.00001031,-0.00000556,0.000
 00573,-0.00001415,-0.00000659,0.00000567,0.00000606,0.00000257,-0.0000
 0215,-0.00000953,0.00015444,0.00011957,-0.13277143,0.06029992,0.230899
 13,-0.00036583,0.00051036,0.00007568,0.00009994,-0.00009878,-0.0000095
 3,-0.00513779,0.00167795,-0.00138881,-0.00034797,0.00098864,0.00011850
 ,0.00007323,0.00000121,-0.00003633,-0.00045775,0.00025749,0.00015654,-
 0.00007474,-0.00156329,0.00013234,0.00000715,-0.00015157,0.00004264,0.
 00015491,0.00013719,-0.00004138,-0.00951499,-0.03176006,-0.00786383,-0
 .00002041,-0.00284827,-0.00010942,-0.05418774,-0.04363397,-0.01101135,
 -0.00007261,0.00008188,0.00006352,0.00003391,0.00007502,-0.00000188,-0
 .00001776,-0.00006865,-0.00000172,0.00002483,0.00003314,-0.00036236,0.
 00027876,0.00008201,0.00049386,0.00026767,0.00028124,0.00008139,0.0000
 0873,-0.00001403,-0.00000670,-0.00000248,0.00000297,0.00000208,0.00000
 215,0.00000252,-0.00000606,-0.00005455,-0.00001294,0.00001047,-0.00069
 955,0.00142390,-0.00030781,0.00353777,0.01768194,0.00263634,0.06556723
 ,0.00040765,0.00029040,0.00002639,-0.00010018,-0.00003074,0.00002749,-
 0.00034984,0.00081488,-0.00024437,0.00048691,-0.00080676,0.00012562,0.
 00004882,0.00004449,0.00000257,-0.00011910,0.00007901,0.00000502,0.000
 30687,-0.00048754,0.00000960,-0.00000261,-0.00000724,-0.00001011,0.000
 23420,0.00029551,-0.00001831,-0.00072847,-0.00406776,-0.00023362,0.004
 18656,0.00040471,0.00102664,-0.04867781,-0.29437079,-0.06127605,-0.000
 35739,0.00047719,0.00034763,0.00003850,0.00003760,-0.00007514,0.000018
 15,0.00000242,-0.00000290,0.00003060,0.00005898,0.00028539,-0.00037272
 ,-0.00000540,-0.00052377,-0.00028124,-0.00017565,-0.00018326,-0.000026
 27,-0.00001887,0.00000406,-0.00002292,0.00000134,0.00001467,-0.0000283
 0,-0.00000228,-0.00000257,-0.00001294,-0.00001153,0.00000550,0.0006718
 7,0.00083983,-0.00010212,-0.00105890,-0.00615571,-0.00106209,0.0488365
 6,0.31890322,0.00000599,0.00026644,-0.00008690,-0.00010509,-0.00011778
 ,-0.00000469,-0.00089480,0.00052448,0.00085702,0.00007237,-0.00012675,
 -0.00060767,0.00009732,0.00000687,-0.00004111,-0.00013237,0.00011190,-
 0.00008238,-0.00004202,-0.00035481,0.00021290,0.00000333,-0.00001975,0
 .00002452,0.00003729,0.00007147,0.00004816,-0.00068941,-0.00609259,-0.
 00238218,0.00039854,-0.00057665,0.00014803,-0.01221504,-0.06051550,-0.
 06403270,0.00005259,0.00013302,-0.00021939,0.00000376,0.00001833,0.000
 03308,0.00000349,0.00000531,0.00000165,-0.00011246,-0.00025499,0.00050
 446,0.00030289,-0.00006086,-0.00002898,-0.00008139,-0.00018327,0.00040
 564,-0.00000354,-0.00000736,0.00000527,-0.00000529,-0.00000118,0.00000
 178,-0.00000183,0.00000046,-0.00000215,-0.00001047,-0.00000550,0.00000
 639,-0.00035880,0.00052532,0.00045994,-0.00542024,-0.02463082,-0.00522
 806,0.01406426,0.06701351,0.06270134,-0.00027899,-0.00035949,-0.000394
 06,0.00004378,-0.00016194,0.00006977,0.00130936,0.00107734,0.00039179,
 -0.00000717,-0.00001979,0.00005531,0.00004036,-0.00009571,-0.00003582,
 0.00010874,0.00008513,-0.00001642,-0.00048870,0.00062202,0.00051859,0.
 00001523,-0.00003210,0.00004784,-0.00008885,0.00000687,-0.00009513,-0.
 01043648,0.01976470,-0.02484932,-0.00398527,-0.00152982,-0.00068808,-0
 .06509369,0.04049678,-0.05872311,-0.00065639,0.00040766,0.00170095,-0.
 00002342,-0.00018166,-0.00014223,0.00000859,-0.00002343,-0.00000724,0.
 00002911,-0.00007781,0.00007511,0.00075216,0.00065282,0.00015380,0.000
 02482,-0.00003061,0.00011246,0.00000741,-0.00001406,-0.00000901,0.0000
 0382,0.00001853,-0.00002184,0.00003046,0.00002406,0.00001031,-0.000002
 48,-0.00002292,0.00000529,0.00000335,0.00007649,-0.00078220,0.00505559
 ,-0.01129665,0.01413170,0.00086948,-0.00303769,0.00505908,0.07320707,-
 0.00004766,0.00061948,0.00053432,-0.00038435,-0.00037096,0.00016795,-0
 .00056311,-0.00034152,-0.00064761,0.00046231,-0.00208593,-0.00105426,0
 .00039459,-0.00012495,-0.00006713,0.00006342,0.00030453,0.00001742,0.0
 0036552,-0.00012137,0.00013392,-0.00000685,0.00000315,0.00001816,-0.00
 015274,0.00054541,-0.00004122,0.00004900,0.00295442,-0.00473049,0.0006
 3653,-0.00041357,0.00030660,0.04006662,-0.13408957,0.12109655,-0.00011
 033,-0.00006312,-0.00020774,0.00002551,-0.00001763,0.00009866,-0.00001
 173,0.00000959,-0.00003120,0.00007781,0.00020381,0.00010992,0.00014031
 ,-0.00277931,-0.00190997,-0.00003317,0.00005898,-0.00025498,0.00002147
 ,0.00000259,-0.00001741,0.00001853,-0.00000347,-0.00001335,0.00001812,
 0.00000013,0.00000556,0.00000297,0.00000134,0.00000118,-0.00002519,0.0
 0049445,0.00047779,-0.00254483,0.00397095,-0.00745265,0.00806316,-0.01
 610763,0.02426325,-0.04647059,0.14735125,-0.00080126,-0.00043861,-0.00
 012682,0.00047408,0.00003558,-0.00010959,0.00016851,0.00082790,0.00074
 683,-0.00058359,0.00069823,-0.00060592,-0.00019644,0.00003127,-0.00006
 226,0.00008079,-0.00015980,0.00002833,-0.00038409,0.00043377,-0.000053
 53,0.00001520,-0.00003584,0.00003221,-0.00000387,-0.00032972,-0.000032
 92,-0.00119848,0.00194771,-0.00266652,-0.00070750,-0.00067488,-0.00020
 991,-0.05796805,0.11905275,-0.20895116,0.00043494,0.00005713,0.0001059
 9,-0.00004016,-0.00009470,0.00002371,-0.00000835,-0.00005409,0.0000343
 3,-0.00007512,0.00010991,0.00005455,0.00080244,-0.00120035,0.00073640,
 0.00036237,0.00028537,0.00050446,0.00002595,-0.00000139,-0.00000392,0.
 00002184,0.00001335,-0.00001873,0.00002919,0.00001691,0.00000573,-0.00
 000208,-0.00001467,0.00000178,0.00006480,0.00003824,-0.00000141,-0.007
 13672,0.01532325,-0.01972720,0.00329622,-0.00513624,0.00736261,0.06349
 667,-0.13079316,0.22295113,0.00006654,0.00033608,0.00015257,-0.0002578
 3,-0.00010757,0.00001198,-0.00035002,-0.00098043,-0.00004793,0.0000181
 7,-0.00000539,-0.00000498,0.00016094,-0.00026294,0.00011797,0.00054349
 ,-0.00024273,0.00009255,-0.00136432,-0.00293012,-0.00093679,0.00008450
 ,0.00001517,-0.00002492,0.00820512,-0.01424825,0.00097263,-0.00506046,
 -0.00149931,-0.00186667,-0.01019427,0.02959946,-0.00251240,-0.00041959
 ,0.00119545,0.00026928,-0.12008038,0.11679838,-0.01716633,0.00033867,-
 0.00285978,0.00092624,-0.00000122,0.00001466,-0.00001430,0.00000741,-0
 .00002147,-0.00002595,0.00001571,-0.00004078,0.00001231,0.00000873,0.0
 0002627,0.00000354,0.00004135,-0.00005747,-0.00003045,0.00000859,-0.00
 001173,0.00000835,-0.00000716,0.00000329,-0.00003209,-0.00001776,0.000
 01815,-0.00000349,0.00053389,-0.00042204,0.00058409,-0.00031897,0.0000
 0647,-0.00006943,0.00005064,-0.00007252,-0.00000261,-0.00028604,-0.000
 00116,-0.00006898,0.12912982,0.00003096,0.00027996,-0.00003780,-0.0002
 3755,-0.00003490,0.00003594,-0.00074063,-0.00009385,-0.00014876,0.0000
 1149,-0.00002076,0.00000201,-0.00022841,-0.00051824,0.00005759,0.00136
 808,-0.00045407,0.00000231,-0.00420576,-0.00288854,0.00035119,0.000121
 04,0.00005989,-0.00003297,0.01535395,-0.02031782,0.00297054,-0.0006200
 2,0.00192516,0.00028008,-0.00228666,0.00311733,-0.00046703,-0.00008999
 ,-0.00007349,0.00001744,0.11386436,-0.27124133,0.02527943,0.00226525,0
 .00010057,0.00058709,0.00001466,-0.00002285,0.00000573,0.00001406,0.00
 000259,-0.00000139,0.00001554,0.00000385,-0.00000294,0.00001403,-0.000
 01887,-0.00000736,0.00005747,-0.00015100,-0.00002283,-0.00002343,0.000
 00959,0.00005409,-0.00007195,-0.00001791,-0.00005963,-0.00006865,0.000
 00242,-0.00000531,0.00042205,0.00078947,-0.00008682,0.00002940,-0.0000
 2365,0.00001674,-0.00000005,-0.00000703,-0.00000235,0.00005353,-0.0000
 1666,0.00000728,-0.12345043,0.28804079,-0.00008294,0.00063523,-0.00071
 137,-0.00047767,-0.00014727,0.00018195,-0.00053660,-0.00111580,-0.0009
 6237,0.00004234,0.00000889,0.00003047,0.00026581,-0.00039158,-0.000709
 58,0.00028303,0.00048175,0.00020120,0.00002151,-0.00139959,0.00820219,
 -0.00003833,0.00001990,0.00008419,-0.00032211,0.00230710,0.00439242,-0
 .00183035,0.00053244,0.00533728,-0.00010573,0.00360762,0.00217706,0.00
 007830,0.00026485,0.00008342,-0.01905675,0.02467125,-0.04063073,0.0014
 4276,-0.00152811,-0.00530687,0.00001430,-0.00000573,0.00010206,0.00000
 901,-0.00001741,-0.00000392,0.00000003,-0.00001290,-0.00000443,0.00000
 670,0.00000406,0.00000527,0.00003045,-0.00002283,-0.00003297,0.0000072
 4,0.00003120,0.00003433,0.00008437,-0.00006149,0.00003837,0.00000172,0
 .00000290,0.00000165,0.00058409,0.00008676,-0.00255322,-0.00009014,-0.
 00006443,0.00003456,-0.00001086,-0.00002227,-0.00004372,-0.00002551,0.
 00002556,0.00001528,0.01995932,-0.02807425,0.02945940,0.00017090,-0.00
 004218,0.00001891,0.00000708,0.00006226,0.00012152,-0.00006644,-0.0002
 0790,-0.00101068,-0.00001340,0.00002551,-0.00003308,0.00031751,0.00012
 097,-0.00010710,-0.00068208,0.00037567,0.00055957,0.00001400,-0.000443
 62,-0.00037770,-0.00013086,-0.00051159,0.00092467,-0.01792182,-0.00983
 847,0.02371531,-0.00001355,-0.00048316,0.00028354,-0.00050052,-0.00024
 586,-0.00186456,-0.00011809,0.00012337,0.00021106,-0.00234569,0.001960
 59,-0.00064556,-0.13463742,-0.03556768,0.12407462,0.00001571,0.0000155
 4,-0.00000003,0.00003046,-0.00001812,-0.00002919,0.00000814,-0.0000253
 7,0.00001414,0.00000215,0.00002830,0.00000183,-0.00000716,0.00007195,-
 0.00008436,0.00075218,0.00014032,-0.00080246,0.00009910,-0.00005772,-0
 .00000364,0.00027877,-0.00037274,-0.00030289,-0.00031897,-0.00002940,-
 0.00009014,-0.00012863,-0.00000083,-0.00000961,0.00000207,0.00000981,-
 0.00001417,-0.00006694,-0.00004687,-0.00005664,-0.00015934,-0.00011193
 ,0.00083602,0.14681948,-0.00008537,0.00022358,-0.00002003,-0.00024851,
 -0.00008515,0.00009013,-0.00050206,-0.00033392,0.00015925,0.00000914,-
 0.00001533,0.00000030,-0.00001654,-0.00030512,-0.00000279,0.00065643,0
 .00086670,-0.00019447,0.00077154,-0.00086940,0.00048578,0.00032306,-0.
 00358223,0.00051962,0.00028695,0.00099659,-0.00438702,0.00010634,0.000
 76055,-0.00007983,0.00048057,-0.00028792,-0.00048280,-0.00004204,-0.00
 005578,0.00010245,-0.00131166,-0.00012383,-0.00030110,-0.03609459,-0.0
 6078468,0.05358841,-0.00004078,0.00000385,0.00001290,-0.00002405,0.000
 00013,0.00001691,-0.00002537,0.00000399,-0.00000659,-0.00000252,-0.000
 00228,0.00000046,-0.00000329,-0.00001790,-0.00006149,0.00065285,-0.002
 77884,0.00120032,0.00005768,-0.00197160,-0.00035731,0.00008201,-0.0000
 0540,0.00006087,-0.00000647,-0.00002365,0.00006443,0.00000083,0.000004
 41,-0.00000972,-0.00000318,-0.00001227,0.00000172,0.00005103,0.0000185
 3,0.00003004,-0.00015258,0.00023509,0.00055982,0.04146566,0.07032639,0
 .00000572,0.00002585,0.00000098,0.00006646,-0.00007326,-0.00005114,0.0
 0005266,-0.00005129,-0.00015623,-0.00000937,-0.00004128,-0.00001138,-0
 .00017673,0.00011070,0.00005060,0.00016230,0.00003503,-0.00007786,0.00
 019717,0.00073784,0.00028221,0.00021633,0.00251882,-0.00037382,-0.0044
 9377,-0.00379434,0.00935041,-0.00006750,-0.00006757,0.00000847,0.00011
 236,-0.00026192,-0.00060288,0.00000059,-0.00000652,0.00002720,-0.00091
 432,-0.00017554,-0.00030740,0.12158487,0.05096267,-0.21392674,-0.00001
 231,0.00000294,-0.00000443,-0.00001031,0.00000556,0.00000573,-0.000014
 15,0.00000659,0.00000567,0.00000606,-0.00000257,-0.00000215,0.00003209
 ,-0.00005963,0.00003836,-0.00015382,0.00191001,0.00073637,0.00000365,-
 0.00035722,-0.00105301,-0.00049387,0.00052379,-0.00002899,-0.00006943,
 -0.00001674,0.00003456,-0.00000961,0.00000972,-0.00000366,-0.00000191,
 0.00000570,-0.00000347,0.00000044,-0.00000980,-0.00000182,-0.00000952,
 -0.00015445,0.00011956,-0.13277242,-0.06029745,0.23090055,-0.00045775,
 -0.00025749,0.00015654,0.00007323,-0.00000120,-0.00003633,-0.00007476,
 0.00156329,0.00013232,0.00000715,0.00015157,0.00004264,0.00009995,0.00
 009877,-0.00000953,-0.00036583,-0.00051036,0.00007569,-0.00513785,-0.0
 0167793,-0.00138883,-0.00034798,-0.00098865,0.00011849,-0.00951493,0.0
 3175997,-0.00786444,0.00015491,-0.00013719,-0.00004138,-0.00007262,-0.
 00008187,0.00006352,0.00003390,-0.00007502,-0.00000188,-0.00002037,0.0
 0284826,-0.00010945,-0.05418770,0.04363353,-0.01101217,0.00000873,0.00
 001403,-0.00000670,-0.00000248,-0.00000297,0.00000208,0.00000215,-0.00
 000252,-0.00000606,-0.00005455,0.00001294,0.00001047,-0.00001776,0.000
 06865,-0.00000172,0.00002482,-0.00003313,-0.00036238,0.00027877,-0.000
 08196,0.00049386,0.00026768,-0.00028124,0.00008140,0.00005064,0.000000
 05,-0.00001086,0.00000207,0.00000318,-0.00000191,-0.00002874,-0.000013
 41,-0.00001265,0.00000444,-0.00000420,-0.00000126,-0.00069954,-0.00142
 390,-0.00030779,0.00353778,-0.01768211,0.00263676,0.06556720,0.0001190
 9,0.00007901,-0.00000502,-0.00004882,0.00004449,-0.00000257,-0.0003068
 7,-0.00048753,-0.00000959,0.00000261,-0.00000724,0.00001011,0.00010018
 ,-0.00003074,-0.00002749,-0.00040766,0.00029040,-0.00002639,0.00034985
 ,0.00081486,0.00024438,-0.00048692,-0.00080679,-0.00012564,0.00072841,
 -0.00406767,0.00023364,-0.00023420,0.00029551,0.00001831,0.00035740,0.
 00047718,-0.00034765,-0.00003850,0.00003760,0.00007514,-0.00418654,0.0
 0040470,-0.00102666,0.04867740,-0.29436837,0.06128052,0.00002627,-0.00
 001887,-0.00000406,0.00002292,0.00000134,-0.00001467,0.00002830,-0.000
 00228,0.00000257,0.00001294,-0.00001153,-0.00000550,-0.00001815,0.0000
 0242,0.00000290,-0.00003061,0.00005899,-0.00028538,0.00037274,-0.00000
 536,0.00052378,0.00028124,-0.00017565,0.00018328,0.00007252,-0.0000070
 3,0.00002227,-0.00000981,-0.00001227,-0.00000570,0.00001341,0.00001975
 ,0.00000592,0.00001420,-0.00000213,0.00000105,-0.00067187,0.00083982,0
 .00010211,0.00105879,-0.00615531,0.00106214,-0.04883611,0.31890068,-0.
 00013237,-0.00011190,-0.00008238,0.00009733,-0.00000687,-0.00004111,-0
 .00004201,0.00035482,0.00021290,0.00000333,0.00001975,0.00002452,-0.00
 010508,0.00011778,-0.00000469,0.00000598,-0.00026645,-0.00008689,-0.00
 089485,-0.00052447,0.00085700,0.00007239,0.00012668,-0.00060763,-0.000
 68942,0.00609274,-0.00238230,0.00003729,-0.00007147,0.00004815,0.00005
 258,-0.00013303,-0.00021938,0.00000376,-0.00001833,0.00003308,0.000398
 62,0.00057667,0.00014805,-0.01221598,0.06051990,-0.06403520,-0.0000035
 4,0.00000736,0.00000527,-0.00000529,0.00000118,0.00000178,-0.00000183,
 -0.00000046,-0.00000215,-0.00001047,0.00000550,0.00000639,0.00000349,-
 0.00000531,0.00000165,-0.00011245,0.00025497,0.00050447,0.00030289,0.0
 0006088,-0.00002900,-0.00008140,0.00018327,0.00040563,-0.00000261,0.00
 000234,-0.00004372,-0.00001417,-0.00000172,-0.00000347,-0.00001265,-0.
 00000592,-0.00000412,0.00000127,-0.00000213,-0.00000526,-0.00035879,-0
 .00052534,0.00045994,-0.00542023,0.02463091,-0.00522861,0.01406520,-0.
 06701850,0.06270404,0.00010874,-0.00008514,-0.00001643,0.00004036,0.00
 009571,-0.00003581,-0.00048866,-0.00062201,0.00051860,0.00001523,0.000
 03210,0.00004784,0.00004377,0.00016195,0.00006976,-0.00027898,0.000359
 49,-0.00039404,0.00130937,-0.00107734,0.00039181,-0.00000717,0.0000197
 4,0.00005534,-0.01043649,-0.01976524,-0.02484911,-0.00008885,-0.000006
 88,-0.00009512,-0.00065639,-0.00040763,0.00170094,-0.00002342,0.000181
 65,-0.00014223,-0.00398530,0.00152982,-0.00068809,-0.06509328,-0.04049
 734,-0.05872160,0.00000741,0.00001406,-0.00000901,0.00000382,-0.000018
 54,-0.00002184,0.00003046,-0.00002405,0.00001031,-0.00000248,0.0000229
 2,0.00000529,0.00000859,0.00002343,-0.00000724,0.00002911,0.00007779,0
 .00007512,0.00075220,-0.00065287,0.00015383,0.00002482,0.00003061,0.00
 011246,-0.00028604,-0.00005353,-0.00002551,-0.00006694,-0.00005103,0.0
 0000045,0.00000444,-0.00001420,0.00000127,-0.00009935,-0.00000309,-0.0
 0004040,0.00000335,-0.00007650,-0.00078220,0.00505558,0.01129704,0.014
 13159,0.00086944,0.00303778,0.00505902,0.07320666,-0.00006342,0.000304
 53,-0.00001741,-0.00039459,-0.00012495,0.00006713,-0.00036554,-0.00012
 138,-0.00013393,0.00000685,0.00000315,-0.00001816,0.00038435,-0.000370
 96,-0.00016795,0.00004769,0.00061939,-0.00053433,0.00056313,-0.0003415
 4,0.00064765,-0.00046239,-0.00208572,0.00105435,-0.00004906,0.00295441
 ,0.00473039,0.00015274,0.00054541,0.00004121,0.00011033,-0.00006312,0.
 00020774,-0.00002551,-0.00001763,-0.00009866,-0.00063655,-0.00041356,-
 0.00030661,-0.04006717,-0.13409359,-0.12109806,-0.00002147,0.00000259,
 0.00001741,-0.00001853,-0.00000347,0.00001335,-0.00001812,0.00000013,-
 0.00000556,-0.00000297,0.00000134,-0.00000118,0.00001173,0.00000959,0.
 00003120,-0.00007780,0.00020382,-0.00010990,-0.00014033,-0.00277832,0.
 00191000,0.00003312,0.00005899,0.00025497,0.00000116,-0.00001666,-0.00
 002556,0.00004687,0.00001853,0.00000980,0.00000420,-0.00000213,0.00000
 213,0.00000309,-0.00000080,0.00002372,0.00002520,0.00049444,-0.0004777
 9,0.00254469,0.00397080,0.00745221,-0.00806298,-0.01610798,-0.02426284
 ,0.04647130,0.14735469,0.00008080,0.00015979,0.00002833,-0.00019644,-0
 .00003127,-0.00006226,-0.00038408,-0.00043377,-0.00005351,0.00001520,0
 .00003584,0.00003221,0.00047409,-0.00003557,-0.00010959,-0.00080129,0.
 00043862,-0.00012682,0.00016854,-0.00082789,0.00074684,-0.00058357,-0.
 00069818,-0.00060593,-0.00119853,-0.00194791,-0.00266672,-0.00000387,0
 .00032971,-0.00003293,0.00043494,-0.00005714,0.00010600,-0.00004016,0.
 00009470,0.00002371,-0.00070751,0.00067488,-0.00020993,-0.05796654,-0.
 11905391,-0.20894672,0.00002595,0.00000139,-0.00000392,0.00002184,-0.0
 0001335,-0.00001873,0.00002919,-0.00001691,0.00000573,-0.00000208,0.00
 001467,0.00000178,-0.00000835,0.00005409,0.00003433,-0.00007511,-0.000
 10990,0.00005455,0.00080244,0.00120016,0.00073640,0.00036237,-0.000285
 39,0.00050447,-0.00006898,-0.00000728,0.00001528,-0.00005664,-0.000030
 04,-0.00000182,-0.00000126,-0.00000105,-0.00000526,-0.00004040,-0.0000
 2372,-0.00002636,0.00006480,-0.00003825,-0.00000140,-0.00713673,-0.015
 32374,-0.01972706,0.00329636,0.00513671,0.00736303,0.06349504,0.130794
 67,0.22294632\\-0.00000075,-0.00000020,0.00000017,0.00000032,-0.000000
 16,-0.00000028,0.00000064,0.00000008,-0.00000039,0.00000080,0.00000042
 ,0.00000029,-0.00000051,-0.00000002,0.00000048,0.00000094,-0.00000028,
 -0.00000031,-0.00000099,0.,-0.00000006,-0.00000087,0.00000041,-0.00000
 036,0.00000100,0.00000022,0.00000020,-0.00000067,0.00000020,-0.0000002
 3,0.00000026,0.00000016,0.00000050,0.00000088,-0.00000039,-0.00000050,
 -0.00000054,0.00000002,-0.00000038,-0.00000086,-0.00000041,0.00000031,
 0.00000002,-0.00000004,0.00000002,-0.00000034,-0.00000019,-0.00000014,
 -0.00000012,-0.00000002,0.00000011,-0.00000003,-0.00000022,-0.00000011
 ,0.00000003,0.,-0.00000006,0.00000031,-0.00000002,0.00000009,0.0000002
 8,-0.00000035,0.00000025,0.00000002,-0.00000015,0.00000010,0.00000002,
 0.00000004,-0.00000005,-0.00000021,0.00000034,0.00000021,0.,0.00000020
 ,0.00000012,-0.00000026,-0.00000017,0.00000021,0.00000003,0.,0.0000000
 5,0.00000023,0.00000018,-0.00000010,0.00000003,0.00000015,-0.00000009,
 0.00000036,0.00000021,-0.00000006\\\@


 THERE IS NO CURE FOR BIRTH AND DEATH SAVE TO ENJOY THE INTERVAL.

                               -- GEORGE SANTAYANA
 Job cpu time:       0 days 20 hours 46 minutes 25.8 seconds.
 File lengths (MBytes):  RWF=    710 Int=      0 D2E=      0 Chk=     21 Scr=      1
 Normal termination of Gaussian 09 at Fri Jul  9 21:48:17 2021.
