 Entering Gaussian System, Link 0=g09
 Initial command:
 /home/minenky/programs//g09/l1.exe "/local/scratch/minenky/m1_00_120-12-7-C14H10_wB97XD/Gau-100298.inp" -scrdir="/local/scratch/minenky/m1_00_120-12-7-C14H10_wB97XD/"
 Entering Link 1 = /home/minenky/programs//g09/l1.exe PID=    100312.
  
 Copyright (c) 1988,1990,1992,1993,1995,1998,2003,2009,2013,
            Gaussian, Inc.  All Rights Reserved.
  
 This is part of the Gaussian(R) 09 program.  It is based on
 the Gaussian(R) 03 system (copyright 2003, Gaussian, Inc.),
 the Gaussian(R) 98 system (copyright 1998, Gaussian, Inc.),
 the Gaussian(R) 94 system (copyright 1995, Gaussian, Inc.),
 the Gaussian 92(TM) system (copyright 1992, Gaussian, Inc.),
 the Gaussian 90(TM) system (copyright 1990, Gaussian, Inc.),
 the Gaussian 88(TM) system (copyright 1988, Gaussian, Inc.),
 the Gaussian 86(TM) system (copyright 1986, Carnegie Mellon
 University), and the Gaussian 82(TM) system (copyright 1983,
 Carnegie Mellon University). Gaussian is a federally registered
 trademark of Gaussian, Inc.
  
 This software contains proprietary and confidential information,
 including trade secrets, belonging to Gaussian, Inc.
  
 This software is provided under written license and may be
 used, copied, transmitted, or stored only in accord with that
 written license.
  
 The following legend is applicable only to US Government
 contracts under FAR:
  
                    RESTRICTED RIGHTS LEGEND
  
 Use, reproduction and disclosure by the US Government is
 subject to restrictions as set forth in subparagraphs (a)
 and (c) of the Commercial Computer Software - Restricted
 Rights clause in FAR 52.227-19.
  
 Gaussian, Inc.
 340 Quinnipiac St., Bldg. 40, Wallingford CT 06492
  
  
 ---------------------------------------------------------------
 Warning -- This program may not be used in any manner that
 competes with the business of Gaussian, Inc. or will provide
 assistance to any competitor of Gaussian, Inc.  The licensee
 of this program is prohibited from giving any competitor of
 Gaussian, Inc. access to this program.  By using this program,
 the user acknowledges that Gaussian, Inc. is engaged in the
 business of creating and licensing software in the field of
 computational chemistry and represents and warrants to the
 licensee that it is not a competitor of Gaussian, Inc. and that
 it will not use this program in any manner prohibited above.
 ---------------------------------------------------------------
  

 Cite this work as:
 Gaussian 09, Revision D.01,
 M. J. Frisch, G. W. Trucks, H. B. Schlegel, G. E. Scuseria, 
 M. A. Robb, J. R. Cheeseman, G. Scalmani, V. Barone, B. Mennucci, 
 G. A. Petersson, H. Nakatsuji, M. Caricato, X. Li, H. P. Hratchian, 
 A. F. Izmaylov, J. Bloino, G. Zheng, J. L. Sonnenberg, M. Hada, 
 M. Ehara, K. Toyota, R. Fukuda, J. Hasegawa, M. Ishida, T. Nakajima, 
 Y. Honda, O. Kitao, H. Nakai, T. Vreven, J. A. Montgomery, Jr., 
 J. E. Peralta, F. Ogliaro, M. Bearpark, J. J. Heyd, E. Brothers, 
 K. N. Kudin, V. N. Staroverov, T. Keith, R. Kobayashi, J. Normand, 
 K. Raghavachari, A. Rendell, J. C. Burant, S. S. Iyengar, J. Tomasi, 
 M. Cossi, N. Rega, J. M. Millam, M. Klene, J. E. Knox, J. B. Cross, 
 V. Bakken, C. Adamo, J. Jaramillo, R. Gomperts, R. E. Stratmann, 
 O. Yazyev, A. J. Austin, R. Cammi, C. Pomelli, J. W. Ochterski, 
 R. L. Martin, K. Morokuma, V. G. Zakrzewski, G. A. Voth, 
 P. Salvador, J. J. Dannenberg, S. Dapprich, A. D. Daniels, 
 O. Farkas, J. B. Foresman, J. V. Ortiz, J. Cioslowski, 
 and D. J. Fox, Gaussian, Inc., Wallingford CT, 2013.
 
 ******************************************
 Gaussian 09:  AM64L-G09RevD.01 24-Apr-2013
                 9-Jul-2021 
 ******************************************
 %Mem=32000MB
 %NProcShared=16
 Will use up to   16 processors via shared memory.
 %Chk=m1_00_120-12-7-C14H10_wB97XD
 ----------------------------------------------------------------------
 #P wB97XD/def2tzvp opt=(tight) freq integral(Grid=ultrafine) # SCF(Max
 Cycle=380) 5d 7f GFPrint
 ----------------------------------------------------------------------
 1/7=10,14=-1,18=20,19=15,26=4,38=1/1,3;
 2/9=110,12=2,17=6,18=5,40=1/2;
 3/5=44,7=101,8=11,11=2,16=1,24=100,25=1,30=1,71=1,74=-58,75=-5/1,2,3;
 4//1;
 5/5=2,7=380,38=5/2;
 6/7=2,8=2,9=2,10=2,28=1/1;
 7//1,2,3,16;
 1/7=10,14=-1,18=20,19=15,26=4/3(2);
 2/9=110/2;
 99//99;
 2/9=110/2;
 3/5=44,7=101,8=11,11=2,16=1,25=1,30=1,71=1,74=-58,75=-5/1,2,3;
 4/5=5,16=3,69=1/1;
 5/5=2,7=380,38=5/2;
 7//1,2,3,16;
 1/7=10,14=-1,18=20,19=15,26=4/3(-5);
 2/9=110/2;
 6/7=2,8=2,9=2,10=2,19=2,28=1/1;
 99/9=1/99;
 Leave Link    1 at Fri Jul  9 19:19:35 2021, MaxMem=  4194304000 cpu:         1.2
 (Enter /home/minenky/programs//g09/l101.exe)
 ---------------------------------------
 The PBEPBE optimization and frequencies
 ---------------------------------------
 Symbolic Z-matrix:
 Charge =  0 Multiplicity = 1
 C                     1.21784  -0.71953   0. 
 C                     1.21784   0.71953   0. 
 C                     0.       -1.39812   0. 
 C                     2.46856  -1.40116   0. 
 C                    0.         1.39812   0. 
 C                     2.46856   1.40116   0. 
 C                    -1.21783  -0.71953   0. 
 C                     3.64381  -0.71049   0. 
 C                    -1.21784   0.71953   0. 
 C                     3.64381   0.71049   0. 
 C                    -2.46856  -1.40116   0. 
 C                    -2.46856   1.40116   0. 
 C                    -3.64381  -0.71049   0. 
 C                    -3.64381   0.71049   0. 
 H                     0.       -2.48221   0. 
 H                     2.46657  -2.48441   0. 
 H                     0.        2.48221   0. 
 H                     2.46657   2.48441   0. 
 H                     4.58677  -1.2418    0. 
 H                     4.58677   1.2418    0. 
 H                    -2.46657  -2.48441   0. 
 H                    -2.46657   2.48441   0. 
 H                    -4.58677  -1.2418    0. 
 H                    -4.58677   1.2418    0. 
 
 NAtoms=     24 NQM=       24 NQMF=       0 NMMI=      0 NMMIF=      0
                NMic=       0 NMicF=      0.
                    Isotopes and Nuclear Properties:
 (Nuclear quadrupole moments (NQMom) in fm**2, nuclear magnetic moments (NMagM)
  in nuclear magnetons)

  Atom         1           2           3           4           5           6           7           8           9          10
 IAtWgt=          12          12          12          12          12          12          12          12          12          12
 AtmWgt=  12.0000000  12.0000000  12.0000000  12.0000000  12.0000000  12.0000000  12.0000000  12.0000000  12.0000000  12.0000000
 NucSpn=           0           0           0           0           0           0           0           0           0           0
 AtZEff=   0.0000000   0.0000000   0.0000000   0.0000000   0.0000000   0.0000000   0.0000000   0.0000000   0.0000000   0.0000000
 NQMom=    0.0000000   0.0000000   0.0000000   0.0000000   0.0000000   0.0000000   0.0000000   0.0000000   0.0000000   0.0000000
 NMagM=    0.0000000   0.0000000   0.0000000   0.0000000   0.0000000   0.0000000   0.0000000   0.0000000   0.0000000   0.0000000
 AtZNuc=   6.0000000   6.0000000   6.0000000   6.0000000   6.0000000   6.0000000   6.0000000   6.0000000   6.0000000   6.0000000

  Atom        11          12          13          14          15          16          17          18          19          20
 IAtWgt=          12          12          12          12           1           1           1           1           1           1
 AtmWgt=  12.0000000  12.0000000  12.0000000  12.0000000   1.0078250   1.0078250   1.0078250   1.0078250   1.0078250   1.0078250
 NucSpn=           0           0           0           0           1           1           1           1           1           1
 AtZEff=   0.0000000   0.0000000   0.0000000   0.0000000   0.0000000   0.0000000   0.0000000   0.0000000   0.0000000   0.0000000
 NQMom=    0.0000000   0.0000000   0.0000000   0.0000000   0.0000000   0.0000000   0.0000000   0.0000000   0.0000000   0.0000000
 NMagM=    0.0000000   0.0000000   0.0000000   0.0000000   2.7928460   2.7928460   2.7928460   2.7928460   2.7928460   2.7928460
 AtZNuc=   6.0000000   6.0000000   6.0000000   6.0000000   1.0000000   1.0000000   1.0000000   1.0000000   1.0000000   1.0000000

  Atom        21          22          23          24
 IAtWgt=           1           1           1           1
 AtmWgt=   1.0078250   1.0078250   1.0078250   1.0078250
 NucSpn=           1           1           1           1
 AtZEff=   0.0000000   0.0000000   0.0000000   0.0000000
 NQMom=    0.0000000   0.0000000   0.0000000   0.0000000
 NMagM=    2.7928460   2.7928460   2.7928460   2.7928460
 AtZNuc=   1.0000000   1.0000000   1.0000000   1.0000000
 Leave Link  101 at Fri Jul  9 19:19:36 2021, MaxMem=  4194304000 cpu:         4.1
 (Enter /home/minenky/programs//g09/l103.exe)

 GradGradGradGradGradGradGradGradGradGradGradGradGradGradGradGradGradGrad
 Berny optimization.
 Initialization pass.
                           ----------------------------
                           !    Initial Parameters    !
                           ! (Angstroms and Degrees)  !
 --------------------------                            --------------------------
 ! Name  Definition              Value          Derivative Info.                !
 --------------------------------------------------------------------------------
 ! R1    R(1,2)                  1.4391         estimate D2E/DX2                !
 ! R2    R(1,3)                  1.3941         estimate D2E/DX2                !
 ! R3    R(1,4)                  1.4244         estimate D2E/DX2                !
 ! R4    R(2,5)                  1.3941         estimate D2E/DX2                !
 ! R5    R(2,6)                  1.4244         estimate D2E/DX2                !
 ! R6    R(3,7)                  1.3941         estimate D2E/DX2                !
 ! R7    R(3,15)                 1.0841         estimate D2E/DX2                !
 ! R8    R(4,8)                  1.3632         estimate D2E/DX2                !
 ! R9    R(4,16)                 1.0832         estimate D2E/DX2                !
 ! R10   R(5,9)                  1.3941         estimate D2E/DX2                !
 ! R11   R(5,17)                 1.0841         estimate D2E/DX2                !
 ! R12   R(6,10)                 1.3632         estimate D2E/DX2                !
 ! R13   R(6,18)                 1.0832         estimate D2E/DX2                !
 ! R14   R(7,9)                  1.4391         estimate D2E/DX2                !
 ! R15   R(7,11)                 1.4244         estimate D2E/DX2                !
 ! R16   R(8,10)                 1.421          estimate D2E/DX2                !
 ! R17   R(8,19)                 1.0823         estimate D2E/DX2                !
 ! R18   R(9,12)                 1.4244         estimate D2E/DX2                !
 ! R19   R(10,20)                1.0823         estimate D2E/DX2                !
 ! R20   R(11,13)                1.3632         estimate D2E/DX2                !
 ! R21   R(11,21)                1.0832         estimate D2E/DX2                !
 ! R22   R(12,14)                1.3632         estimate D2E/DX2                !
 ! R23   R(12,22)                1.0832         estimate D2E/DX2                !
 ! R24   R(13,14)                1.421          estimate D2E/DX2                !
 ! R25   R(13,23)                1.0823         estimate D2E/DX2                !
 ! R26   R(14,24)                1.0823         estimate D2E/DX2                !
 ! A1    A(2,1,3)              119.127          estimate D2E/DX2                !
 ! A2    A(2,1,4)              118.5901         estimate D2E/DX2                !
 ! A3    A(3,1,4)              122.2829         estimate D2E/DX2                !
 ! A4    A(1,2,5)              119.1271         estimate D2E/DX2                !
 ! A5    A(1,2,6)              118.59           estimate D2E/DX2                !
 ! A6    A(5,2,6)              122.2829         estimate D2E/DX2                !
 ! A7    A(1,3,7)              121.7459         estimate D2E/DX2                !
 ! A8    A(1,3,15)             119.127          estimate D2E/DX2                !
 ! A9    A(7,3,15)             119.1271         estimate D2E/DX2                !
 ! A10   A(1,4,8)              120.968          estimate D2E/DX2                !
 ! A11   A(1,4,16)             118.485          estimate D2E/DX2                !
 ! A12   A(8,4,16)             120.5469         estimate D2E/DX2                !
 ! A13   A(2,5,9)              121.7459         estimate D2E/DX2                !
 ! A14   A(2,5,17)             119.127          estimate D2E/DX2                !
 ! A15   A(9,5,17)             119.1271         estimate D2E/DX2                !
 ! A16   A(2,6,10)             120.968          estimate D2E/DX2                !
 ! A17   A(2,6,18)             118.4851         estimate D2E/DX2                !
 ! A18   A(10,6,18)            120.5469         estimate D2E/DX2                !
 ! A19   A(3,7,9)              119.1271         estimate D2E/DX2                !
 ! A20   A(3,7,11)             122.283          estimate D2E/DX2                !
 ! A21   A(9,7,11)             118.5899         estimate D2E/DX2                !
 ! A22   A(4,8,10)             120.4419         estimate D2E/DX2                !
 ! A23   A(4,8,19)             120.1591         estimate D2E/DX2                !
 ! A24   A(10,8,19)            119.399          estimate D2E/DX2                !
 ! A25   A(5,9,7)              119.127          estimate D2E/DX2                !
 ! A26   A(5,9,12)             122.2829         estimate D2E/DX2                !
 ! A27   A(7,9,12)             118.5901         estimate D2E/DX2                !
 ! A28   A(6,10,8)             120.442          estimate D2E/DX2                !
 ! A29   A(6,10,20)            120.159          estimate D2E/DX2                !
 ! A30   A(8,10,20)            119.399          estimate D2E/DX2                !
 ! A31   A(7,11,13)            120.9681         estimate D2E/DX2                !
 ! A32   A(7,11,21)            118.485          estimate D2E/DX2                !
 ! A33   A(13,11,21)           120.547          estimate D2E/DX2                !
 ! A34   A(9,12,14)            120.968          estimate D2E/DX2                !
 ! A35   A(9,12,22)            118.485          estimate D2E/DX2                !
 ! A36   A(14,12,22)           120.547          estimate D2E/DX2                !
 ! A37   A(11,13,14)           120.442          estimate D2E/DX2                !
 ! A38   A(11,13,23)           120.1592         estimate D2E/DX2                !
 ! A39   A(14,13,23)           119.3989         estimate D2E/DX2                !
 ! A40   A(12,14,13)           120.442          estimate D2E/DX2                !
 ! A41   A(12,14,24)           120.1592         estimate D2E/DX2                !
 ! A42   A(13,14,24)           119.3988         estimate D2E/DX2                !
 ! D1    D(3,1,2,5)              0.0            estimate D2E/DX2                !
 ! D2    D(3,1,2,6)            180.0            estimate D2E/DX2                !
 ! D3    D(4,1,2,5)            180.0            estimate D2E/DX2                !
 ! D4    D(4,1,2,6)              0.0            estimate D2E/DX2                !
 ! D5    D(2,1,3,7)              0.0            estimate D2E/DX2                !
 ! D6    D(2,1,3,15)           180.0            estimate D2E/DX2                !
 ! D7    D(4,1,3,7)            180.0            estimate D2E/DX2                !
 ! D8    D(4,1,3,15)             0.0            estimate D2E/DX2                !
 ! D9    D(2,1,4,8)              0.0            estimate D2E/DX2                !
 ! D10   D(2,1,4,16)           180.0            estimate D2E/DX2                !
 ! D11   D(3,1,4,8)            180.0            estimate D2E/DX2                !
 ! D12   D(3,1,4,16)             0.0            estimate D2E/DX2                !
 ! D13   D(1,2,5,9)              0.0            estimate D2E/DX2                !
 ! D14   D(1,2,5,17)           180.0            estimate D2E/DX2                !
 ! D15   D(6,2,5,9)            180.0            estimate D2E/DX2                !
 ! D16   D(6,2,5,17)             0.0            estimate D2E/DX2                !
 ! D17   D(1,2,6,10)             0.0            estimate D2E/DX2                !
 ! D18   D(1,2,6,18)           180.0            estimate D2E/DX2                !
 ! D19   D(5,2,6,10)           180.0            estimate D2E/DX2                !
 ! D20   D(5,2,6,18)             0.0            estimate D2E/DX2                !
 ! D21   D(1,3,7,9)              0.0            estimate D2E/DX2                !
 ! D22   D(1,3,7,11)           180.0            estimate D2E/DX2                !
 ! D23   D(15,3,7,9)           180.0            estimate D2E/DX2                !
 ! D24   D(15,3,7,11)            0.0            estimate D2E/DX2                !
 ! D25   D(1,4,8,10)             0.0            estimate D2E/DX2                !
 ! D26   D(1,4,8,19)           180.0            estimate D2E/DX2                !
 ! D27   D(16,4,8,10)          180.0            estimate D2E/DX2                !
 ! D28   D(16,4,8,19)            0.0            estimate D2E/DX2                !
 ! D29   D(2,5,9,7)              0.0            estimate D2E/DX2                !
 ! D30   D(2,5,9,12)           180.0            estimate D2E/DX2                !
 ! D31   D(17,5,9,7)           180.0            estimate D2E/DX2                !
 ! D32   D(17,5,9,12)            0.0            estimate D2E/DX2                !
 ! D33   D(2,6,10,8)             0.0            estimate D2E/DX2                !
 ! D34   D(2,6,10,20)          180.0            estimate D2E/DX2                !
 ! D35   D(18,6,10,8)          180.0            estimate D2E/DX2                !
 ! D36   D(18,6,10,20)           0.0            estimate D2E/DX2                !
 ! D37   D(3,7,9,5)              0.0            estimate D2E/DX2                !
 ! D38   D(3,7,9,12)           180.0            estimate D2E/DX2                !
 ! D39   D(11,7,9,5)           180.0            estimate D2E/DX2                !
 ! D40   D(11,7,9,12)            0.0            estimate D2E/DX2                !
 ! D41   D(3,7,11,13)          180.0            estimate D2E/DX2                !
 ! D42   D(3,7,11,21)            0.0            estimate D2E/DX2                !
 ! D43   D(9,7,11,13)            0.0            estimate D2E/DX2                !
 ! D44   D(9,7,11,21)          180.0            estimate D2E/DX2                !
 ! D45   D(4,8,10,6)             0.0            estimate D2E/DX2                !
 ! D46   D(4,8,10,20)          180.0            estimate D2E/DX2                !
 ! D47   D(19,8,10,6)          180.0            estimate D2E/DX2                !
 ! D48   D(19,8,10,20)           0.0            estimate D2E/DX2                !
 ! D49   D(5,9,12,14)          180.0            estimate D2E/DX2                !
 ! D50   D(5,9,12,22)            0.0            estimate D2E/DX2                !
 ! D51   D(7,9,12,14)            0.0            estimate D2E/DX2                !
 ! D52   D(7,9,12,22)          180.0            estimate D2E/DX2                !
 ! D53   D(7,11,13,14)           0.0            estimate D2E/DX2                !
 ! D54   D(7,11,13,23)         180.0            estimate D2E/DX2                !
 ! D55   D(21,11,13,14)        180.0            estimate D2E/DX2                !
 ! D56   D(21,11,13,23)          0.0            estimate D2E/DX2                !
 ! D57   D(9,12,14,13)           0.0            estimate D2E/DX2                !
 ! D58   D(9,12,14,24)         180.0            estimate D2E/DX2                !
 ! D59   D(22,12,14,13)        180.0            estimate D2E/DX2                !
 ! D60   D(22,12,14,24)          0.0            estimate D2E/DX2                !
 ! D61   D(11,13,14,12)          0.0            estimate D2E/DX2                !
 ! D62   D(11,13,14,24)        180.0            estimate D2E/DX2                !
 ! D63   D(23,13,14,12)        180.0            estimate D2E/DX2                !
 ! D64   D(23,13,14,24)          0.0            estimate D2E/DX2                !
 --------------------------------------------------------------------------------
 Trust Radius=3.00D-01 FncErr=1.00D-07 GrdErr=1.00D-06
 Number of steps in this run=    142 maximum allowed number of steps=    144.
 GradGradGradGradGradGradGradGradGradGradGradGradGradGradGradGradGradGrad

 Leave Link  103 at Fri Jul  9 19:19:36 2021, MaxMem=  4194304000 cpu:         0.1
 (Enter /home/minenky/programs//g09/l202.exe)
                          Input orientation:                          
 ---------------------------------------------------------------------
 Center     Atomic      Atomic             Coordinates (Angstroms)
 Number     Number       Type             X           Y           Z
 ---------------------------------------------------------------------
      1          6           0        1.217836   -0.719530    0.000000
      2          6           0        1.217835    0.719530    0.000000
      3          6           0        0.000000   -1.398122    0.000000
      4          6           0        2.468555   -1.401162    0.000000
      5          6           0       -0.000001    1.398122    0.000000
      6          6           0        2.468555    1.401163    0.000000
      7          6           0       -1.217834   -0.719531    0.000000
      8          6           0        3.643806   -0.710490    0.000000
      9          6           0       -1.217835    0.719530    0.000000
     10          6           0        3.643805    0.710490    0.000000
     11          6           0       -2.468556   -1.401163    0.000000
     12          6           0       -2.468556    1.401163    0.000000
     13          6           0       -3.643805   -0.710491    0.000000
     14          6           0       -3.643805    0.710491    0.000000
     15          1           0        0.000001   -2.482213    0.000000
     16          1           0        2.466570   -2.484407    0.000000
     17          1           0        0.000000    2.482213    0.000000
     18          1           0        2.466571    2.484407    0.000000
     19          1           0        4.586768   -1.241799    0.000000
     20          1           0        4.586767    1.241801    0.000000
     21          1           0       -2.466571   -2.484408    0.000000
     22          1           0       -2.466570    2.484407    0.000000
     23          1           0       -4.586768   -1.241799    0.000000
     24          1           0       -4.586769    1.241798    0.000000
 ---------------------------------------------------------------------
                    Distance matrix (angstroms):
                    1          2          3          4          5
     1  C    0.000000
     2  C    1.439060   0.000000
     3  C    1.394135   2.442861   0.000000
     4  C    1.424402   2.462039   2.468557   0.000000
     5  C    2.442862   1.394135   2.796244   3.732259   0.000000
     6  C    2.462039   1.424403   3.732259   2.802325   2.468558
     7  C    2.435670   2.829025   1.394132   3.748878   2.442861
     8  C    2.425987   2.816078   3.708121   1.363174   4.209938
     9  C    2.829026   2.435670   2.442861   4.252859   1.394133
    10  C    2.816076   2.425987   4.209936   2.416669   3.708121
    11  C    3.748881   4.252860   2.468558   4.937111   3.732259
    12  C    4.252861   3.748880   3.732260   5.676979   2.468557
    13  C    4.861649   5.067593   3.708120   6.151258   4.209935
    14  C    5.067594   4.861648   4.209936   6.466840   3.708119
    15  H    2.142469   3.425533   1.084091   2.694890   3.880335
    16  H    2.161973   3.438685   2.695178   1.083247   4.599783
    17  H    3.425534   2.142469   3.880335   4.601561   1.084091
    18  H    3.438685   2.161974   4.599783   3.885570   2.695179
    19  H    3.409174   3.898272   4.589431   2.124199   5.292224
    20  H    3.898271   3.409174   5.292223   3.387045   4.589431
    21  H    4.085297   4.882629   2.695179   5.052612   4.599783
    22  H    4.882628   4.085294   4.599782   6.281171   2.695177
    23  H    5.828052   6.127008   4.589431   7.057123   5.292222
    24  H    6.127010   5.828052   5.292223   7.534111   4.589431
                    6          7          8          9         10
     6  C    0.000000
     7  C    4.252859   0.000000
     8  C    2.416670   4.861648   0.000000
     9  C    3.748879   1.439061   5.067594   0.000000
    10  C    1.363173   5.067593   1.420980   4.861648   0.000000
    11  C    5.676979   1.424404   6.151260   2.462040   6.466841
    12  C    4.937111   2.462042   6.466842   1.424404   6.151259
    13  C    6.466841   2.425988   7.287611   2.816077   7.424853
    14  C    6.151258   2.816079   7.424854   2.425987   7.287610
    15  H    4.601561   2.142468   4.051705   3.425534   4.844653
    16  H    3.885571   4.085293   2.129006   4.882628   3.404886
    17  H    2.694890   3.425534   4.844654   2.142469   4.051705
    18  H    1.083246   4.882628   3.404886   4.085295   2.129005
    19  H    3.387045   5.828050   1.082343   6.127008   2.168089
    20  H    2.124198   6.127007   2.168090   5.828050   1.082344
    21  H    6.281173   2.161975   6.362664   3.438686   6.895221
    22  H    5.052611   3.438686   6.895220   2.161974   6.362662
    23  H    7.534111   3.409176   8.247705   3.898272   8.458946
    24  H    7.057124   3.898273   8.458948   3.409176   8.247705
                   11         12         13         14         15
    11  C    0.000000
    12  C    2.802326   0.000000
    13  C    1.363172   2.416670   0.000000
    14  C    2.416670   1.363172   1.420982   0.000000
    15  H    2.694892   4.601563   4.051706   4.844655   0.000000
    16  H    5.052612   6.281172   6.362661   6.895220   2.466570
    17  H    4.601563   2.694891   4.844654   4.051705   4.964426
    18  H    6.281173   5.052613   6.895221   6.362662   5.545384
    19  H    7.057124   7.534112   8.247704   8.458946   4.751532
    20  H    7.534112   7.057123   8.458946   8.247703   5.908189
    21  H    1.083247   3.885572   2.129005   3.404888   2.466573
    22  H    3.885571   1.083246   3.404887   2.129005   5.545384
    23  H    2.124198   3.387044   1.082343   2.168090   4.751534
    24  H    3.387044   2.124200   2.168090   1.082344   5.908191
                   16         17         18         19         20
    16  H    0.000000
    17  H    5.545384   0.000000
    18  H    4.968814   2.466572   0.000000
    19  H    2.457502   5.908190   4.287172   0.000000
    20  H    4.287174   4.751532   2.457499   2.483600   0.000000
    21  H    4.933141   5.545385   7.001786   7.161960   7.977105
    22  H    7.001784   2.466571   4.933141   7.977104   7.161957
    23  H    7.161959   5.908190   7.977105   9.173536   9.503789
    24  H    7.977104   4.751534   7.161961   9.503791   9.173536
                   21         22         23         24
    21  H    0.000000
    22  H    4.968815   0.000000
    23  H    2.457501   4.287173   0.000000
    24  H    4.287173   2.457503   2.483597   0.000000
 Stoichiometry    C14H10
 Framework group  CS[SG(C14H10)]
 Deg. of freedom    45
 Full point group                 CS      NOp   2
 Largest Abelian subgroup         CS      NOp   2
 Largest concise Abelian subgroup C1      NOp   1
                         Standard orientation:                         
 ---------------------------------------------------------------------
 Center     Atomic      Atomic             Coordinates (Angstroms)
 Number     Number       Type             X           Y           Z
 ---------------------------------------------------------------------
      1          6           0       -1.217836   -0.719531    0.000000
      2          6           0       -1.217836    0.719529    0.000000
      3          6           0        0.000001   -1.398122    0.000000
      4          6           0       -2.468554   -1.401164    0.000000
      5          6           0        0.000000    1.398122    0.000000
      6          6           0       -2.468556    1.401161    0.000000
      7          6           0        1.217834   -0.719530    0.000000
      8          6           0       -3.643806   -0.710493    0.000000
      9          6           0        1.217834    0.719531    0.000000
     10          6           0       -3.643806    0.710487    0.000000
     11          6           0        2.468557   -1.401161    0.000000
     12          6           0        2.468555    1.401165    0.000000
     13          6           0        3.643805   -0.710488    0.000000
     14          6           0        3.643804    0.710494    0.000000
     15          1           0        0.000001   -2.482213    0.000000
     16          1           0       -2.466568   -2.484409    0.000000
     17          1           0       -0.000002    2.482213    0.000000
     18          1           0       -2.466573    2.484405    0.000000
     19          1           0       -4.586767   -1.241802    0.000000
     20          1           0       -4.586768    1.241798    0.000000
     21          1           0        2.466573   -2.484406    0.000000
     22          1           0        2.466568    2.484409    0.000000
     23          1           0        4.586769   -1.241796    0.000000
     24          1           0        4.586768    1.241801    0.000000
 ---------------------------------------------------------------------
 Rotational constants (GHZ):      2.1620563      0.4551568      0.3760010
 Leave Link  202 at Fri Jul  9 19:19:36 2021, MaxMem=  4194304000 cpu:         1.2
 (Enter /home/minenky/programs//g09/l301.exe)
 Standard basis: def2TZVP (5D, 7F)
 ======================================================================================================
                                       Pseudopotential Parameters
 ======================================================================================================
  Center     Atomic      Valence      Angular      Power
  Number     Number     Electrons     Momentum     of R      Exponent        Coefficient   SO-Coeffient
 ======================================================================================================
    1          6
                                   No pseudopotential on this center.
    2          6
                                   No pseudopotential on this center.
    3          6
                                   No pseudopotential on this center.
    4          6
                                   No pseudopotential on this center.
    5          6
                                   No pseudopotential on this center.
    6          6
                                   No pseudopotential on this center.
    7          6
                                   No pseudopotential on this center.
    8          6
                                   No pseudopotential on this center.
    9          6
                                   No pseudopotential on this center.
   10          6
                                   No pseudopotential on this center.
   11          6
                                   No pseudopotential on this center.
   12          6
                                   No pseudopotential on this center.
   13          6
                                   No pseudopotential on this center.
   14          6
                                   No pseudopotential on this center.
   15          1
                                   No pseudopotential on this center.
   16          1
                                   No pseudopotential on this center.
   17          1
                                   No pseudopotential on this center.
   18          1
                                   No pseudopotential on this center.
   19          1
                                   No pseudopotential on this center.
   20          1
                                   No pseudopotential on this center.
   21          1
                                   No pseudopotential on this center.
   22          1
                                   No pseudopotential on this center.
   23          1
                                   No pseudopotential on this center.
   24          1
                                   No pseudopotential on this center.
 ======================================================================================================
 Ernie: Thresh=  0.10000D-02 Tol=  0.10000D-05 Strict=F.
 AO basis set (Overlap normalization):
 Atom C1       Shell     1 S   6     bf    1 -     1         -2.301375590009         -1.359716243617          0.000000000000
      0.1357534968D+05  0.6064550360D-03
      0.2035233368D+04  0.4697908888D-02
      0.4632256236D+03  0.2433247765D-01
      0.1312001960D+03  0.9739996831D-01
      0.4285301589D+02  0.3019558425D+00
      0.1558418577D+02  0.6623360914D+00
 Atom C1       Shell     2 S   2     bf    2 -     2         -2.301375590009         -1.359716243617          0.000000000000
      0.6206713851D+01  0.6559530854D+00
      0.2576489653D+01  0.3758563329D+00
 Atom C1       Shell     3 S   1     bf    3 -     3         -2.301375590009         -1.359716243617          0.000000000000
      0.5769633942D+00  0.1000000000D+01
 Atom C1       Shell     4 S   1     bf    4 -     4         -2.301375590009         -1.359716243617          0.000000000000
      0.2297283136D+00  0.1000000000D+01
 Atom C1       Shell     5 S   1     bf    5 -     5         -2.301375590009         -1.359716243617          0.000000000000
      0.9516444003D-01  0.1000000000D+01
 Atom C1       Shell     6 P   4     bf    6 -     8         -2.301375590009         -1.359716243617          0.000000000000
      0.3469723224D+02  0.1132722000D-01
      0.7958262283D+01  0.7616965920D-01
      0.2378082688D+01  0.3019225220D+00
      0.8143320818D+00  0.7278502735D+00
 Atom C1       Shell     7 P   1     bf    9 -    11         -2.301375590009         -1.359716243617          0.000000000000
      0.2888754725D+00  0.1000000000D+01
 Atom C1       Shell     8 P   1     bf   12 -    14         -2.301375590009         -1.359716243617          0.000000000000
      0.1005682367D+00  0.1000000000D+01
 Atom C1       Shell     9 D   1     bf   15 -    19         -2.301375590009         -1.359716243617          0.000000000000
      0.1097000000D+01  0.1000000000D+01
 Atom C1       Shell    10 D   1     bf   20 -    24         -2.301375590009         -1.359716243617          0.000000000000
      0.3180000000D+00  0.1000000000D+01
 Atom C1       Shell    11 F   1     bf   25 -    31         -2.301375590009         -1.359716243617          0.000000000000
      0.7610000000D+00  0.1000000000D+01
 Atom C2       Shell    12 S   6     bf   32 -    32         -2.301375590009          1.359713045174          0.000000000000
      0.1357534968D+05  0.6064550360D-03
      0.2035233368D+04  0.4697908888D-02
      0.4632256236D+03  0.2433247765D-01
      0.1312001960D+03  0.9739996831D-01
      0.4285301589D+02  0.3019558425D+00
      0.1558418577D+02  0.6623360914D+00
 Atom C2       Shell    13 S   2     bf   33 -    33         -2.301375590009          1.359713045174          0.000000000000
      0.6206713851D+01  0.6559530854D+00
      0.2576489653D+01  0.3758563329D+00
 Atom C2       Shell    14 S   1     bf   34 -    34         -2.301375590009          1.359713045174          0.000000000000
      0.5769633942D+00  0.1000000000D+01
 Atom C2       Shell    15 S   1     bf   35 -    35         -2.301375590009          1.359713045174          0.000000000000
      0.2297283136D+00  0.1000000000D+01
 Atom C2       Shell    16 S   1     bf   36 -    36         -2.301375590009          1.359713045174          0.000000000000
      0.9516444003D-01  0.1000000000D+01
 Atom C2       Shell    17 P   4     bf   37 -    39         -2.301375590009          1.359713045174          0.000000000000
      0.3469723224D+02  0.1132722000D-01
      0.7958262283D+01  0.7616965920D-01
      0.2378082688D+01  0.3019225220D+00
      0.8143320818D+00  0.7278502735D+00
 Atom C2       Shell    18 P   1     bf   40 -    42         -2.301375590009          1.359713045174          0.000000000000
      0.2888754725D+00  0.1000000000D+01
 Atom C2       Shell    19 P   1     bf   43 -    45         -2.301375590009          1.359713045174          0.000000000000
      0.1005682367D+00  0.1000000000D+01
 Atom C2       Shell    20 D   1     bf   46 -    50         -2.301375590009          1.359713045174          0.000000000000
      0.1097000000D+01  0.1000000000D+01
 Atom C2       Shell    21 D   1     bf   51 -    55         -2.301375590009          1.359713045174          0.000000000000
      0.3180000000D+00  0.1000000000D+01
 Atom C2       Shell    22 F   1     bf   56 -    62         -2.301375590009          1.359713045174          0.000000000000
      0.7610000000D+00  0.1000000000D+01
 Atom C3       Shell    23 S   6     bf   63 -    63          0.000001815864         -2.642067680362          0.000000000000
      0.1357534968D+05  0.6064550360D-03
      0.2035233368D+04  0.4697908888D-02
      0.4632256236D+03  0.2433247765D-01
      0.1312001960D+03  0.9739996831D-01
      0.4285301589D+02  0.3019558425D+00
      0.1558418577D+02  0.6623360914D+00
 Atom C3       Shell    24 S   2     bf   64 -    64          0.000001815864         -2.642067680362          0.000000000000
      0.6206713851D+01  0.6559530854D+00
      0.2576489653D+01  0.3758563329D+00
 Atom C3       Shell    25 S   1     bf   65 -    65          0.000001815864         -2.642067680362          0.000000000000
      0.5769633942D+00  0.1000000000D+01
 Atom C3       Shell    26 S   1     bf   66 -    66          0.000001815864         -2.642067680362          0.000000000000
      0.2297283136D+00  0.1000000000D+01
 Atom C3       Shell    27 S   1     bf   67 -    67          0.000001815864         -2.642067680362          0.000000000000
      0.9516444003D-01  0.1000000000D+01
 Atom C3       Shell    28 P   4     bf   68 -    70          0.000001815864         -2.642067680362          0.000000000000
      0.3469723224D+02  0.1132722000D-01
      0.7958262283D+01  0.7616965920D-01
      0.2378082688D+01  0.3019225220D+00
      0.8143320818D+00  0.7278502735D+00
 Atom C3       Shell    29 P   1     bf   71 -    73          0.000001815864         -2.642067680362          0.000000000000
      0.2888754725D+00  0.1000000000D+01
 Atom C3       Shell    30 P   1     bf   74 -    76          0.000001815864         -2.642067680362          0.000000000000
      0.1005682367D+00  0.1000000000D+01
 Atom C3       Shell    31 D   1     bf   77 -    81          0.000001815864         -2.642067680362          0.000000000000
      0.1097000000D+01  0.1000000000D+01
 Atom C3       Shell    32 D   1     bf   82 -    86          0.000001815864         -2.642067680362          0.000000000000
      0.3180000000D+00  0.1000000000D+01
 Atom C3       Shell    33 F   1     bf   87 -    93          0.000001815864         -2.642067680362          0.000000000000
      0.7610000000D+00  0.1000000000D+01
 Atom C4       Shell    34 S   6     bf   94 -    94         -4.664891074108         -2.647815689431          0.000000000000
      0.1357534968D+05  0.6064550360D-03
      0.2035233368D+04  0.4697908888D-02
      0.4632256236D+03  0.2433247765D-01
      0.1312001960D+03  0.9739996831D-01
      0.4285301589D+02  0.3019558425D+00
      0.1558418577D+02  0.6623360914D+00
 Atom C4       Shell    35 S   2     bf   95 -    95         -4.664891074108         -2.647815689431          0.000000000000
      0.6206713851D+01  0.6559530854D+00
      0.2576489653D+01  0.3758563329D+00
 Atom C4       Shell    36 S   1     bf   96 -    96         -4.664891074108         -2.647815689431          0.000000000000
      0.5769633942D+00  0.1000000000D+01
 Atom C4       Shell    37 S   1     bf   97 -    97         -4.664891074108         -2.647815689431          0.000000000000
      0.2297283136D+00  0.1000000000D+01
 Atom C4       Shell    38 S   1     bf   98 -    98         -4.664891074108         -2.647815689431          0.000000000000
      0.9516444003D-01  0.1000000000D+01
 Atom C4       Shell    39 P   4     bf   99 -   101         -4.664891074108         -2.647815689431          0.000000000000
      0.3469723224D+02  0.1132722000D-01
      0.7958262283D+01  0.7616965920D-01
      0.2378082688D+01  0.3019225220D+00
      0.8143320818D+00  0.7278502735D+00
 Atom C4       Shell    40 P   1     bf  102 -   104         -4.664891074108         -2.647815689431          0.000000000000
      0.2888754725D+00  0.1000000000D+01
 Atom C4       Shell    41 P   1     bf  105 -   107         -4.664891074108         -2.647815689431          0.000000000000
      0.1005682367D+00  0.1000000000D+01
 Atom C4       Shell    42 D   1     bf  108 -   112         -4.664891074108         -2.647815689431          0.000000000000
      0.1097000000D+01  0.1000000000D+01
 Atom C4       Shell    43 D   1     bf  113 -   117         -4.664891074108         -2.647815689431          0.000000000000
      0.3180000000D+00  0.1000000000D+01
 Atom C4       Shell    44 F   1     bf  118 -   124         -4.664891074108         -2.647815689431          0.000000000000
      0.7610000000D+00  0.1000000000D+01
 Atom C5       Shell    45 S   6     bf  125 -   125          0.000000033655          2.642067680363          0.000000000000
      0.1357534968D+05  0.6064550360D-03
      0.2035233368D+04  0.4697908888D-02
      0.4632256236D+03  0.2433247765D-01
      0.1312001960D+03  0.9739996831D-01
      0.4285301589D+02  0.3019558425D+00
      0.1558418577D+02  0.6623360914D+00
 Atom C5       Shell    46 S   2     bf  126 -   126          0.000000033655          2.642067680363          0.000000000000
      0.6206713851D+01  0.6559530854D+00
      0.2576489653D+01  0.3758563329D+00
 Atom C5       Shell    47 S   1     bf  127 -   127          0.000000033655          2.642067680363          0.000000000000
      0.5769633942D+00  0.1000000000D+01
 Atom C5       Shell    48 S   1     bf  128 -   128          0.000000033655          2.642067680363          0.000000000000
      0.2297283136D+00  0.1000000000D+01
 Atom C5       Shell    49 S   1     bf  129 -   129          0.000000033655          2.642067680363          0.000000000000
      0.9516444003D-01  0.1000000000D+01
 Atom C5       Shell    50 P   4     bf  130 -   132          0.000000033655          2.642067680363          0.000000000000
      0.3469723224D+02  0.1132722000D-01
      0.7958262283D+01  0.7616965920D-01
      0.2378082688D+01  0.3019225220D+00
      0.8143320818D+00  0.7278502735D+00
 Atom C5       Shell    51 P   1     bf  133 -   135          0.000000033655          2.642067680363          0.000000000000
      0.2888754725D+00  0.1000000000D+01
 Atom C5       Shell    52 P   1     bf  136 -   138          0.000000033655          2.642067680363          0.000000000000
      0.1005682367D+00  0.1000000000D+01
 Atom C5       Shell    53 D   1     bf  139 -   143          0.000000033655          2.642067680363          0.000000000000
      0.1097000000D+01  0.1000000000D+01
 Atom C5       Shell    54 D   1     bf  144 -   148          0.000000033655          2.642067680363          0.000000000000
      0.3180000000D+00  0.1000000000D+01
 Atom C5       Shell    55 F   1     bf  149 -   155          0.000000033655          2.642067680363          0.000000000000
      0.7610000000D+00  0.1000000000D+01
 Atom C6       Shell    56 S   6     bf  156 -   156         -4.664894754029          2.647811095907          0.000000000000
      0.1357534968D+05  0.6064550360D-03
      0.2035233368D+04  0.4697908888D-02
      0.4632256236D+03  0.2433247765D-01
      0.1312001960D+03  0.9739996831D-01
      0.4285301589D+02  0.3019558425D+00
      0.1558418577D+02  0.6623360914D+00
 Atom C6       Shell    57 S   2     bf  157 -   157         -4.664894754029          2.647811095907          0.000000000000
      0.6206713851D+01  0.6559530854D+00
      0.2576489653D+01  0.3758563329D+00
 Atom C6       Shell    58 S   1     bf  158 -   158         -4.664894754029          2.647811095907          0.000000000000
      0.5769633942D+00  0.1000000000D+01
 Atom C6       Shell    59 S   1     bf  159 -   159         -4.664894754029          2.647811095907          0.000000000000
      0.2297283136D+00  0.1000000000D+01
 Atom C6       Shell    60 S   1     bf  160 -   160         -4.664894754029          2.647811095907          0.000000000000
      0.9516444003D-01  0.1000000000D+01
 Atom C6       Shell    61 P   4     bf  161 -   163         -4.664894754029          2.647811095907          0.000000000000
      0.3469723224D+02  0.1132722000D-01
      0.7958262283D+01  0.7616965920D-01
      0.2378082688D+01  0.3019225220D+00
      0.8143320818D+00  0.7278502735D+00
 Atom C6       Shell    62 P   1     bf  164 -   166         -4.664894754029          2.647811095907          0.000000000000
      0.2888754725D+00  0.1000000000D+01
 Atom C6       Shell    63 P   1     bf  167 -   169         -4.664894754029          2.647811095907          0.000000000000
      0.1005682367D+00  0.1000000000D+01
 Atom C6       Shell    64 D   1     bf  170 -   174         -4.664894754029          2.647811095907          0.000000000000
      0.1097000000D+01  0.1000000000D+01
 Atom C6       Shell    65 D   1     bf  175 -   179         -4.664894754029          2.647811095907          0.000000000000
      0.3180000000D+00  0.1000000000D+01
 Atom C6       Shell    66 F   1     bf  180 -   186         -4.664894754029          2.647811095907          0.000000000000
      0.7610000000D+00  0.1000000000D+01
 Atom C7       Shell    67 S   6     bf  187 -   187          2.301373660077         -1.359714934902          0.000000000000
      0.1357534968D+05  0.6064550360D-03
      0.2035233368D+04  0.4697908888D-02
      0.4632256236D+03  0.2433247765D-01
      0.1312001960D+03  0.9739996831D-01
      0.4285301589D+02  0.3019558425D+00
      0.1558418577D+02  0.6623360914D+00
 Atom C7       Shell    68 S   2     bf  188 -   188          2.301373660077         -1.359714934902          0.000000000000
      0.6206713851D+01  0.6559530854D+00
      0.2576489653D+01  0.3758563329D+00
 Atom C7       Shell    69 S   1     bf  189 -   189          2.301373660077         -1.359714934902          0.000000000000
      0.5769633942D+00  0.1000000000D+01
 Atom C7       Shell    70 S   1     bf  190 -   190          2.301373660077         -1.359714934902          0.000000000000
      0.2297283136D+00  0.1000000000D+01
 Atom C7       Shell    71 S   1     bf  191 -   191          2.301373660077         -1.359714934902          0.000000000000
      0.9516444003D-01  0.1000000000D+01
 Atom C7       Shell    72 P   4     bf  192 -   194          2.301373660077         -1.359714934902          0.000000000000
      0.3469723224D+02  0.1132722000D-01
      0.7958262283D+01  0.7616965920D-01
      0.2378082688D+01  0.3019225220D+00
      0.8143320818D+00  0.7278502735D+00
 Atom C7       Shell    73 P   1     bf  195 -   197          2.301373660077         -1.359714934902          0.000000000000
      0.2888754725D+00  0.1000000000D+01
 Atom C7       Shell    74 P   1     bf  198 -   200          2.301373660077         -1.359714934902          0.000000000000
      0.1005682367D+00  0.1000000000D+01
 Atom C7       Shell    75 D   1     bf  201 -   205          2.301373660077         -1.359714934902          0.000000000000
      0.1097000000D+01  0.1000000000D+01
 Atom C7       Shell    76 D   1     bf  206 -   210          2.301373660077         -1.359714934902          0.000000000000
      0.3180000000D+00  0.1000000000D+01
 Atom C7       Shell    77 F   1     bf  211 -   217          2.301373660077         -1.359714934902          0.000000000000
      0.7610000000D+00  0.1000000000D+01
 Atom C8       Shell    78 S   6     bf  218 -   218         -6.885794508475         -1.342636305079          0.000000000000
      0.1357534968D+05  0.6064550360D-03
      0.2035233368D+04  0.4697908888D-02
      0.4632256236D+03  0.2433247765D-01
      0.1312001960D+03  0.9739996831D-01
      0.4285301589D+02  0.3019558425D+00
      0.1558418577D+02  0.6623360914D+00
 Atom C8       Shell    79 S   2     bf  219 -   219         -6.885794508475         -1.342636305079          0.000000000000
      0.6206713851D+01  0.6559530854D+00
      0.2576489653D+01  0.3758563329D+00
 Atom C8       Shell    80 S   1     bf  220 -   220         -6.885794508475         -1.342636305079          0.000000000000
      0.5769633942D+00  0.1000000000D+01
 Atom C8       Shell    81 S   1     bf  221 -   221         -6.885794508475         -1.342636305079          0.000000000000
      0.2297283136D+00  0.1000000000D+01
 Atom C8       Shell    82 S   1     bf  222 -   222         -6.885794508475         -1.342636305079          0.000000000000
      0.9516444003D-01  0.1000000000D+01
 Atom C8       Shell    83 P   4     bf  223 -   225         -6.885794508475         -1.342636305079          0.000000000000
      0.3469723224D+02  0.1132722000D-01
      0.7958262283D+01  0.7616965920D-01
      0.2378082688D+01  0.3019225220D+00
      0.8143320818D+00  0.7278502735D+00
 Atom C8       Shell    84 P   1     bf  226 -   228         -6.885794508475         -1.342636305079          0.000000000000
      0.2888754725D+00  0.1000000000D+01
 Atom C8       Shell    85 P   1     bf  229 -   231         -6.885794508475         -1.342636305079          0.000000000000
      0.1005682367D+00  0.1000000000D+01
 Atom C8       Shell    86 D   1     bf  232 -   236         -6.885794508475         -1.342636305079          0.000000000000
      0.1097000000D+01  0.1000000000D+01
 Atom C8       Shell    87 D   1     bf  237 -   241         -6.885794508475         -1.342636305079          0.000000000000
      0.3180000000D+00  0.1000000000D+01
 Atom C8       Shell    88 F   1     bf  242 -   248         -6.885794508475         -1.342636305079          0.000000000000
      0.7610000000D+00  0.1000000000D+01
 Atom C9       Shell    89 S   6     bf  249 -   249          2.301373660076          1.359716243616          0.000000000000
      0.1357534968D+05  0.6064550360D-03
      0.2035233368D+04  0.4697908888D-02
      0.4632256236D+03  0.2433247765D-01
      0.1312001960D+03  0.9739996831D-01
      0.4285301589D+02  0.3019558425D+00
      0.1558418577D+02  0.6623360914D+00
 Atom C9       Shell    90 S   2     bf  250 -   250          2.301373660076          1.359716243616          0.000000000000
      0.6206713851D+01  0.6559530854D+00
      0.2576489653D+01  0.3758563329D+00
 Atom C9       Shell    91 S   1     bf  251 -   251          2.301373660076          1.359716243616          0.000000000000
      0.5769633942D+00  0.1000000000D+01
 Atom C9       Shell    92 S   1     bf  252 -   252          2.301373660076          1.359716243616          0.000000000000
      0.2297283136D+00  0.1000000000D+01
 Atom C9       Shell    93 S   1     bf  253 -   253          2.301373660076          1.359716243616          0.000000000000
      0.9516444003D-01  0.1000000000D+01
 Atom C9       Shell    94 P   4     bf  254 -   256          2.301373660076          1.359716243616          0.000000000000
      0.3469723224D+02  0.1132722000D-01
      0.7958262283D+01  0.7616965920D-01
      0.2378082688D+01  0.3019225220D+00
      0.8143320818D+00  0.7278502735D+00
 Atom C9       Shell    95 P   1     bf  257 -   259          2.301373660076          1.359716243616          0.000000000000
      0.2888754725D+00  0.1000000000D+01
 Atom C9       Shell    96 P   1     bf  260 -   262          2.301373660076          1.359716243616          0.000000000000
      0.1005682367D+00  0.1000000000D+01
 Atom C9       Shell    97 D   1     bf  263 -   267          2.301373660076          1.359716243616          0.000000000000
      0.1097000000D+01  0.1000000000D+01
 Atom C9       Shell    98 D   1     bf  268 -   272          2.301373660076          1.359716243616          0.000000000000
      0.3180000000D+00  0.1000000000D+01
 Atom C9       Shell    99 F   1     bf  273 -   279          2.301373660076          1.359716243616          0.000000000000
      0.7610000000D+00  0.1000000000D+01
 Atom C10      Shell   100 S   6     bf  280 -   280         -6.885794484733          1.342626735229          0.000000000000
      0.1357534968D+05  0.6064550360D-03
      0.2035233368D+04  0.4697908888D-02
      0.4632256236D+03  0.2433247765D-01
      0.1312001960D+03  0.9739996831D-01
      0.4285301589D+02  0.3019558425D+00
      0.1558418577D+02  0.6623360914D+00
 Atom C10      Shell   101 S   2     bf  281 -   281         -6.885794484733          1.342626735229          0.000000000000
      0.6206713851D+01  0.6559530854D+00
      0.2576489653D+01  0.3758563329D+00
 Atom C10      Shell   102 S   1     bf  282 -   282         -6.885794484733          1.342626735229          0.000000000000
      0.5769633942D+00  0.1000000000D+01
 Atom C10      Shell   103 S   1     bf  283 -   283         -6.885794484733          1.342626735229          0.000000000000
      0.2297283136D+00  0.1000000000D+01
 Atom C10      Shell   104 S   1     bf  284 -   284         -6.885794484733          1.342626735229          0.000000000000
      0.9516444003D-01  0.1000000000D+01
 Atom C10      Shell   105 P   4     bf  285 -   287         -6.885794484733          1.342626735229          0.000000000000
      0.3469723224D+02  0.1132722000D-01
      0.7958262283D+01  0.7616965920D-01
      0.2378082688D+01  0.3019225220D+00
      0.8143320818D+00  0.7278502735D+00
 Atom C10      Shell   106 P   1     bf  288 -   290         -6.885794484733          1.342626735229          0.000000000000
      0.2888754725D+00  0.1000000000D+01
 Atom C10      Shell   107 P   1     bf  291 -   293         -6.885794484733          1.342626735229          0.000000000000
      0.1005682367D+00  0.1000000000D+01
 Atom C10      Shell   108 D   1     bf  294 -   298         -6.885794484733          1.342626735229          0.000000000000
      0.1097000000D+01  0.1000000000D+01
 Atom C10      Shell   109 D   1     bf  299 -   303         -6.885794484733          1.342626735229          0.000000000000
      0.3180000000D+00  0.1000000000D+01
 Atom C10      Shell   110 F   1     bf  304 -   310         -6.885794484733          1.342626735229          0.000000000000
      0.7610000000D+00  0.1000000000D+01
 Atom C11      Shell   111 S   6     bf  311 -   311          4.664896603548         -2.647811095905          0.000000000000
      0.1357534968D+05  0.6064550360D-03
      0.2035233368D+04  0.4697908888D-02
      0.4632256236D+03  0.2433247765D-01
      0.1312001960D+03  0.9739996831D-01
      0.4285301589D+02  0.3019558425D+00
      0.1558418577D+02  0.6623360914D+00
 Atom C11      Shell   112 S   2     bf  312 -   312          4.664896603548         -2.647811095905          0.000000000000
      0.6206713851D+01  0.6559530854D+00
      0.2576489653D+01  0.3758563329D+00
 Atom C11      Shell   113 S   1     bf  313 -   313          4.664896603548         -2.647811095905          0.000000000000
      0.5769633942D+00  0.1000000000D+01
 Atom C11      Shell   114 S   1     bf  314 -   314          4.664896603548         -2.647811095905          0.000000000000
      0.2297283136D+00  0.1000000000D+01
 Atom C11      Shell   115 S   1     bf  315 -   315          4.664896603548         -2.647811095905          0.000000000000
      0.9516444003D-01  0.1000000000D+01
 Atom C11      Shell   116 P   4     bf  316 -   318          4.664896603548         -2.647811095905          0.000000000000
      0.3469723224D+02  0.1132722000D-01
      0.7958262283D+01  0.7616965920D-01
      0.2378082688D+01  0.3019225220D+00
      0.8143320818D+00  0.7278502735D+00
 Atom C11      Shell   117 P   1     bf  319 -   321          4.664896603548         -2.647811095905          0.000000000000
      0.2888754725D+00  0.1000000000D+01
 Atom C11      Shell   118 P   1     bf  322 -   324          4.664896603548         -2.647811095905          0.000000000000
      0.1005682367D+00  0.1000000000D+01
 Atom C11      Shell   119 D   1     bf  325 -   329          4.664896603548         -2.647811095905          0.000000000000
      0.1097000000D+01  0.1000000000D+01
 Atom C11      Shell   120 D   1     bf  330 -   334          4.664896603548         -2.647811095905          0.000000000000
      0.3180000000D+00  0.1000000000D+01
 Atom C11      Shell   121 F   1     bf  335 -   341          4.664896603548         -2.647811095905          0.000000000000
      0.7610000000D+00  0.1000000000D+01
 Atom C12      Shell   122 S   6     bf  342 -   342          4.664892923626          2.647817579158          0.000000000000
      0.1357534968D+05  0.6064550360D-03
      0.2035233368D+04  0.4697908888D-02
      0.4632256236D+03  0.2433247765D-01
      0.1312001960D+03  0.9739996831D-01
      0.4285301589D+02  0.3019558425D+00
      0.1558418577D+02  0.6623360914D+00
 Atom C12      Shell   123 S   2     bf  343 -   343          4.664892923626          2.647817579158          0.000000000000
      0.6206713851D+01  0.6559530854D+00
      0.2576489653D+01  0.3758563329D+00
 Atom C12      Shell   124 S   1     bf  344 -   344          4.664892923626          2.647817579158          0.000000000000
      0.5769633942D+00  0.1000000000D+01
 Atom C12      Shell   125 S   1     bf  345 -   345          4.664892923626          2.647817579158          0.000000000000
      0.2297283136D+00  0.1000000000D+01
 Atom C12      Shell   126 S   1     bf  346 -   346          4.664892923626          2.647817579158          0.000000000000
      0.9516444003D-01  0.1000000000D+01
 Atom C12      Shell   127 P   4     bf  347 -   349          4.664892923626          2.647817579158          0.000000000000
      0.3469723224D+02  0.1132722000D-01
      0.7958262283D+01  0.7616965920D-01
      0.2378082688D+01  0.3019225220D+00
      0.8143320818D+00  0.7278502735D+00
 Atom C12      Shell   128 P   1     bf  350 -   352          4.664892923626          2.647817579158          0.000000000000
      0.2888754725D+00  0.1000000000D+01
 Atom C12      Shell   129 P   1     bf  353 -   355          4.664892923626          2.647817579158          0.000000000000
      0.1005682367D+00  0.1000000000D+01
 Atom C12      Shell   130 D   1     bf  356 -   360          4.664892923626          2.647817579158          0.000000000000
      0.1097000000D+01  0.1000000000D+01
 Atom C12      Shell   131 D   1     bf  361 -   365          4.664892923626          2.647817579158          0.000000000000
      0.3180000000D+00  0.1000000000D+01
 Atom C12      Shell   132 F   1     bf  366 -   372          4.664892923626          2.647817579158          0.000000000000
      0.7610000000D+00  0.1000000000D+01
 Atom C13      Shell   133 S   6     bf  373 -   373          6.885794444528         -1.342628624955          0.000000000000
      0.1357534968D+05  0.6064550360D-03
      0.2035233368D+04  0.4697908888D-02
      0.4632256236D+03  0.2433247765D-01
      0.1312001960D+03  0.9739996831D-01
      0.4285301589D+02  0.3019558425D+00
      0.1558418577D+02  0.6623360914D+00
 Atom C13      Shell   134 S   2     bf  374 -   374          6.885794444528         -1.342628624955          0.000000000000
      0.6206713851D+01  0.6559530854D+00
      0.2576489653D+01  0.3758563329D+00
 Atom C13      Shell   135 S   1     bf  375 -   375          6.885794444528         -1.342628624955          0.000000000000
      0.5769633942D+00  0.1000000000D+01
 Atom C13      Shell   136 S   1     bf  376 -   376          6.885794444528         -1.342628624955          0.000000000000
      0.2297283136D+00  0.1000000000D+01
 Atom C13      Shell   137 S   1     bf  377 -   377          6.885794444528         -1.342628624955          0.000000000000
      0.9516444003D-01  0.1000000000D+01
 Atom C13      Shell   138 P   4     bf  378 -   380          6.885794444528         -1.342628624955          0.000000000000
      0.3469723224D+02  0.1132722000D-01
      0.7958262283D+01  0.7616965920D-01
      0.2378082688D+01  0.3019225220D+00
      0.8143320818D+00  0.7278502735D+00
 Atom C13      Shell   139 P   1     bf  381 -   383          6.885794444528         -1.342628624955          0.000000000000
      0.2888754725D+00  0.1000000000D+01
 Atom C13      Shell   140 P   1     bf  384 -   386          6.885794444528         -1.342628624955          0.000000000000
      0.1005682367D+00  0.1000000000D+01
 Atom C13      Shell   141 D   1     bf  387 -   391          6.885794444528         -1.342628624955          0.000000000000
      0.1097000000D+01  0.1000000000D+01
 Atom C13      Shell   142 D   1     bf  392 -   396          6.885794444528         -1.342628624955          0.000000000000
      0.3180000000D+00  0.1000000000D+01
 Atom C13      Shell   143 F   1     bf  397 -   403          6.885794444528         -1.342628624955          0.000000000000
      0.7610000000D+00  0.1000000000D+01
 Atom C14      Shell   144 S   6     bf  404 -   404          6.885792578541          1.342638194804          0.000000000000
      0.1357534968D+05  0.6064550360D-03
      0.2035233368D+04  0.4697908888D-02
      0.4632256236D+03  0.2433247765D-01
      0.1312001960D+03  0.9739996831D-01
      0.4285301589D+02  0.3019558425D+00
      0.1558418577D+02  0.6623360914D+00
 Atom C14      Shell   145 S   2     bf  405 -   405          6.885792578541          1.342638194804          0.000000000000
      0.6206713851D+01  0.6559530854D+00
      0.2576489653D+01  0.3758563329D+00
 Atom C14      Shell   146 S   1     bf  406 -   406          6.885792578541          1.342638194804          0.000000000000
      0.5769633942D+00  0.1000000000D+01
 Atom C14      Shell   147 S   1     bf  407 -   407          6.885792578541          1.342638194804          0.000000000000
      0.2297283136D+00  0.1000000000D+01
 Atom C14      Shell   148 S   1     bf  408 -   408          6.885792578541          1.342638194804          0.000000000000
      0.9516444003D-01  0.1000000000D+01
 Atom C14      Shell   149 P   4     bf  409 -   411          6.885792578541          1.342638194804          0.000000000000
      0.3469723224D+02  0.1132722000D-01
      0.7958262283D+01  0.7616965920D-01
      0.2378082688D+01  0.3019225220D+00
      0.8143320818D+00  0.7278502735D+00
 Atom C14      Shell   150 P   1     bf  412 -   414          6.885792578541          1.342638194804          0.000000000000
      0.2888754725D+00  0.1000000000D+01
 Atom C14      Shell   151 P   1     bf  415 -   417          6.885792578541          1.342638194804          0.000000000000
      0.1005682367D+00  0.1000000000D+01
 Atom C14      Shell   152 D   1     bf  418 -   422          6.885792578541          1.342638194804          0.000000000000
      0.1097000000D+01  0.1000000000D+01
 Atom C14      Shell   153 D   1     bf  423 -   427          6.885792578541          1.342638194804          0.000000000000
      0.3180000000D+00  0.1000000000D+01
 Atom C14      Shell   154 F   1     bf  428 -   434          6.885792578541          1.342638194804          0.000000000000
      0.7610000000D+00  0.1000000000D+01
 Atom H15      Shell   155 S   3     bf  435 -   435          0.000001349731         -4.690702773489          0.000000000000
      0.3406134100D+02  0.2543930721D-01
      0.5123574600D+01  0.1900859489D+00
      0.1164662600D+01  0.8524411301D+00
 Atom H15      Shell   156 S   1     bf  436 -   436          0.000001349731         -4.690702773489          0.000000000000
      0.3272304100D+00  0.1000000000D+01
 Atom H15      Shell   157 S   1     bf  437 -   437          0.000001349731         -4.690702773489          0.000000000000
      0.1030724100D+00  0.1000000000D+01
 Atom H15      Shell   158 P   1     bf  438 -   440          0.000001349731         -4.690702773489          0.000000000000
      0.8000000000D+00  0.1000000000D+01
 Atom H16      Shell   159 S   3     bf  441 -   441         -4.661138545253         -4.694852071641          0.000000000000
      0.3406134100D+02  0.2543930721D-01
      0.5123574600D+01  0.1900859489D+00
      0.1164662600D+01  0.8524411301D+00
 Atom H16      Shell   160 S   1     bf  442 -   442         -4.661138545253         -4.694852071641          0.000000000000
      0.3272304100D+00  0.1000000000D+01
 Atom H16      Shell   161 S   1     bf  443 -   443         -4.661138545253         -4.694852071641          0.000000000000
      0.1030724100D+00  0.1000000000D+01
 Atom H16      Shell   162 P   1     bf  444 -   446         -4.661138545253         -4.694852071641          0.000000000000
      0.8000000000D+00  0.1000000000D+01
 Atom H17      Shell   163 S   3     bf  447 -   447         -0.000003279664          4.690702773487          0.000000000000
      0.3406134100D+02  0.2543930721D-01
      0.5123574600D+01  0.1900859489D+00
      0.1164662600D+01  0.8524411301D+00
 Atom H17      Shell   164 S   1     bf  448 -   448         -0.000003279664          4.690702773487          0.000000000000
      0.3272304100D+00  0.1000000000D+01
 Atom H17      Shell   165 S   1     bf  449 -   449         -0.000003279664          4.690702773487          0.000000000000
      0.1030724100D+00  0.1000000000D+01
 Atom H17      Shell   166 P   1     bf  450 -   452         -0.000003279664          4.690702773487          0.000000000000
      0.8000000000D+00  0.1000000000D+01
 Atom H18      Shell   167 S   3     bf  453 -   453         -4.661146959862          4.694845593603          0.000000000000
      0.3406134100D+02  0.2543930721D-01
      0.5123574600D+01  0.1900859489D+00
      0.1164662600D+01  0.8524411301D+00
 Atom H18      Shell   168 S   1     bf  454 -   454         -4.661146959862          4.694845593603          0.000000000000
      0.3272304100D+00  0.1000000000D+01
 Atom H18      Shell   169 S   1     bf  455 -   455         -4.661146959862          4.694845593603          0.000000000000
      0.1030724100D+00  0.1000000000D+01
 Atom H18      Shell   170 P   1     bf  456 -   458         -4.661146959862          4.694845593603          0.000000000000
      0.8000000000D+00  0.1000000000D+01
 Atom H19      Shell   171 S   3     bf  459 -   459         -8.667733744496         -2.346666045283          0.000000000000
      0.3406134100D+02  0.2543930721D-01
      0.5123574600D+01  0.1900859489D+00
      0.1164662600D+01  0.8524411301D+00
 Atom H19      Shell   172 S   1     bf  460 -   460         -8.667733744496         -2.346666045283          0.000000000000
      0.3272304100D+00  0.1000000000D+01
 Atom H19      Shell   173 S   1     bf  461 -   461         -8.667733744496         -2.346666045283          0.000000000000
      0.1030724100D+00  0.1000000000D+01
 Atom H19      Shell   174 P   1     bf  462 -   464         -8.667733744496         -2.346666045283          0.000000000000
      0.8000000000D+00  0.1000000000D+01
 Atom H20      Shell   175 S   3     bf  465 -   465         -8.667735116151          2.346657778352          0.000000000000
      0.3406134100D+02  0.2543930721D-01
      0.5123574600D+01  0.1900859489D+00
      0.1164662600D+01  0.8524411301D+00
 Atom H20      Shell   176 S   1     bf  466 -   466         -8.667735116151          2.346657778352          0.000000000000
      0.3272304100D+00  0.1000000000D+01
 Atom H20      Shell   177 S   1     bf  467 -   467         -8.667735116151          2.346657778352          0.000000000000
      0.1030724100D+00  0.1000000000D+01
 Atom H20      Shell   178 P   1     bf  468 -   470         -8.667735116151          2.346657778352          0.000000000000
      0.8000000000D+00  0.1000000000D+01
 Atom H21      Shell   179 S   3     bf  471 -   471          4.661146919656         -4.694847483329          0.000000000000
      0.3406134100D+02  0.2543930721D-01
      0.5123574600D+01  0.1900859489D+00
      0.1164662600D+01  0.8524411301D+00
 Atom H21      Shell   180 S   1     bf  472 -   472          4.661146919656         -4.694847483329          0.000000000000
      0.3272304100D+00  0.1000000000D+01
 Atom H21      Shell   181 S   1     bf  473 -   473          4.661146919656         -4.694847483329          0.000000000000
      0.1030724100D+00  0.1000000000D+01
 Atom H21      Shell   182 P   1     bf  474 -   476          4.661146919656         -4.694847483329          0.000000000000
      0.8000000000D+00  0.1000000000D+01
 Atom H22      Shell   183 S   3     bf  477 -   477          4.661138505046          4.694852071641          0.000000000000
      0.3406134100D+02  0.2543930721D-01
      0.5123574600D+01  0.1900859489D+00
      0.1164662600D+01  0.8524411301D+00
 Atom H22      Shell   184 S   1     bf  478 -   478          4.661138505046          4.694852071641          0.000000000000
      0.3272304100D+00  0.1000000000D+01
 Atom H22      Shell   185 S   1     bf  479 -   479          4.661138505046          4.694852071641          0.000000000000
      0.1030724100D+00  0.1000000000D+01
 Atom H22      Shell   186 P   1     bf  480 -   482          4.661138505046          4.694852071641          0.000000000000
      0.8000000000D+00  0.1000000000D+01
 Atom H23      Shell   187 S   3     bf  483 -   483          8.667736965668         -2.346653998898          0.000000000000
      0.3406134100D+02  0.2543930721D-01
      0.5123574600D+01  0.1900859489D+00
      0.1164662600D+01  0.8524411301D+00
 Atom H23      Shell   188 S   1     bf  484 -   484          8.667736965668         -2.346653998898          0.000000000000
      0.3272304100D+00  0.1000000000D+01
 Atom H23      Shell   189 S   1     bf  485 -   485          8.667736965668         -2.346653998898          0.000000000000
      0.1030724100D+00  0.1000000000D+01
 Atom H23      Shell   190 P   1     bf  486 -   488          8.667736965668         -2.346653998898          0.000000000000
      0.8000000000D+00  0.1000000000D+01
 Atom H24      Shell   191 S   3     bf  489 -   489          8.667735594016          2.346664155558          0.000000000000
      0.3406134100D+02  0.2543930721D-01
      0.5123574600D+01  0.1900859489D+00
      0.1164662600D+01  0.8524411301D+00
 Atom H24      Shell   192 S   1     bf  490 -   490          8.667735594016          2.346664155558          0.000000000000
      0.3272304100D+00  0.1000000000D+01
 Atom H24      Shell   193 S   1     bf  491 -   491          8.667735594016          2.346664155558          0.000000000000
      0.1030724100D+00  0.1000000000D+01
 Atom H24      Shell   194 P   1     bf  492 -   494          8.667735594016          2.346664155558          0.000000000000
      0.8000000000D+00  0.1000000000D+01
 There are   400 symmetry adapted cartesian basis functions of A'  symmetry.
 There are   164 symmetry adapted cartesian basis functions of A"  symmetry.
 There are   344 symmetry adapted basis functions of A'  symmetry.
 There are   150 symmetry adapted basis functions of A"  symmetry.
   494 basis functions,   794 primitive gaussians,   564 cartesian basis functions
    47 alpha electrons       47 beta electrons
       nuclear repulsion energy       768.5791596031 Hartrees.
 IExCor= 4639 DFT=T Ex+Corr=wB97XD ExCW=0 ScaHFX=  1.000000
 ScaDFX=  1.000000  1.000000  1.000000  1.000000 ScalE2=  1.000000  1.000000
 IRadAn=      5 IRanWt=     -1 IRanGd=            0 ICorTp=0 IEmpDi=121
  HFx wShort=  0.000000 wLong=  0.200000 cFull=  0.222036 cShort=  0.000000 cLong=  0.777964
  DFx wShort=  0.000000 wLong=  0.200000 cFull=  0.000000 cShort=  0.000000 cLong=  1.000000
 NAtoms=   24 NActive=   24 NUniq=   24 SFac= 1.00D+00 NAtFMM=   60 NAOKFM=F Big=F
 Integral buffers will be    131072 words long.
 Raffenetti 2 integral format.
 Two-electron integral symmetry is turned on.
 R6Disp:  Grimme-D2 Dispersion energy=       -0.0142277361 Hartrees.
 Nuclear repulsion after empirical dispersion term =      768.5649318669 Hartrees.
 Leave Link  301 at Fri Jul  9 19:19:36 2021, MaxMem=  4194304000 cpu:         0.3
 (Enter /home/minenky/programs//g09/l302.exe)
 NPDir=0 NMtPBC=     1 NCelOv=     1 NCel=       1 NClECP=     1 NCelD=      1
         NCelK=      1 NCelE2=     1 NClLst=     1 CellRange=     0.0.
 One-electron integrals computed using PRISM.
   1 Symmetry operations used in ECPInt.
 ECPInt:  NShTT=   18915 NPrTT=   58308 LenC2=   17611 LenP2D=   40947.
 LDataN:  DoStor=T MaxTD1= 6 Len=  172
 NBasis=   494 RedAO= T EigKep=  7.11D-06  NBF=   344   150
 NBsUse=   494 1.00D-06 EigRej= -1.00D+00 NBFU=   344   150
 Precomputing XC quadrature grid using
 IXCGrd= 4 IRadAn=           5 IRanWt=          -1 IRanGd=           0 AccXCQ= 0.00D+00.
 Generated NRdTot=       0 NPtTot=           0 NUsed=           0 NTot=          32
 NSgBfM=   558   558   558   558   558 MxSgAt=    24 MxSgA2=    24.
 Leave Link  302 at Fri Jul  9 19:19:40 2021, MaxMem=  4194304000 cpu:        38.6
 (Enter /home/minenky/programs//g09/l303.exe)
 DipDrv:  MaxL=1.
 Leave Link  303 at Fri Jul  9 19:19:41 2021, MaxMem=  4194304000 cpu:         2.8
 (Enter /home/minenky/programs//g09/l401.exe)
 ExpMin= 9.52D-02 ExpMax= 1.36D+04 ExpMxC= 4.63D+02 IAcc=3 IRadAn=         5 AccDes= 0.00D+00
 Harris functional with IExCor= 4639 and IRadAn=       5 diagonalized for initial guess.
 HarFok:  IExCor= 4639 AccDes= 0.00D+00 IRadAn=         5 IDoV= 1 UseB2=F ITyADJ=14
 ICtDFT=  3500011 ScaDFX=  1.000000  1.000000  1.000000  1.000000
 FoFCou: FMM=F IPFlag=           0 FMFlag=      100000 FMFlg1=           0
         NFxFlg=           0 DoJE=T BraDBF=F KetDBF=T FulRan=T
         wScrn=  0.000000 ICntrl=     500 IOpCl=  0 I1Cent=   200000004 NGrid=           0
         NMat0=    1 NMatS0=      1 NMatT0=    0 NMatD0=    1 NMtDS0=    0 NMtDT0=    0
 Petite list used in FoFCou.
 Harris En= -514.923708292867    
 JPrj=0 DoOrth=F DoCkMO=F.
 Initial guess orbital symmetries:
       Occupied  (A') (A') (A') (A') (A') (A') (A') (A') (A') (A')
                 (A') (A') (A') (A') (A') (A') (A') (A') (A') (A')
                 (A') (A') (A') (A') (A') (A') (A') (A') (A') (A')
                 (A') (A') (A') (A') (A') (A") (A') (A') (A") (A')
                 (A') (A') (A") (A") (A") (A") (A")
       Virtual   (A") (A") (A") (A") (A") (A') (A') (A') (A') (A')
                 (A') (A') (A') (A') (A") (A') (A') (A") (A') (A')
                 (A') (A") (A') (A') (A") (A') (A') (A') (A') (A")
                 (A') (A") (A') (A') (A") (A') (A') (A') (A') (A")
                 (A") (A') (A") (A') (A') (A') (A') (A") (A") (A")
                 (A') (A') (A') (A') (A') (A') (A") (A') (A') (A')
                 (A') (A') (A") (A') (A') (A") (A') (A') (A") (A")
                 (A') (A') (A') (A') (A') (A') (A') (A') (A') (A')
                 (A") (A') (A") (A') (A') (A') (A') (A') (A') (A')
                 (A") (A') (A") (A') (A') (A") (A") (A') (A") (A')
                 (A') (A') (A') (A') (A') (A') (A') (A") (A') (A')
                 (A") (A") (A') (A') (A') (A') (A') (A") (A') (A")
                 (A') (A") (A') (A') (A') (A') (A") (A") (A') (A')
                 (A') (A") (A") (A') (A') (A") (A') (A") (A') (A')
                 (A') (A') (A') (A") (A") (A") (A') (A') (A') (A')
                 (A') (A') (A") (A") (A') (A") (A') (A') (A') (A')
                 (A") (A') (A") (A") (A') (A') (A') (A') (A') (A")
                 (A') (A") (A") (A') (A') (A') (A") (A") (A") (A')
                 (A') (A") (A') (A') (A') (A") (A') (A') (A') (A")
                 (A") (A") (A") (A") (A') (A') (A") (A") (A") (A')
                 (A') (A') (A') (A") (A") (A') (A') (A") (A') (A')
                 (A') (A') (A') (A') (A') (A') (A') (A') (A") (A')
                 (A') (A') (A') (A') (A') (A") (A") (A") (A") (A')
                 (A') (A') (A') (A") (A') (A') (A') (A") (A') (A')
                 (A') (A') (A') (A') (A") (A') (A") (A") (A') (A")
                 (A') (A') (A") (A') (A') (A") (A') (A') (A") (A")
                 (A') (A") (A") (A') (A') (A") (A') (A") (A') (A')
                 (A") (A") (A') (A') (A') (A') (A') (A") (A") (A')
                 (A") (A') (A") (A') (A') (A") (A') (A") (A') (A')
                 (A") (A") (A') (A') (A') (A') (A") (A') (A') (A')
                 (A") (A") (A') (A") (A") (A") (A') (A') (A') (A')
                 (A") (A") (A') (A') (A") (A") (A") (A") (A') (A')
                 (A') (A') (A') (A') (A') (A") (A') (A") (A") (A")
                 (A') (A') (A') (A') (A") (A') (A") (A') (A") (A")
                 (A") (A') (A') (A') (A') (A") (A") (A') (A") (A')
                 (A') (A") (A') (A') (A') (A') (A') (A") (A') (A')
                 (A") (A") (A') (A') (A') (A') (A') (A') (A') (A')
                 (A') (A') (A") (A") (A') (A') (A") (A") (A") (A')
                 (A') (A') (A") (A") (A') (A") (A') (A') (A') (A")
                 (A') (A") (A') (A") (A') (A') (A') (A") (A') (A")
                 (A') (A") (A') (A') (A') (A') (A') (A') (A') (A")
                 (A') (A") (A') (A') (A') (A') (A') (A') (A') (A')
                 (A') (A') (A') (A') (A') (A') (A') (A') (A') (A')
                 (A') (A') (A') (A') (A') (A') (A') (A') (A') (A')
                 (A') (A') (A') (A') (A') (A') (A')
 The electronic state of the initial guess is 1-A'.
 Leave Link  401 at Fri Jul  9 19:19:46 2021, MaxMem=  4194304000 cpu:        58.5
 (Enter /home/minenky/programs//g09/l502.exe)
 Closed shell SCF:
 Using DIIS extrapolation, IDIIS=  1040.
 Integral symmetry usage will be decided dynamically.
 IVT=     1115456 IEndB=     1115456 NGot=  4194304000 MDV=  4193652365
 LenX=  4193652365 LenY=  4193333705
 Requested convergence on RMS density matrix=1.00D-08 within 380 cycles.
 Requested convergence on MAX density matrix=1.00D-06.
 Requested convergence on             energy=1.00D-06.
 No special actions if energy rises.
 Fock matrices will be formed incrementally for  20 cycles.
 Integral accuracy reduced to 1.0D-05 until final iterations.

 Cycle   1  Pass 0  IDiag  1:
 FoFJK:  IHMeth= 1 ICntrl=       0 DoSepK=T KAlg= 0 I1Cent=   0 FoldK=F
 IRaf=         1 NMat=   1 IRICut=       1 DoRegI=T DoRafI=F ISym2E= 1.
 FoFCou: FMM=F IPFlag=           0 FMFlag=      100000 FMFlg1=           0
         NFxFlg=           0 DoJE=T BraDBF=F KetDBF=F FulRan=T
         wScrn=  0.000000 ICntrl=     500 IOpCl=  0 I1Cent=           0 NGrid=           0
         NMat0=    1 NMatS0=      1 NMatT0=    0 NMatD0=    1 NMtDS0=    0 NMtDT0=    0
 Petite list used in FoFCou.
 E= -539.391985752477    
 DIIS: error= 5.66D-02 at cycle   1 NSaved=   1.
 NSaved= 1 IEnMin= 1 EnMin= -539.391985752477     IErMin= 1 ErrMin= 5.66D-02
 ErrMax= 5.66D-02  0.00D+00 EMaxC= 1.00D-01 BMatC= 1.15D+00 BMatP= 1.15D+00
 IDIUse=3 WtCom= 4.34D-01 WtEn= 5.66D-01
 Coeff-Com:  0.100D+01
 Coeff-En:   0.100D+01
 Coeff:      0.100D+01
 Gap=     0.254 Goal=   None    Shift=    0.000
 GapD=    0.254 DampG=1.000 DampE=0.500 DampFc=0.5000 IDamp=-1.
 Damping current iteration by 5.00D-01
 RMSDP=6.82D-03 MaxDP=2.92D-01              OVMax= 4.26D-02

 Cycle   2  Pass 0  IDiag  1:
 RMSU=  3.41D-03    CP:  1.02D+00
 E= -539.456496023312     Delta-E=       -0.064510270835 Rises=F Damp=T
 DIIS: error= 2.65D-02 at cycle   2 NSaved=   2.
 NSaved= 2 IEnMin= 2 EnMin= -539.456496023312     IErMin= 2 ErrMin= 2.65D-02
 ErrMax= 2.65D-02  0.00D+00 EMaxC= 1.00D-01 BMatC= 2.58D-01 BMatP= 1.15D+00
 IDIUse=3 WtCom= 7.35D-01 WtEn= 2.65D-01
 Coeff-Com: -0.884D+00 0.188D+01
 Coeff-En:   0.000D+00 0.100D+01
 Coeff:     -0.650D+00 0.165D+01
 Gap=     0.257 Goal=   None    Shift=    0.000
 RMSDP=5.36D-03 MaxDP=2.41D-01 DE=-6.45D-02 OVMax= 2.92D-02

 Cycle   3  Pass 0  IDiag  1:
 RMSU=  1.49D-03    CP:  1.06D+00  2.51D+00
 E= -539.516679589506     Delta-E=       -0.060183566193 Rises=F Damp=F
 DIIS: error= 3.12D-03 at cycle   3 NSaved=   3.
[...]
 41,-0.15706959,0.,0.01160869,-0.00124400,0.,0.03007619,0.02973758,0.,-
 0.01028463,0.00658488,0.,0.78811144,-0.03466391,0.03377389,0.,-0.04105
 895,-0.01767398,0.,0.03247185,0.00070712,0.,-0.09874863,-0.20711261,0.
 ,0.02554972,-0.00330839,0.,0.07027937,-0.03067089,0.,-0.01718998,0.013
 61438,0.,0.00424076,0.65119656,0.,0.,0.00664584,0.,0.,-0.00695956,0.,0
 .,0.00510151,0.,0.,-0.06043111,0.,0.,-0.00079045,0.,0.,0.00727472,0.,0
 .,-0.00019173,0.,0.,0.13346647,-0.02982204,-0.02878273,0.,-0.07835393,
 0.01821086,0.,0.04802437,0.02885260,0.,0.01515069,-0.00192746,0.,-0.25
 753462,-0.11724187,0.,0.02141489,0.00649664,0.,-0.15335156,0.01202460,
 0.,-0.00813267,-0.01576160,0.,0.71199403,-0.02878274,-0.02263507,0.,-0
 .01821089,0.03748836,0.,0.05503695,-0.02335752,0.,0.01392389,-0.001600
 50,0.,-0.07962549,-0.18575995,0.,0.01912522,-0.00112310,0.,-0.01202458
 ,-0.25670531,0.,-0.00663537,-0.01240238,0.,0.01673312,0.64862775,0.,0.
 ,-0.00609397,0.,0.,0.00609868,0.,0.,0.00766206,0.,0.,-0.00085660,0.,0.
 ,-0.06709803,0.,0.,0.00805154,0.,0.,-0.07847959,0.,0.,0.00047031,0.,0.
 ,0.16724152,-0.01930110,0.01145293,0.,-0.06385218,0.00272536,0.,0.0116
 0870,0.00124400,0.,0.03007620,-0.02973756,0.,0.01578166,-0.00722337,0.
 ,-0.35308946,0.15706956,0.,-0.00813267,0.00663537,0.,-0.12589222,-0.03
 136408,0.,-0.01028463,-0.00658489,0.,0.78811144,0.04105895,-0.01767397
 ,0.,0.03466389,0.03377390,0.,-0.02554971,-0.00330839,0.,-0.07027936,-0
 .03067091,0.,-0.03247185,0.00070711,0.,0.09874861,-0.20711256,0.,0.015
 76161,-0.01240238,0.,0.03136410,-0.27871764,0.,0.01718997,0.01361438,0
 .,-0.00424073,0.65119656,0.,0.,-0.00695956,0.,0.,0.00664584,0.,0.,-0.0
 0079045,0.,0.,0.00727472,0.,0.,0.00510151,0.,0.,-0.06043111,0.,0.,0.00
 047031,0.,0.,-0.06239801,0.,0.,-0.00019173,0.,0.,0.13346647,0.02141489
 ,0.01912521,0.,0.01515069,-0.01392389,0.,-0.07553130,-0.00846539,0.,-0
 .01174206,0.00069077,0.,-0.02262377,0.00012662,0.,-0.00784286,-0.00096
 619,0.,-0.21176422,-0.07301889,0.,0.00471732,0.00937451,0.,0.03985592,
 -0.03192648,0.,0.00407982,-0.00832525,0.,0.69897712,0.00649663,-0.0011
 2310,0.,0.00192746,-0.00160050,0.,0.01049553,0.01632450,0.,-0.00069077
 ,0.00138173,0.,0.00036103,-0.00556552,0.,-0.00096619,-0.00012746,0.,-0
 .09025131,-0.16779567,0.,0.00091686,0.00078588,0.,-0.03004549,-0.01900
 056,0.,0.00055296,-0.00083696,0.,-0.07133413,0.74765877,0.,0.,0.008051
 54,0.,0.,-0.00085660,0.,0.,0.00429625,0.,0.,0.00033674,0.,0.,0.0044939
 7,0.,0.,-0.00073414,0.,0.,-0.06871489,0.,0.,-0.00053761,0.,0.,0.006116
 84,0.,0.,0.00012101,0.,0.,0.13619185,0.01515069,0.01392389,0.,0.021414
 89,-0.01912521,0.,-0.02262377,-0.00012662,0.,-0.00784286,0.00096619,0.
 ,-0.07553130,0.00846538,0.,-0.01174206,-0.00069077,0.,0.03985590,0.031
 92650,0.,0.00407982,0.00832525,0.,-0.21176425,0.07301888,0.,0.00471733
 ,-0.00937451,0.,-0.05494688,0.00341808,0.,0.69897709,-0.00192746,-0.00
 160050,0.,-0.00649663,-0.00112311,0.,-0.00036103,-0.00556552,0.,0.0009
 6619,-0.00012746,0.,-0.01049555,0.01632450,0.,0.00069077,0.00138173,0.
 ,0.03004550,-0.01900055,0.,-0.00055296,-0.00083695,0.,0.09025131,-0.16
 779564,0.,-0.00091686,0.00078588,0.,-0.00341809,-0.00079055,0.,0.07133
 412,0.74765880,0.,0.,-0.00085660,0.,0.,0.00805154,0.,0.,0.00449397,0.,
 0.,-0.00073414,0.,0.,0.00429625,0.,0.,0.00033674,0.,0.,0.00611684,0.,0
 .,0.00012101,0.,0.,-0.06871489,0.,0.,-0.00053761,0.,0.,-0.00285427,0.,
 0.,0.13619185,-0.01028463,-0.00658488,0.,-0.00813267,0.00663537,0.,0.0
 1578166,-0.00722337,0.,0.00471733,-0.00091685,0.,0.01160869,0.00124400
 ,0.,0.00407982,0.00055296,0.,-0.06385217,0.00272536,0.,-0.00205331,-0.
 00446353,0.,-0.01930109,0.01145293,0.,-0.00237993,0.00372093,0.,-0.353
 08952,0.15706960,0.,0.03007620,-0.02973756,0.,0.78811150,0.01718998,0.
 01361438,0.,0.01576160,-0.01240238,0.,-0.03247185,0.00070711,0.,-0.009
 37451,0.00078588,0.,-0.02554971,-0.00330839,0.,-0.00832525,-0.00083695
 ,0.,0.03466389,0.03377389,0.,0.00446353,0.00772659,0.,0.04105894,-0.01
 767396,0.,0.00372093,-0.00802167,0.,0.09874866,-0.20711258,0.,-0.07027
 934,-0.03067091,0.,-0.00424078,0.65119650,0.,0.,-0.00019173,0.,0.,0.00
 047031,0.,0.,0.00510151,0.,0.,-0.00053761,0.,0.,-0.00079045,0.,0.,0.00
 012101,0.,0.,0.00664584,0.,0.,0.00000842,0.,0.,-0.00695956,0.,0.,-0.00
 003959,0.,0.,-0.06043111,0.,0.,0.00727472,0.,0.,0.13346648,-0.00813267
 ,-0.00663537,0.,-0.01028463,0.00658488,0.,0.01160869,-0.00124400,0.,0.
 00407982,-0.00055296,0.,0.01578165,0.00722337,0.,0.00471733,0.00091686
 ,0.,-0.01930108,-0.01145293,0.,-0.00237993,-0.00372093,0.,-0.06385217,
 -0.00272538,0.,-0.00205331,0.00446353,0.,0.03007618,0.02973757,0.,-0.3
 5308948,-0.15706962,0.,-0.12589221,0.03136410,0.,0.78811150,-0.0157616
 0,-0.01240238,0.,-0.01718998,0.01361437,0.,0.02554971,-0.00330839,0.,0
 .00832525,-0.00083695,0.,0.03247186,0.00070712,0.,0.00937451,0.0007858
 8,0.,-0.04105894,-0.01767397,0.,-0.00372093,-0.00802167,0.,-0.03466390
 ,0.03377388,0.,-0.00446353,0.00772659,0.,0.07027935,-0.03067089,0.,-0.
 09874868,-0.20711262,0.,-0.03136407,-0.27871757,0.,0.00424081,0.651196
 50,0.,0.,0.00047031,0.,0.,-0.00019173,0.,0.,-0.00079045,0.,0.,0.000121
 01,0.,0.,0.00510151,0.,0.,-0.00053761,0.,0.,-0.00695956,0.,0.,-0.00003
 959,0.,0.,0.00664584,0.,0.,0.00000842,0.,0.,0.00727472,0.,0.,-0.060431
 11,0.,0.,-0.06239802,0.,0.,0.13346648,0.00413250,-0.02767832,0.,-0.004
 44004,-0.00155185,0.,-0.05971208,0.00000003,0.,0.00117789,-0.00171198,
 0.,-0.00117842,0.,0.,0.00025437,-0.00133512,0.,0.00413249,0.02767832,0
 .,0.00020823,0.00058054,0.,-0.00444004,0.00155185,0.,0.00019078,-0.000
 28293,0.,0.00117789,0.00171198,0.,0.00025437,0.00133512,0.,0.00020823,
 -0.00058054,0.,0.00019078,0.00028293,0.,0.05957634,0.00239935,-0.01297
 494,0.,-0.00298997,0.00080659,0.,0.00000003,-0.33512733,0.,0.00181909,
 0.00103728,0.,0.,0.00058026,0.,0.00073620,-0.00072517,0.,-0.00239935,-
 0.01297494,0.,-0.00029148,-0.00004192,0.,0.00298997,0.00080659,0.,-0.0
 0014024,0.00025745,0.,-0.00181909,0.00103728,0.,-0.00073620,-0.0007251
 7,0.,0.00029147,-0.00004192,0.,0.00014024,0.00025745,0.,-0.00000003,0.
 35745612,0.,0.,0.00398754,0.,0.,0.00631165,0.,0.,-0.03601419,0.,0.,-0.
 00403809,0.,0.,-0.00091250,0.,0.,0.00000497,0.,0.,0.00398754,0.,0.,-0.
 00010414,0.,0.,0.00631165,0.,0.,-0.00017813,0.,0.,-0.00403809,0.,0.,0.
 00000497,0.,0.,-0.00010414,0.,0.,-0.00017813,0.,0.,0.02434253,0.003753
 00,0.02754107,0.,-0.00464291,0.00132764,0.,0.00138707,0.00150483,0.,-0
 .05935091,0.00134785,0.,0.00030602,0.00140432,0.,-0.00099535,-0.000039
 88,0.,0.00017820,-0.00049841,0.,0.00464152,-0.02917993,0.,0.00025303,0
 .00015400,0.,-0.00448809,-0.00198224,0.,-0.00007188,-0.00000154,0.,-0.
 00006811,-0.00008146,0.,0.00006264,-0.00002095,0.,-0.00003859,0.000079
 39,0.,-0.00052250,-0.00085835,0.,0.05893846,-0.00253216,-0.01236401,0.
 ,0.00284165,0.00076218,0.,-0.00166358,0.00101538,0.,0.00045086,-0.3387
 4621,0.,-0.00075505,-0.00070033,0.,0.00013625,0.00063522,0.,0.00045036
 ,0.00012262,0.,0.00306542,-0.01178821,0.,0.00011052,0.00022587,0.,-0.0
 0318841,0.00071089,0.,-0.00010859,-0.00009452,0.,-0.00009299,0.0001213
 9,0.,0.00006645,-0.00012097,0.,0.00012976,0.00006187,0.,0.00084772,0.0
 0038514,0.,0.00019587,0.35984002,0.,0.,0.00298715,0.,0.,0.00450928,0.,
 0.,-0.00240410,0.,0.,-0.03661421,0.,0.,0.00002976,0.,0.,-0.00085231,0.
 ,0.,-0.00018733,0.,0.,0.00431390,0.,0.,-0.00013409,0.,0.,0.00939201,0.
 ,0.,0.00011647,0.,0.,0.00003570,0.,0.,-0.00000498,0.,0.,-0.00001578,0.
 ,0.,0.00025387,0.,0.,0.02501452,-0.00444004,0.00155185,0.,0.00413249,0
 .02767832,0.,-0.00117842,0.,0.,0.00025437,0.00133512,0.,-0.05971208,0.
 00000002,0.,0.00117789,0.00171198,0.,-0.00444004,-0.00155185,0.,0.0001
 9078,0.00028293,0.,0.00413250,-0.02767832,0.,0.00020823,-0.00058054,0.
 ,0.00025437,-0.00133512,0.,0.00117789,-0.00171198,0.,0.00019078,-0.000
 28293,0.,0.00020823,0.00058054,0.,0.00011077,0.,0.,-0.00037344,0.00021
 704,0.,0.05957634,0.00298997,0.00080659,0.,-0.00239935,-0.01297494,0.,
 0.,0.00058026,0.,-0.00073620,-0.00072517,0.,0.00000002,-0.33512733,0.,
 -0.00181909,0.00103728,0.,-0.00298997,0.00080659,0.,0.00014024,0.00025
 745,0.,0.00239935,-0.01297494,0.,0.00029148,-0.00004192,0.,0.00073620,
 -0.00072517,0.,0.00181909,0.00103728,0.,-0.00014024,0.00025745,0.,-0.0
 0029147,-0.00004192,0.,0.,-0.00016207,0.,0.00022618,-0.00014338,0.,-0.
 00000002,0.35745612,0.,0.,0.00631165,0.,0.,0.00398754,0.,0.,-0.0009125
 0,0.,0.,0.00000497,0.,0.,-0.03601419,0.,0.,-0.00403809,0.,0.,0.0063116
 5,0.,0.,-0.00017813,0.,0.,0.00398754,0.,0.,-0.00010414,0.,0.,0.0000049
 7,0.,0.,-0.00403809,0.,0.,-0.00017813,0.,0.,-0.00010414,0.,0.,-0.00108
 104,0.,0.,0.00026973,0.,0.,0.02434253,-0.00464291,-0.00132764,0.,0.003
 75300,-0.02754107,0.,0.00030602,-0.00140432,0.,-0.00099535,0.00003988,
 0.,0.00138707,-0.00150483,0.,-0.05935091,-0.00134780,0.,0.00025303,-0.
 00015400,0.,-0.00448809,0.00198224,0.,0.00017820,0.00049841,0.,0.00464
 152,0.02917994,0.,-0.00006811,0.00008146,0.,-0.00007188,0.00000154,0.,
 -0.00003859,-0.00007939,0.,0.00006264,0.00002095,0.,-0.00037344,-0.000
 22618,0.,0.00014974,-0.00000190,0.,-0.00052250,0.00085835,0.,0.0589384
 6,-0.00284166,0.00076218,0.,0.00253216,-0.01236402,0.,0.00075505,-0.00
 070033,0.,-0.00013625,0.00063522,0.,0.00166358,0.00101538,0.,-0.000450
 81,-0.33874621,0.,-0.00011052,0.00022587,0.,0.00318841,0.00071089,0.,-
 0.00045036,0.00012262,0.,-0.00306541,-0.01178820,0.,0.00009299,0.00012
 139,0.,0.00010859,-0.00009452,0.,-0.00012976,0.00006187,0.,-0.00006645
 ,-0.00012097,0.,-0.00021704,-0.00014338,0.,0.00000190,-0.00010746,0.,-
 0.00084772,0.00038514,0.,-0.00019593,0.35984002,0.,0.,0.00450928,0.,0.
 ,0.00298715,0.,0.,0.00002976,0.,0.,-0.00085231,0.,0.,-0.00240410,0.,0.
 ,-0.03661421,0.,0.,-0.00013409,0.,0.,0.00939201,0.,0.,-0.00018733,0.,0
 .,0.00431390,0.,0.,0.00003570,0.,0.,0.00011647,0.,0.,-0.00001578,0.,0.
 ,-0.00000498,0.,0.,0.00026973,0.,0.,-0.00122476,0.,0.,0.00025387,0.,0.
 ,0.02501452,-0.00260063,-0.00414064,0.,-0.00006519,-0.00053849,0.,-0.0
 0044441,0.00117477,0.,-0.01930836,0.01637630,0.,0.00032121,0.00005452,
 0.,0.00148873,-0.00055714,0.,-0.00050113,-0.00023687,0.,-0.27369391,0.
 12038192,0.,-0.00010977,-0.00014927,0.,0.00389727,-0.00272111,0.,0.000
 04201,0.00015479,0.,0.00010027,-0.00002172,0.,-0.00012506,0.00003555,0
 .,-0.00004448,-0.00010344,0.,-0.00000476,-0.00006164,0.,0.00085798,-0.
 00035397,0.,-0.00002134,0.00003340,0.,0.00003931,-0.00016613,0.,0.2895
 7742,-0.00336652,-0.00157487,0.,-0.00114784,-0.00029469,0.,-0.00003001
 ,0.00069101,0.,-0.01590229,0.01200247,0.,0.00052161,0.00010073,0.,-0.0
 0140268,-0.00583080,0.,-0.00041480,0.00005889,0.,0.12155342,-0.1285066
 7,0.,-0.00026677,-0.00021799,0.,0.02884972,-0.00963481,0.,0.00009698,0
 .00006870,0.,0.00015035,0.00000454,0.,-0.00006724,0.00012549,0.,-0.000
 06676,-0.00012303,0.,0.00001400,-0.00001774,0.,0.00029743,0.00084607,0
 .,-0.00006541,0.00004320,0.,0.00137218,-0.00068631,0.,-0.12964284,0.13
 205357,0.,0.,0.01030182,0.,0.,-0.00082812,0.,0.,0.00016703,0.,0.,0.003
 82043,0.,0.,-0.00066515,0.,0.,0.00477705,0.,0.,-0.00093232,0.,0.,-0.03
 726126,0.,0.,0.00009199,0.,0.,0.00205028,0.,0.,-0.00007655,0.,0.,0.000
 07223,0.,0.,0.00009441,0.,0.,-0.00002655,0.,0.,0.00026835,0.,0.,-0.005
 58053,0.,0.,0.00005685,0.,0.,0.00007682,0.,0.,0.02570791,-0.00006519,0
 .00053849,0.,-0.00260063,0.00414064,0.,0.00032121,-0.00005452,0.,0.001
 48873,0.00055714,0.,-0.00044441,-0.00117477,0.,-0.01930836,-0.01637630
 ,0.,-0.00010977,0.00014927,0.,0.00389727,0.00272111,0.,-0.00050113,0.0
 0023687,0.,-0.27369386,-0.12038194,0.,0.00010028,0.00002172,0.,0.00004
 201,-0.00015479,0.,-0.00004448,0.00010344,0.,-0.00012506,-0.00003555,0
 .,-0.00002134,-0.00003340,0.,0.00003931,0.00016613,0.,-0.00000476,0.00
 006164,0.,0.00085798,0.00035397,0.,0.00062496,-0.00047725,0.,0.2895773
 7,0.00114784,-0.00029469,0.,0.00336652,-0.00157487,0.,-0.00052161,0.00
 010073,0.,0.00140268,-0.00583080,0.,0.00003001,0.00069101,0.,0.0159022
 8,0.01200247,0.,0.00026677,-0.00021799,0.,-0.02884972,-0.00963482,0.,0
 .00041480,0.00005889,0.,-0.12155345,-0.12850671,0.,-0.00015035,0.00000
 454,0.,-0.00009698,0.00006870,0.,0.00006676,-0.00012303,0.,0.00006724,
 0.00012549,0.,0.00006541,0.00004320,0.,-0.00137218,-0.00068631,0.,-0.0
 0001400,-0.00001774,0.,-0.00029743,0.00084607,0.,0.00047725,0.00088062
 ,0.,0.12964287,0.13205362,0.,0.,-0.00082812,0.,0.,0.01030182,0.,0.,-0.
 00066515,0.,0.,0.00477705,0.,0.,0.00016703,0.,0.,0.00382043,0.,0.,0.00
 009199,0.,0.,0.00205028,0.,0.,-0.00093232,0.,0.,-0.03726126,0.,0.,0.00
 007223,0.,0.,-0.00007655,0.,0.,-0.00002655,0.,0.,0.00009441,0.,0.,0.00
 005685,0.,0.,0.00007682,0.,0.,0.00026835,0.,0.,-0.00558053,0.,0.,-0.00
 210878,0.,0.,0.02570791,0.00017820,0.00049841,0.,0.00025303,-0.0001540
 0,0.,0.00138707,-0.00150483,0.,-0.00007188,0.00000154,0.,0.00030602,-0
 .00140432,0.,-0.00006811,0.00008146,0.,0.00375300,-0.02754107,0.,0.000
 06264,0.00002095,0.,-0.00464291,-0.00132764,0.,-0.00003859,-0.00007939
 ,0.,-0.05935091,-0.00134779,0.,-0.00099535,0.00003988,0.,0.00464152,0.
 02917994,0.,-0.00448809,0.00198224,0.,-0.00052250,0.00085835,0.,-0.000
 03335,0.00001269,0.,-0.00037344,-0.00022618,0.,0.00001499,0.00001972,0
 .,0.00000302,0.00000565,0.,0.00000015,0.00000748,0.,0.05893846,-0.0004
 5036,0.00012262,0.,-0.00011052,0.00022587,0.,0.00166357,0.00101538,0.,
 0.00010859,-0.00009452,0.,0.00075505,-0.00070033,0.,0.00009299,0.00012
 139,0.,0.00253216,-0.01236402,0.,-0.00006645,-0.00012097,0.,-0.0028416
 6,0.00076217,0.,-0.00012976,0.00006187,0.,-0.00045080,-0.33874621,0.,-
 0.00013625,0.00063522,0.,-0.00306541,-0.01178821,0.,0.00318841,0.00071
 089,0.,-0.00084772,0.00038514,0.,-0.00001269,0.00002557,0.,-0.00021704
 ,-0.00014338,0.,0.00001972,-0.00000754,0.,-0.00001534,0.00000224,0.,-0
 .00001032,0.00000448,0.,-0.00019593,0.35984002,0.,0.,-0.00018733,0.,0.
 ,-0.00013409,0.,0.,-0.00240410,0.,0.,0.00011647,0.,0.,0.00002976,0.,0.
 ,0.00003570,0.,0.,0.00298715,0.,0.,-0.00000498,0.,0.,0.00450928,0.,0.,
 -0.00001578,0.,0.,-0.03661421,0.,0.,-0.00085231,0.,0.,0.00431390,0.,0.
 ,0.00939201,0.,0.,0.00025387,0.,0.,0.00001058,0.,0.,0.00026973,0.,0.,0
 .00001653,0.,0.,-0.00000861,0.,0.,0.00000039,0.,0.,0.02501452,0.000253
 03,0.00015400,0.,0.00017820,-0.00049841,0.,0.00030602,0.00140432,0.,-0
 .00006811,-0.00008146,0.,0.00138707,0.00150483,0.,-0.00007188,-0.00000
 154,0.,-0.00464291,0.00132764,0.,-0.00003859,0.00007939,0.,0.00375300,
 0.02754107,0.,0.00006264,-0.00002095,0.,-0.00099535,-0.00003988,0.,-0.
 05935091,0.00134784,0.,-0.00448809,-0.00198224,0.,0.00464152,-0.029179
 93,0.,-0.00037344,0.00022618,0.,0.00001499,-0.00001972,0.,-0.00052250,
 -0.00085835,0.,-0.00003335,-0.00001269,0.,0.00000015,-0.00000748,0.,0.
 00000302,-0.00000565,0.,0.00014974,0.00000190,0.,0.05893846,0.00011052
 ,0.00022587,0.,0.00045036,0.00012262,0.,-0.00075505,-0.00070033,0.,-0.
 00009299,0.00012139,0.,-0.00166357,0.00101538,0.,-0.00010859,-0.000094
 52,0.,0.00284166,0.00076218,0.,0.00012976,0.00006187,0.,-0.00253216,-0
 .01236401,0.,0.00006645,-0.00012097,0.,0.00013625,0.00063522,0.,0.0004
 5086,-0.33874621,0.,-0.00318841,0.00071089,0.,0.00306541,-0.01178821,0
 .,0.00021704,-0.00014338,0.,-0.00001972,-0.00000754,0.,0.00084772,0.00
 038514,0.,0.00001269,0.00002557,0.,0.00001032,0.00000448,0.,0.00001534
 ,0.00000224,0.,-0.00000190,-0.00010746,0.,0.00019588,0.35984002,0.,0.,
 -0.00013409,0.,0.,-0.00018733,0.,0.,0.00002976,0.,0.,0.00003570,0.,0.,
 -0.00240410,0.,0.,0.00011647,0.,0.,0.00450928,0.,0.,-0.00001578,0.,0.,
 0.00298715,0.,0.,-0.00000498,0.,0.,-0.00085231,0.,0.,-0.03661421,0.,0.
 ,0.00939201,0.,0.,0.00431390,0.,0.,0.00026973,0.,0.,0.00001653,0.,0.,0
 .00025387,0.,0.,0.00001058,0.,0.,0.00000039,0.,0.,-0.00000861,0.,0.,-0
 .00122476,0.,0.,0.02501452,-0.00050113,0.00023687,0.,-0.00010977,0.000
 14927,0.,-0.00044441,-0.00117477,0.,0.00004201,-0.00015479,0.,0.000321
 21,-0.00005452,0.,0.00010028,0.00002172,0.,-0.00260063,0.00414064,0.,-
 0.00012506,-0.00003555,0.,-0.00006519,0.00053849,0.,-0.00004448,0.0001
 0344,0.,-0.01930836,-0.01637630,0.,0.00148872,0.00055714,0.,-0.2736938
 7,-0.12038194,0.,0.00389727,0.00272111,0.,-0.00000476,0.00006164,0.,0.
 00000302,0.00001534,0.,-0.00002134,-0.00003340,0.,0.00000015,-0.000010
 32,0.,-0.00002163,-0.00000662,0.,-0.00001166,-0.00000318,0.,0.00085798
 ,0.00035397,0.,0.00003931,0.00016613,0.,0.28957737,0.00041480,0.000058
 89,0.,0.00026677,-0.00021799,0.,0.00003001,0.00069101,0.,-0.00009698,0
 .00006870,0.,-0.00052161,0.00010073,0.,-0.00015035,0.00000454,0.,0.003
 36652,-0.00157487,0.,0.00006724,0.00012549,0.,0.00114784,-0.00029468,0
 .,0.00006676,-0.00012303,0.,0.01590229,0.01200247,0.,0.00140268,-0.005
 83080,0.,-0.12155344,-0.12850670,0.,-0.02884972,-0.00963482,0.,-0.0000
 1400,-0.00001774,0.,-0.00000565,0.00000224,0.,0.00006541,0.00004320,0.
 ,0.00000748,0.00000448,0.,0.00000662,0.00000670,0.,-0.00000318,-0.0000
 0179,0.,-0.00029743,0.00084607,0.,-0.00137218,-0.00068631,0.,0.1296428
 7,0.13205361,0.,0.,-0.00093232,0.,0.,0.00009199,0.,0.,0.00016703,0.,0.
 ,-0.00007655,0.,0.,-0.00066515,0.,0.,0.00007223,0.,0.,0.01030182,0.,0.
 ,0.00009441,0.,0.,-0.00082812,0.,0.,-0.00002655,0.,0.,0.00382043,0.,0.
 ,0.00477705,0.,0.,-0.03726126,0.,0.,0.00205028,0.,0.,0.00026835,0.,0.,
 -0.00000861,0.,0.,0.00005685,0.,0.,0.00000039,0.,0.,0.00001299,0.,0.,-
 0.00001069,0.,0.,-0.00558053,0.,0.,0.00007682,0.,0.,0.02570791,-0.0001
 0977,-0.00014927,0.,-0.00050113,-0.00023687,0.,0.00032121,0.00005452,0
 .,0.00010028,-0.00002172,0.,-0.00044441,0.00117477,0.,0.00004201,0.000
 15479,0.,-0.00006519,-0.00053849,0.,-0.00004448,-0.00010344,0.,-0.0026
 0063,-0.00414064,0.,-0.00012506,0.00003555,0.,0.00148872,-0.00055714,0
 .,-0.01930836,0.01637630,0.,0.00389727,-0.00272111,0.,-0.27369392,0.12
 038191,0.,-0.00002134,0.00003340,0.,0.00000015,0.00001032,0.,-0.000004
 76,-0.00006164,0.,0.00000302,-0.00001534,0.,-0.00001166,0.00000318,0.,
 -0.00002163,0.00000662,0.,0.00003931,-0.00016613,0.,0.00085798,-0.0003
 5397,0.,0.00062496,0.00047725,0.,0.28957742,-0.00026677,-0.00021799,0.
 ,-0.00041480,0.00005889,0.,0.00052161,0.00010073,0.,0.00015035,0.00000
 454,0.,-0.00003001,0.00069101,0.,0.00009698,0.00006870,0.,-0.00114784,
 -0.00029469,0.,-0.00006676,-0.00012303,0.,-0.00336652,-0.00157487,0.,-
 0.00006724,0.00012549,0.,-0.00140268,-0.00583080,0.,-0.01590229,0.0120
 0247,0.,0.02884972,-0.00963481,0.,0.12155342,-0.12850666,0.,-0.0000654
 1,0.00004320,0.,-0.00000748,0.00000448,0.,0.00001400,-0.00001774,0.,0.
 00000565,0.00000224,0.,0.00000318,-0.00000179,0.,-0.00000662,0.0000067
 0,0.,0.00137218,-0.00068631,0.,0.00029743,0.00084607,0.,-0.00047725,0.
 00088062,0.,-0.12964284,0.13205356,0.,0.,0.00009199,0.,0.,-0.00093232,
 0.,0.,-0.00066515,0.,0.,0.00007223,0.,0.,0.00016703,0.,0.,-0.00007655,
 0.,0.,-0.00082812,0.,0.,-0.00002655,0.,0.,0.01030182,0.,0.,0.00009441,
 0.,0.,0.00477705,0.,0.,0.00382043,0.,0.,0.00205028,0.,0.,-0.03726126,0
 .,0.,0.00005685,0.,0.,0.00000039,0.,0.,0.00026835,0.,0.,-0.00000861,0.
 ,0.,-0.00001069,0.,0.,0.00001299,0.,0.,0.00007682,0.,0.,-0.00558053,0.
 ,0.,-0.00210878,0.,0.,0.02570791\\0.00000013,0.00000144,0.,0.00000013,
 -0.00000144,0.,-0.00000002,-0.00000280,0.,0.00000018,0.00000010,0.,-0.
 00000002,0.00000280,0.,0.00000018,-0.00000010,0.,-0.00000011,0.0000014
 3,0.,0.00000063,0.00000052,0.,-0.00000011,-0.00000143,0.,0.00000063,-0
 .00000052,0.,-0.00000020,0.00000010,0.,-0.00000020,-0.00000010,0.,-0.0
 0000062,0.00000050,0.,-0.00000062,-0.00000050,0.,0.,0.00000041,0.,-0.0
 0000022,-0.00000011,0.,0.,-0.00000041,0.,-0.00000022,0.00000011,0.,-0.
 00000031,-0.00000022,0.,-0.00000031,0.00000022,0.,0.00000022,-0.000000
 11,0.,0.00000022,0.00000011,0.,0.00000031,-0.00000021,0.,0.00000031,0.
 00000021,0.\\\@


 THE POLHOLDE ROLLS WITHOUT SLIPPING ON THE HERPOLHOLDE LYING IN
 THE INVARIABLE PLANE.
 H.GOLDSTEIN, "CLASSICAL MECHANICS", PG 161
 Job cpu time:       0 days  6 hours 43 minutes 28.2 seconds.
 File lengths (MBytes):  RWF=    318 Int=      0 D2E=      0 Chk=     19 Scr=      1
 Normal termination of Gaussian 09 at Fri Jul  9 20:22:18 2021.
