 Entering Gaussian System, Link 0=g09
 Initial command:
 /home/minenky/programs//g09/l1.exe "/local/scratch/minenky/m1_00_120835-92-9-C32H16_wB97XD/Gau-451881.inp" -scrdir="/local/scratch/minenky/m1_00_120835-92-9-C32H16_wB97XD/"
 Entering Link 1 = /home/minenky/programs//g09/l1.exe PID=    451882.
  
 Copyright (c) 1988,1990,1992,1993,1995,1998,2003,2009,2013,
            Gaussian, Inc.  All Rights Reserved.
  
 This is part of the Gaussian(R) 09 program.  It is based on
 the Gaussian(R) 03 system (copyright 2003, Gaussian, Inc.),
 the Gaussian(R) 98 system (copyright 1998, Gaussian, Inc.),
 the Gaussian(R) 94 system (copyright 1995, Gaussian, Inc.),
 the Gaussian 92(TM) system (copyright 1992, Gaussian, Inc.),
 the Gaussian 90(TM) system (copyright 1990, Gaussian, Inc.),
 the Gaussian 88(TM) system (copyright 1988, Gaussian, Inc.),
 the Gaussian 86(TM) system (copyright 1986, Carnegie Mellon
 University), and the Gaussian 82(TM) system (copyright 1983,
 Carnegie Mellon University). Gaussian is a federally registered
 trademark of Gaussian, Inc.
  
 This software contains proprietary and confidential information,
 including trade secrets, belonging to Gaussian, Inc.
  
 This software is provided under written license and may be
 used, copied, transmitted, or stored only in accord with that
 written license.
  
 The following legend is applicable only to US Government
 contracts under FAR:
  
                    RESTRICTED RIGHTS LEGEND
  
 Use, reproduction and disclosure by the US Government is
 subject to restrictions as set forth in subparagraphs (a)
 and (c) of the Commercial Computer Software - Restricted
 Rights clause in FAR 52.227-19.
  
 Gaussian, Inc.
 340 Quinnipiac St., Bldg. 40, Wallingford CT 06492
  
  
 ---------------------------------------------------------------
 Warning -- This program may not be used in any manner that
 competes with the business of Gaussian, Inc. or will provide
 assistance to any competitor of Gaussian, Inc.  The licensee
 of this program is prohibited from giving any competitor of
 Gaussian, Inc. access to this program.  By using this program,
 the user acknowledges that Gaussian, Inc. is engaged in the
 business of creating and licensing software in the field of
 computational chemistry and represents and warrants to the
 licensee that it is not a competitor of Gaussian, Inc. and that
 it will not use this program in any manner prohibited above.
 ---------------------------------------------------------------
  

 Cite this work as:
 Gaussian 09, Revision D.01,
 M. J. Frisch, G. W. Trucks, H. B. Schlegel, G. E. Scuseria, 
 M. A. Robb, J. R. Cheeseman, G. Scalmani, V. Barone, B. Mennucci, 
 G. A. Petersson, H. Nakatsuji, M. Caricato, X. Li, H. P. Hratchian, 
 A. F. Izmaylov, J. Bloino, G. Zheng, J. L. Sonnenberg, M. Hada, 
 M. Ehara, K. Toyota, R. Fukuda, J. Hasegawa, M. Ishida, T. Nakajima, 
 Y. Honda, O. Kitao, H. Nakai, T. Vreven, J. A. Montgomery, Jr., 
 J. E. Peralta, F. Ogliaro, M. Bearpark, J. J. Heyd, E. Brothers, 
 K. N. Kudin, V. N. Staroverov, T. Keith, R. Kobayashi, J. Normand, 
 K. Raghavachari, A. Rendell, J. C. Burant, S. S. Iyengar, J. Tomasi, 
 M. Cossi, N. Rega, J. M. Millam, M. Klene, J. E. Knox, J. B. Cross, 
 V. Bakken, C. Adamo, J. Jaramillo, R. Gomperts, R. E. Stratmann, 
 O. Yazyev, A. J. Austin, R. Cammi, C. Pomelli, J. W. Ochterski, 
 R. L. Martin, K. Morokuma, V. G. Zakrzewski, G. A. Voth, 
 P. Salvador, J. J. Dannenberg, S. Dapprich, A. D. Daniels, 
 O. Farkas, J. B. Foresman, J. V. Ortiz, J. Cioslowski, 
 and D. J. Fox, Gaussian, Inc., Wallingford CT, 2013.
 
 ******************************************
 Gaussian 09:  AM64L-G09RevD.01 24-Apr-2013
                27-Jul-2019 
 ******************************************
 %Mem=32000MB
 %NProcShared=16
 Will use up to   16 processors via shared memory.
 %Chk=m1_00_120835-92-9-C32H16_wB97XD
 ----------------------------------------------------------------------
 #P wB97XD/def2tzvp opt=(tight) freq integral(Grid=ultrafine) # SCF(Max
 Cycle=380) 5d 7f GFPrint
 ----------------------------------------------------------------------
 1/7=10,14=-1,18=20,19=15,26=4,38=1/1,3;
 2/9=110,12=2,17=6,18=5,40=1/2;
 3/5=44,7=101,8=11,11=2,16=1,24=100,25=1,30=1,71=1,74=-58,75=-5/1,2,3;
 4//1;
 5/5=2,7=380,38=5/2;
 6/7=2,8=2,9=2,10=2,28=1/1;
 7//1,2,3,16;
 1/7=10,14=-1,18=20,19=15,26=4/3(2);
 2/9=110/2;
 99//99;
 2/9=110/2;
 3/5=44,7=101,8=11,11=2,16=1,25=1,30=1,71=1,74=-58,75=-5/1,2,3;
 4/5=5,16=3,69=1/1;
 5/5=2,7=380,38=5/2;
 7//1,2,3,16;
 1/7=10,14=-1,18=20,19=15,26=4/3(-5);
 2/9=110/2;
 6/7=2,8=2,9=2,10=2,19=2,28=1/1;
 99/9=1/99;
 Leave Link    1 at Sat Jul 27 11:01:49 2019, MaxMem=  4194304000 cpu:         1.2
 (Enter /home/minenky/programs//g09/l101.exe)
 ---------------------------------------
 The PBEPBE optimization and frequencies
 ---------------------------------------
 Symbolic Z-matrix:
 Charge =  0 Multiplicity = 1
 C                     5.28167   1.59354   0. 
 C                     4.54175   2.7548    0. 
 C                     3.14095   2.70642   0. 
 C                     4.63231   0.34082   0. 
 C                     4.75097  -2.08468   0. 
 C                     5.38083  -0.88061   0. 
 C                     3.32237  -2.16226   0. 
 C                     1.2953   -3.49025   0. 
 C                     2.65715  -3.42231   0. 
 C                     0.50597  -2.30205   0. 
 C                    -0.90875  -2.36493   0. 
 C                     0.25198   2.56873   0. 
 C                     2.56948  -0.98509   0. 
 C                     3.2249    0.28881   0. 
 C                     2.47158   1.49214   0. 
 C                     1.01108   1.42893   0. 
 C                     0.36552   0.14322   0. 
 C                     1.14223  -1.04992   0. 
 C                    -1.17306   2.51081   0. 
 C                    -1.94274   3.6935    0. 
 C                    -3.31798   3.62281   0. 
 C                    -3.96447   2.38049   0. 
 C                    -1.8188    1.25703   0. 
 C                    -3.23712   1.19914   0. 
 C                    -1.67394  -1.21955   0. 
 C                    -1.03421   0.05986   0. 
 C                    -3.13269  -1.28245   0. 
 C                    -3.89596  -0.10211   0. 
 C                    -5.29661  -0.19065   0. 
 C                    -5.93051  -1.42035   0. 
 C                    -5.17363  -2.59249   0. 
 C                    -3.7919   -2.52175   0. 
 H                     6.37689   1.62988   0. 
 H                     5.0432    3.7283    0. 
 H                     2.55721   3.63995   0. 
 H                     5.32381  -3.01911   0. 
 H                     6.47516  -0.81886   0. 
 H                     0.78323  -4.4593    0. 
 H                     3.26314  -4.33563   0. 
 H                    -1.40236  -3.35025   0. 
 H                     0.74736   3.55346   0. 
 H                    -1.43446   4.66432   0. 
 H                    -3.91759   4.53911   0. 
 H                    -5.0644    2.33435   0. 
 H                    -5.88515   0.73983   0. 
 H                    -7.02392  -1.47495   0. 
 H                    -5.6736   -3.56645   0. 
 H                    -3.18876  -3.44275   0. 
 
 NAtoms=     48 NQM=       48 NQMF=       0 NMMI=      0 NMMIF=      0
                NMic=       0 NMicF=      0.
                    Isotopes and Nuclear Properties:
 (Nuclear quadrupole moments (NQMom) in fm**2, nuclear magnetic moments (NMagM)
  in nuclear magnetons)

  Atom         1           2           3           4           5           6           7           8           9          10
 IAtWgt=          12          12          12          12          12          12          12          12          12          12
 AtmWgt=  12.0000000  12.0000000  12.0000000  12.0000000  12.0000000  12.0000000  12.0000000  12.0000000  12.0000000  12.0000000
 NucSpn=           0           0           0           0           0           0           0           0           0           0
 AtZEff=   0.0000000   0.0000000   0.0000000   0.0000000   0.0000000   0.0000000   0.0000000   0.0000000   0.0000000   0.0000000
 NQMom=    0.0000000   0.0000000   0.0000000   0.0000000   0.0000000   0.0000000   0.0000000   0.0000000   0.0000000   0.0000000
 NMagM=    0.0000000   0.0000000   0.0000000   0.0000000   0.0000000   0.0000000   0.0000000   0.0000000   0.0000000   0.0000000
 AtZNuc=   6.0000000   6.0000000   6.0000000   6.0000000   6.0000000   6.0000000   6.0000000   6.0000000   6.0000000   6.0000000

  Atom        11          12          13          14          15          16          17          18          19          20
 IAtWgt=          12          12          12          12          12          12          12          12          12          12
 AtmWgt=  12.0000000  12.0000000  12.0000000  12.0000000  12.0000000  12.0000000  12.0000000  12.0000000  12.0000000  12.0000000
 NucSpn=           0           0           0           0           0           0           0           0           0           0
 AtZEff=   0.0000000   0.0000000   0.0000000   0.0000000   0.0000000   0.0000000   0.0000000   0.0000000   0.0000000   0.0000000
 NQMom=    0.0000000   0.0000000   0.0000000   0.0000000   0.0000000   0.0000000   0.0000000   0.0000000   0.0000000   0.0000000
 NMagM=    0.0000000   0.0000000   0.0000000   0.0000000   0.0000000   0.0000000   0.0000000   0.0000000   0.0000000   0.0000000
 AtZNuc=   6.0000000   6.0000000   6.0000000   6.0000000   6.0000000   6.0000000   6.0000000   6.0000000   6.0000000   6.0000000

  Atom        21          22          23          24          25          26          27          28          29          30
 IAtWgt=          12          12          12          12          12          12          12          12          12          12
 AtmWgt=  12.0000000  12.0000000  12.0000000  12.0000000  12.0000000  12.0000000  12.0000000  12.0000000  12.0000000  12.0000000
 NucSpn=           0           0           0           0           0           0           0           0           0           0
 AtZEff=   0.0000000   0.0000000   0.0000000   0.0000000   0.0000000   0.0000000   0.0000000   0.0000000   0.0000000   0.0000000
 NQMom=    0.0000000   0.0000000   0.0000000   0.0000000   0.0000000   0.0000000   0.0000000   0.0000000   0.0000000   0.0000000
 NMagM=    0.0000000   0.0000000   0.0000000   0.0000000   0.0000000   0.0000000   0.0000000   0.0000000   0.0000000   0.0000000
 AtZNuc=   6.0000000   6.0000000   6.0000000   6.0000000   6.0000000   6.0000000   6.0000000   6.0000000   6.0000000   6.0000000

  Atom        31          32          33          34          35          36          37          38          39          40
 IAtWgt=          12          12           1           1           1           1           1           1           1           1
 AtmWgt=  12.0000000  12.0000000   1.0078250   1.0078250   1.0078250   1.0078250   1.0078250   1.0078250   1.0078250   1.0078250
 NucSpn=           0           0           1           1           1           1           1           1           1           1
 AtZEff=   0.0000000   0.0000000   0.0000000   0.0000000   0.0000000   0.0000000   0.0000000   0.0000000   0.0000000   0.0000000
 NQMom=    0.0000000   0.0000000   0.0000000   0.0000000   0.0000000   0.0000000   0.0000000   0.0000000   0.0000000   0.0000000
 NMagM=    0.0000000   0.0000000   2.7928460   2.7928460   2.7928460   2.7928460   2.7928460   2.7928460   2.7928460   2.7928460
 AtZNuc=   6.0000000   6.0000000   1.0000000   1.0000000   1.0000000   1.0000000   1.0000000   1.0000000   1.0000000   1.0000000

  Atom        41          42          43          44          45          46          47          48
 IAtWgt=           1           1           1           1           1           1           1           1
 AtmWgt=   1.0078250   1.0078250   1.0078250   1.0078250   1.0078250   1.0078250   1.0078250   1.0078250
 NucSpn=           1           1           1           1           1           1           1           1
 AtZEff=   0.0000000   0.0000000   0.0000000   0.0000000   0.0000000   0.0000000   0.0000000   0.0000000
 NQMom=    0.0000000   0.0000000   0.0000000   0.0000000   0.0000000   0.0000000   0.0000000   0.0000000
 NMagM=    2.7928460   2.7928460   2.7928460   2.7928460   2.7928460   2.7928460   2.7928460   2.7928460
 AtZNuc=   1.0000000   1.0000000   1.0000000   1.0000000   1.0000000   1.0000000   1.0000000   1.0000000
 Leave Link  101 at Sat Jul 27 11:01:49 2019, MaxMem=  4194304000 cpu:         4.8
 (Enter /home/minenky/programs//g09/l103.exe)

 GradGradGradGradGradGradGradGradGradGradGradGradGradGradGradGradGradGrad
 Berny optimization.
 Initialization pass.
                           ----------------------------
                           !    Initial Parameters    !
                           ! (Angstroms and Degrees)  !
 --------------------------                            --------------------------
 ! Name  Definition              Value          Derivative Info.                !
 --------------------------------------------------------------------------------
 ! R1    R(1,2)                  1.377          estimate D2E/DX2                !
 ! R2    R(1,4)                  1.411          estimate D2E/DX2                !
 ! R3    R(1,33)                 1.0958         estimate D2E/DX2                !
 ! R4    R(2,3)                  1.4016         estimate D2E/DX2                !
 ! R5    R(2,34)                 1.0951         estimate D2E/DX2                !
 ! R6    R(3,15)                 1.3866         estimate D2E/DX2                !
 ! R7    R(3,35)                 1.101          estimate D2E/DX2                !
 ! R8    R(4,6)                  1.4325         estimate D2E/DX2                !
 ! R9    R(4,14)                 1.4084         estimate D2E/DX2                !
 ! R10   R(5,6)                  1.3589         estimate D2E/DX2                !
 ! R11   R(5,7)                  1.4307         estimate D2E/DX2                !
 ! R12   R(5,36)                 1.096          estimate D2E/DX2                !
 ! R13   R(6,37)                 1.0961         estimate D2E/DX2                !
 ! R14   R(7,9)                  1.4249         estimate D2E/DX2                !
 ! R15   R(7,13)                 1.3973         estimate D2E/DX2                !
 ! R16   R(8,9)                  1.3635         estimate D2E/DX2                !
 ! R17   R(8,10)                 1.4265         estimate D2E/DX2                !
 ! R18   R(8,38)                 1.096          estimate D2E/DX2                !
 ! R19   R(9,39)                 1.0961         estimate D2E/DX2                !
 ! R20   R(10,11)                1.4161         estimate D2E/DX2                !
 ! R21   R(10,18)                1.4045         estimate D2E/DX2                !
 ! R22   R(11,25)                1.3775         estimate D2E/DX2                !
 ! R23   R(11,40)                1.102          estimate D2E/DX2                !
 ! R24   R(12,16)                1.3694         estimate D2E/DX2                !
 ! R25   R(12,19)                1.4262         estimate D2E/DX2                !
 ! R26   R(12,41)                1.1023         estimate D2E/DX2                !
 ! R27   R(13,14)                1.4326         estimate D2E/DX2                !
 ! R28   R(13,18)                1.4287         estimate D2E/DX2                !
 ! R29   R(14,15)                1.4197         estimate D2E/DX2                !
 ! R30   R(15,16)                1.4619         estimate D2E/DX2                !
 ! R31   R(16,17)                1.4387         estimate D2E/DX2                !
 ! R32   R(17,18)                1.4237         estimate D2E/DX2                !
 ! R33   R(17,26)                1.4022         estimate D2E/DX2                !
 ! R34   R(19,20)                1.4111         estimate D2E/DX2                !
 ! R35   R(19,23)                1.4103         estimate D2E/DX2                !
 ! R36   R(20,21)                1.3771         estimate D2E/DX2                !
 ! R37   R(20,42)                1.0958         estimate D2E/DX2                !
 ! R38   R(21,22)                1.4005         estimate D2E/DX2                !
 ! R39   R(21,43)                1.0951         estimate D2E/DX2                !
 ! R40   R(22,24)                1.3873         estimate D2E/DX2                !
 ! R41   R(22,44)                1.1009         estimate D2E/DX2                !
 ! R42   R(23,24)                1.4195         estimate D2E/DX2                !
 ! R43   R(23,26)                1.4314         estimate D2E/DX2                !
 ! R44   R(24,28)                1.4585         estimate D2E/DX2                !
 ! R45   R(25,26)                1.4304         estimate D2E/DX2                !
 ! R46   R(25,27)                1.4601         estimate D2E/DX2                !
 ! R47   R(27,28)                1.4056         estimate D2E/DX2                !
 ! R48   R(27,32)                1.4037         estimate D2E/DX2                !
 ! R49   R(28,29)                1.4034         estimate D2E/DX2                !
 ! R50   R(29,30)                1.3835         estimate D2E/DX2                !
 ! R51   R(29,45)                1.101          estimate D2E/DX2                !
 ! R52   R(30,31)                1.3953         estimate D2E/DX2                !
 ! R53   R(30,46)                1.0948         estimate D2E/DX2                !
 ! R54   R(31,32)                1.3835         estimate D2E/DX2                !
 ! R55   R(31,47)                1.0948         estimate D2E/DX2                !
 ! R56   R(32,48)                1.1009         estimate D2E/DX2                !
 ! A1    A(2,1,4)              120.0958         estimate D2E/DX2                !
 ! A2    A(2,1,33)             120.6034         estimate D2E/DX2                !
 ! A3    A(4,1,33)             119.3008         estimate D2E/DX2                !
 ! A4    A(1,2,3)              120.5258         estimate D2E/DX2                !
 ! A5    A(1,2,34)             120.2431         estimate D2E/DX2                !
 ! A6    A(3,2,34)             119.231          estimate D2E/DX2                !
 ! A7    A(2,3,15)             120.8437         estimate D2E/DX2                !
 ! A8    A(2,3,35)             120.0399         estimate D2E/DX2                !
 ! A9    A(15,3,35)            119.1165         estimate D2E/DX2                !
 ! A10   A(1,4,6)              121.0988         estimate D2E/DX2                !
 ! A11   A(1,4,14)             119.5169         estimate D2E/DX2                !
 ! A12   A(6,4,14)             119.3843         estimate D2E/DX2                !
 ! A13   A(6,5,7)              120.7227         estimate D2E/DX2                !
 ! A14   A(6,5,36)             120.8755         estimate D2E/DX2                !
 ! A15   A(7,5,36)             118.4018         estimate D2E/DX2                !
 ! A16   A(4,6,5)              120.8848         estimate D2E/DX2                !
 ! A17   A(4,6,37)             118.2715         estimate D2E/DX2                !
 ! A18   A(5,6,37)             120.8437         estimate D2E/DX2                !
 ! A19   A(5,7,9)              120.9393         estimate D2E/DX2                !
 ! A20   A(5,7,13)             119.4936         estimate D2E/DX2                !
 ! A21   A(9,7,13)             119.5671         estimate D2E/DX2                !
 ! A22   A(9,8,10)             120.7406         estimate D2E/DX2                !
 ! A23   A(9,8,38)             120.7086         estimate D2E/DX2                !
 ! A24   A(10,8,38)            118.5508         estimate D2E/DX2                !
 ! A25   A(7,9,8)              120.6867         estimate D2E/DX2                !
 ! A26   A(7,9,39)             118.6044         estimate D2E/DX2                !
 ! A27   A(8,9,39)             120.7089         estimate D2E/DX2                !
 ! A28   A(8,10,11)            121.0516         estimate D2E/DX2                !
 ! A29   A(8,10,18)            119.4666         estimate D2E/DX2                !
 ! A30   A(11,10,18)           119.4818         estimate D2E/DX2                !
 ! A31   A(10,11,25)           121.2008         estimate D2E/DX2                !
 ! A32   A(10,11,40)           119.1538         estimate D2E/DX2                !
 ! A33   A(25,11,40)           119.6454         estimate D2E/DX2                !
 ! A34   A(16,12,19)           121.3354         estimate D2E/DX2                !
 ! A35   A(16,12,41)           119.6319         estimate D2E/DX2                !
 ! A36   A(19,12,41)           119.0327         estimate D2E/DX2                !
 ! A37   A(7,13,14)            120.1722         estimate D2E/DX2                !
 ! A38   A(7,13,18)            120.001          estimate D2E/DX2                !
 ! A39   A(14,13,18)           119.8268         estimate D2E/DX2                !
 ! A40   A(4,14,13)            119.3424         estimate D2E/DX2                !
 ! A41   A(4,14,15)            119.9311         estimate D2E/DX2                !
 ! A42   A(13,14,15)           120.7265         estimate D2E/DX2                !
 ! A43   A(3,15,14)            119.0867         estimate D2E/DX2                !
 ! A44   A(3,15,16)            121.3439         estimate D2E/DX2                !
 ! A45   A(14,15,16)           119.5695         estimate D2E/DX2                !
 ! A46   A(12,16,15)           121.1848         estimate D2E/DX2                !
 ! A47   A(12,16,17)           119.6757         estimate D2E/DX2                !
 ! A48   A(15,16,17)           119.1394         estimate D2E/DX2                !
 ! A49   A(16,17,18)           120.2757         estimate D2E/DX2                !
 ! A50   A(16,17,26)           120.0694         estimate D2E/DX2                !
 ! A51   A(18,17,26)           119.655          estimate D2E/DX2                !
 ! A52   A(10,18,13)           119.538          estimate D2E/DX2                !
 ! A53   A(10,18,17)           119.9998         estimate D2E/DX2                !
 ! A54   A(13,18,17)           120.4622         estimate D2E/DX2                !
 ! A55   A(12,19,20)           120.7278         estimate D2E/DX2                !
 ! A56   A(12,19,23)           119.5777         estimate D2E/DX2                !
 ! A57   A(20,19,23)           119.6945         estimate D2E/DX2                !
 ! A58   A(19,20,21)           120.113          estimate D2E/DX2                !
 ! A59   A(19,20,42)           119.3098         estimate D2E/DX2                !
 ! A60   A(21,20,42)           120.5772         estimate D2E/DX2                !
 ! A61   A(20,21,22)           120.4344         estimate D2E/DX2                !
 ! A62   A(20,21,43)           120.2577         estimate D2E/DX2                !
 ! A63   A(22,21,43)           119.3079         estimate D2E/DX2                !
 ! A64   A(21,22,24)           120.8878         estimate D2E/DX2                !
 ! A65   A(21,22,44)           119.8938         estimate D2E/DX2                !
 ! A66   A(24,22,44)           119.2185         estimate D2E/DX2                !
 ! A67   A(19,23,24)           119.5873         estimate D2E/DX2                !
 ! A68   A(19,23,26)           119.51           estimate D2E/DX2                !
 ! A69   A(24,23,26)           120.9026         estimate D2E/DX2                !
 ! A70   A(22,24,23)           119.283          estimate D2E/DX2                !
 ! A71   A(22,24,28)           121.5259         estimate D2E/DX2                !
 ! A72   A(23,24,28)           119.1911         estimate D2E/DX2                !
 ! A73   A(11,25,26)           119.6883         estimate D2E/DX2                !
 ! A74   A(11,25,27)           121.2764         estimate D2E/DX2                !
 ! A75   A(26,25,27)           119.0353         estimate D2E/DX2                !
 ! A76   A(17,26,23)           119.8318         estimate D2E/DX2                !
 ! A77   A(17,26,25)           119.9743         estimate D2E/DX2                !
 ! A78   A(23,26,25)           120.1939         estimate D2E/DX2                !
 ! A79   A(25,27,28)           120.4197         estimate D2E/DX2                !
 ! A80   A(25,27,32)           120.4787         estimate D2E/DX2                !
 ! A81   A(28,27,32)           119.1016         estimate D2E/DX2                !
 ! A82   A(24,28,27)           120.2574         estimate D2E/DX2                !
 ! A83   A(24,28,29)           120.4709         estimate D2E/DX2                !
 ! A84   A(27,28,29)           119.2717         estimate D2E/DX2                !
 ! A85   A(28,29,30)           120.8878         estimate D2E/DX2                !
 ! A86   A(28,29,45)           118.6968         estimate D2E/DX2                !
 ! A87   A(30,29,45)           120.4154         estimate D2E/DX2                !
 ! A88   A(29,30,31)           119.8779         estimate D2E/DX2                !
 ! A89   A(29,30,46)           120.1292         estimate D2E/DX2                !
 ! A90   A(31,30,46)           119.9929         estimate D2E/DX2                !
 ! A91   A(30,31,32)           119.9208         estimate D2E/DX2                !
 ! A92   A(30,31,47)           119.9756         estimate D2E/DX2                !
 ! A93   A(32,31,47)           120.1036         estimate D2E/DX2                !
 ! A94   A(27,32,31)           120.9402         estimate D2E/DX2                !
 ! A95   A(27,32,48)           118.771          estimate D2E/DX2                !
 ! A96   A(31,32,48)           120.2888         estimate D2E/DX2                !
 ! D1    D(4,1,2,3)              0.0            estimate D2E/DX2                !
 ! D2    D(4,1,2,34)           180.0            estimate D2E/DX2                !
 ! D3    D(33,1,2,3)           180.0            estimate D2E/DX2                !
 ! D4    D(33,1,2,34)            0.0            estimate D2E/DX2                !
 ! D5    D(2,1,4,6)            180.0            estimate D2E/DX2                !
 ! D6    D(2,1,4,14)             0.0            estimate D2E/DX2                !
 ! D7    D(33,1,4,6)             0.0            estimate D2E/DX2                !
 ! D8    D(33,1,4,14)          180.0            estimate D2E/DX2                !
 ! D9    D(1,2,3,15)             0.0            estimate D2E/DX2                !
 ! D10   D(1,2,3,35)           180.0            estimate D2E/DX2                !
 ! D11   D(34,2,3,15)          180.0            estimate D2E/DX2                !
 ! D12   D(34,2,3,35)            0.0            estimate D2E/DX2                !
 ! D13   D(2,3,15,14)            0.0            estimate D2E/DX2                !
 ! D14   D(2,3,15,16)          180.0            estimate D2E/DX2                !
 ! D15   D(35,3,15,14)         180.0            estimate D2E/DX2                !
 ! D16   D(35,3,15,16)           0.0            estimate D2E/DX2                !
 ! D17   D(1,4,6,5)            180.0            estimate D2E/DX2                !
 ! D18   D(1,4,6,37)             0.0            estimate D2E/DX2                !
 ! D19   D(14,4,6,5)             0.0            estimate D2E/DX2                !
 ! D20   D(14,4,6,37)          180.0            estimate D2E/DX2                !
 ! D21   D(1,4,14,13)          180.0            estimate D2E/DX2                !
 ! D22   D(1,4,14,15)            0.0            estimate D2E/DX2                !
 ! D23   D(6,4,14,13)            0.0            estimate D2E/DX2                !
 ! D24   D(6,4,14,15)          180.0            estimate D2E/DX2                !
 ! D25   D(7,5,6,4)              0.0            estimate D2E/DX2                !
 ! D26   D(7,5,6,37)           180.0            estimate D2E/DX2                !
 ! D27   D(36,5,6,4)           180.0            estimate D2E/DX2                !
 ! D28   D(36,5,6,37)            0.0            estimate D2E/DX2                !
 ! D29   D(6,5,7,9)            180.0            estimate D2E/DX2                !
 ! D30   D(6,5,7,13)             0.0            estimate D2E/DX2                !
 ! D31   D(36,5,7,9)             0.0            estimate D2E/DX2                !
 ! D32   D(36,5,7,13)          180.0            estimate D2E/DX2                !
 ! D33   D(5,7,9,8)            180.0            estimate D2E/DX2                !
 ! D34   D(5,7,9,39)             0.0            estimate D2E/DX2                !
 ! D35   D(13,7,9,8)             0.0            estimate D2E/DX2                !
 ! D36   D(13,7,9,39)          180.0            estimate D2E/DX2                !
 ! D37   D(5,7,13,14)            0.0            estimate D2E/DX2                !
 ! D38   D(5,7,13,18)          180.0            estimate D2E/DX2                !
 ! D39   D(9,7,13,14)          180.0            estimate D2E/DX2                !
 ! D40   D(9,7,13,18)            0.0            estimate D2E/DX2                !
 ! D41   D(10,8,9,7)             0.0            estimate D2E/DX2                !
 ! D42   D(10,8,9,39)          180.0            estimate D2E/DX2                !
 ! D43   D(38,8,9,7)           180.0            estimate D2E/DX2                !
 ! D44   D(38,8,9,39)            0.0            estimate D2E/DX2                !
 ! D45   D(9,8,10,11)          180.0            estimate D2E/DX2                !
 ! D46   D(9,8,10,18)            0.0            estimate D2E/DX2                !
 ! D47   D(38,8,10,11)           0.0            estimate D2E/DX2                !
 ! D48   D(38,8,10,18)         180.0            estimate D2E/DX2                !
 ! D49   D(8,10,11,25)         180.0            estimate D2E/DX2                !
 ! D50   D(8,10,11,40)           0.0            estimate D2E/DX2                !
 ! D51   D(18,10,11,25)          0.0            estimate D2E/DX2                !
 ! D52   D(18,10,11,40)        180.0            estimate D2E/DX2                !
 ! D53   D(8,10,18,13)           0.0            estimate D2E/DX2                !
 ! D54   D(8,10,18,17)         180.0            estimate D2E/DX2                !
 ! D55   D(11,10,18,13)        180.0            estimate D2E/DX2                !
 ! D56   D(11,10,18,17)          0.0            estimate D2E/DX2                !
 ! D57   D(10,11,25,26)          0.0            estimate D2E/DX2                !
 ! D58   D(10,11,25,27)        180.0            estimate D2E/DX2                !
 ! D59   D(40,11,25,26)        180.0            estimate D2E/DX2                !
 ! D60   D(40,11,25,27)          0.0            estimate D2E/DX2                !
 ! D61   D(19,12,16,15)        180.0            estimate D2E/DX2                !
 ! D62   D(19,12,16,17)          0.0            estimate D2E/DX2                !
 ! D63   D(41,12,16,15)          0.0            estimate D2E/DX2                !
 ! D64   D(41,12,16,17)        180.0            estimate D2E/DX2                !
 ! D65   D(16,12,19,20)        180.0            estimate D2E/DX2                !
 ! D66   D(16,12,19,23)          0.0            estimate D2E/DX2                !
 ! D67   D(41,12,19,20)          0.0            estimate D2E/DX2                !
 ! D68   D(41,12,19,23)        180.0            estimate D2E/DX2                !
 ! D69   D(7,13,14,4)            0.0            estimate D2E/DX2                !
 ! D70   D(7,13,14,15)         180.0            estimate D2E/DX2                !
 ! D71   D(18,13,14,4)         180.0            estimate D2E/DX2                !
 ! D72   D(18,13,14,15)          0.0            estimate D2E/DX2                !
 ! D73   D(7,13,18,10)           0.0            estimate D2E/DX2                !
 ! D74   D(7,13,18,17)         180.0            estimate D2E/DX2                !
 ! D75   D(14,13,18,10)        180.0            estimate D2E/DX2                !
 ! D76   D(14,13,18,17)          0.0            estimate D2E/DX2                !
 ! D77   D(4,14,15,3)            0.0            estimate D2E/DX2                !
 ! D78   D(4,14,15,16)         180.0            estimate D2E/DX2                !
 ! D79   D(13,14,15,3)         180.0            estimate D2E/DX2                !
 ! D80   D(13,14,15,16)          0.0            estimate D2E/DX2                !
 ! D81   D(3,15,16,12)           0.0            estimate D2E/DX2                !
 ! D82   D(3,15,16,17)         180.0            estimate D2E/DX2                !
 ! D83   D(14,15,16,12)        180.0            estimate D2E/DX2                !
 ! D84   D(14,15,16,17)          0.0            estimate D2E/DX2                !
 ! D85   D(12,16,17,18)        180.0            estimate D2E/DX2                !
 ! D86   D(12,16,17,26)          0.0            estimate D2E/DX2                !
 ! D87   D(15,16,17,18)          0.0            estimate D2E/DX2                !
 ! D88   D(15,16,17,26)        180.0            estimate D2E/DX2                !
 ! D89   D(16,17,18,10)        180.0            estimate D2E/DX2                !
 ! D90   D(16,17,18,13)          0.0            estimate D2E/DX2                !
 ! D91   D(26,17,18,10)          0.0            estimate D2E/DX2                !
 ! D92   D(26,17,18,13)        180.0            estimate D2E/DX2                !
 ! D93   D(16,17,26,23)          0.0            estimate D2E/DX2                !
 ! D94   D(16,17,26,25)        180.0            estimate D2E/DX2                !
 ! D95   D(18,17,26,23)        180.0            estimate D2E/DX2                !
 ! D96   D(18,17,26,25)          0.0            estimate D2E/DX2                !
 ! D97   D(12,19,20,21)        180.0            estimate D2E/DX2                !
 ! D98   D(12,19,20,42)          0.0            estimate D2E/DX2                !
 ! D99   D(23,19,20,21)          0.0            estimate D2E/DX2                !
 ! D100  D(23,19,20,42)        180.0            estimate D2E/DX2                !
 ! D101  D(12,19,23,24)        180.0            estimate D2E/DX2                !
 ! D102  D(12,19,23,26)          0.0            estimate D2E/DX2                !
 ! D103  D(20,19,23,24)          0.0            estimate D2E/DX2                !
 ! D104  D(20,19,23,26)        180.0            estimate D2E/DX2                !
 ! D105  D(19,20,21,22)          0.0            estimate D2E/DX2                !
 ! D106  D(19,20,21,43)        180.0            estimate D2E/DX2                !
 ! D107  D(42,20,21,22)        180.0            estimate D2E/DX2                !
 ! D108  D(42,20,21,43)          0.0            estimate D2E/DX2                !
 ! D109  D(20,21,22,24)          0.0            estimate D2E/DX2                !
 ! D110  D(20,21,22,44)        180.0            estimate D2E/DX2                !
 ! D111  D(43,21,22,24)        180.0            estimate D2E/DX2                !
 ! D112  D(43,21,22,44)          0.0            estimate D2E/DX2                !
 ! D113  D(21,22,24,23)          0.0            estimate D2E/DX2                !
 ! D114  D(21,22,24,28)        180.0            estimate D2E/DX2                !
 ! D115  D(44,22,24,23)        180.0            estimate D2E/DX2                !
 ! D116  D(44,22,24,28)          0.0            estimate D2E/DX2                !
 ! D117  D(19,23,24,22)          0.0            estimate D2E/DX2                !
 ! D118  D(19,23,24,28)        180.0            estimate D2E/DX2                !
 ! D119  D(26,23,24,22)        180.0            estimate D2E/DX2                !
 ! D120  D(26,23,24,28)          0.0            estimate D2E/DX2                !
 ! D121  D(19,23,26,17)          0.0            estimate D2E/DX2                !
 ! D122  D(19,23,26,25)        180.0            estimate D2E/DX2                !
 ! D123  D(24,23,26,17)        180.0            estimate D2E/DX2                !
 ! D124  D(24,23,26,25)          0.0            estimate D2E/DX2                !
 ! D125  D(22,24,28,27)        180.0            estimate D2E/DX2                !
 ! D126  D(22,24,28,29)          0.0            estimate D2E/DX2                !
 ! D127  D(23,24,28,27)          0.0            estimate D2E/DX2                !
 ! D128  D(23,24,28,29)        180.0            estimate D2E/DX2                !
 ! D129  D(11,25,26,17)          0.0            estimate D2E/DX2                !
 ! D130  D(11,25,26,23)        180.0            estimate D2E/DX2                !
 ! D131  D(27,25,26,17)        180.0            estimate D2E/DX2                !
 ! D132  D(27,25,26,23)          0.0            estimate D2E/DX2                !
 ! D133  D(11,25,27,28)        180.0            estimate D2E/DX2                !
 ! D134  D(11,25,27,32)          0.0            estimate D2E/DX2                !
 ! D135  D(26,25,27,28)          0.0            estimate D2E/DX2                !
 ! D136  D(26,25,27,32)        180.0            estimate D2E/DX2                !
 ! D137  D(25,27,28,24)          0.0            estimate D2E/DX2                !
 ! D138  D(25,27,28,29)        180.0            estimate D2E/DX2                !
 ! D139  D(32,27,28,24)        180.0            estimate D2E/DX2                !
 ! D140  D(32,27,28,29)          0.0            estimate D2E/DX2                !
 ! D141  D(25,27,32,31)        180.0            estimate D2E/DX2                !
 ! D142  D(25,27,32,48)          0.0            estimate D2E/DX2                !
 ! D143  D(28,27,32,31)          0.0            estimate D2E/DX2                !
 ! D144  D(28,27,32,48)        180.0            estimate D2E/DX2                !
 ! D145  D(24,28,29,30)        180.0            estimate D2E/DX2                !
 ! D146  D(24,28,29,45)          0.0            estimate D2E/DX2                !
 ! D147  D(27,28,29,30)          0.0            estimate D2E/DX2                !
 ! D148  D(27,28,29,45)        180.0            estimate D2E/DX2                !
 ! D149  D(28,29,30,31)          0.0            estimate D2E/DX2                !
 ! D150  D(28,29,30,46)        180.0            estimate D2E/DX2                !
 ! D151  D(45,29,30,31)        180.0            estimate D2E/DX2                !
 ! D152  D(45,29,30,46)          0.0            estimate D2E/DX2                !
 ! D153  D(29,30,31,32)          0.0            estimate D2E/DX2                !
 ! D154  D(29,30,31,47)        180.0            estimate D2E/DX2                !
 ! D155  D(46,30,31,32)        180.0            estimate D2E/DX2                !
 ! D156  D(46,30,31,47)          0.0            estimate D2E/DX2                !
 ! D157  D(30,31,32,27)          0.0            estimate D2E/DX2                !
 ! D158  D(30,31,32,48)        180.0            estimate D2E/DX2                !
 ! D159  D(47,31,32,27)        180.0            estimate D2E/DX2                !
 ! D160  D(47,31,32,48)          0.0            estimate D2E/DX2                !
 --------------------------------------------------------------------------------
 Trust Radius=3.00D-01 FncErr=1.00D-07 GrdErr=1.00D-06
 Number of steps in this run=    288 maximum allowed number of steps=    288.
 GradGradGradGradGradGradGradGradGradGradGradGradGradGradGradGradGradGrad

 Leave Link  103 at Sat Jul 27 11:01:50 2019, MaxMem=  4194304000 cpu:         0.1
 (Enter /home/minenky/programs//g09/l202.exe)
                          Input orientation:                          
 ---------------------------------------------------------------------
 Center     Atomic      Atomic             Coordinates (Angstroms)
 Number     Number       Type             X           Y           Z
 ---------------------------------------------------------------------
      1          6           0        5.281666    1.593540    0.000000
      2          6           0        4.541752    2.754801    0.000000
      3          6           0        3.140947    2.706422    0.000000
      4          6           0        4.632308    0.340821    0.000000
      5          6           0        4.750966   -2.084683    0.000000
      6          6           0        5.380826   -0.880608    0.000000
      7          6           0        3.322366   -2.162262    0.000000
      8          6           0        1.295295   -3.490246    0.000000
      9          6           0        2.657147   -3.422313    0.000000
     10          6           0        0.505972   -2.302054    0.000000
     11          6           0       -0.908751   -2.364929    0.000000
     12          6           0        0.251983    2.568734    0.000000
     13          6           0        2.569476   -0.985089    0.000000
     14          6           0        3.224895    0.288807    0.000000
     15          6           0        2.471577    1.492139    0.000000
     16          6           0        1.011076    1.428929    0.000000
     17          6           0        0.365523    0.143222    0.000000
     18          6           0        1.142231   -1.049924    0.000000
     19          6           0       -1.173062    2.510809    0.000000
     20          6           0       -1.942738    3.693499    0.000000
     21          6           0       -3.317977    3.622810    0.000000
     22          6           0       -3.964467    2.380488    0.000000
     23          6           0       -1.818802    1.257028    0.000000
     24          6           0       -3.237119    1.199139    0.000000
     25          6           0       -1.673942   -1.219546    0.000000
     26          6           0       -1.034207    0.059863    0.000000
     27          6           0       -3.132687   -1.282450    0.000000
     28          6           0       -3.895959   -0.102107    0.000000
     29          6           0       -5.296607   -0.190649    0.000000
     30          6           0       -5.930507   -1.420352    0.000000
     31          6           0       -5.173628   -2.592486    0.000000
     32          6           0       -3.791899   -2.521749    0.000000
     33          1           0        6.376888    1.629880    0.000000
     34          1           0        5.043202    3.728300    0.000000
     35          1           0        2.557210    3.639950    0.000000
     36          1           0        5.323813   -3.019112    0.000000
     37          1           0        6.475164   -0.818863    0.000000
     38          1           0        0.783227   -4.459301    0.000000
     39          1           0        3.263138   -4.335625    0.000000
     40          1           0       -1.402356   -3.350249    0.000000
     41          1           0        0.747358    3.553462    0.000000
     42          1           0       -1.434459    4.664315    0.000000
     43          1           0       -3.917594    4.539114    0.000000
     44          1           0       -5.064398    2.334352    0.000000
     45          1           0       -5.885146    0.739828    0.000000
     46          1           0       -7.023918   -1.474949    0.000000
     47          1           0       -5.673595   -3.566449    0.000000
     48          1           0       -3.188764   -3.442754    0.000000
 ---------------------------------------------------------------------
                    Distance matrix (angstroms):
                    1          2          3          4          5
     1  C    0.000000
     2  C    1.376953   0.000000
     3  C    2.412713   1.401640   0.000000
     4  C    1.411018   2.415678   2.796467   0.000000
     5  C    3.716311   4.844004   5.054389   2.428404   0.000000
     6  C    2.476135   3.730985   4.228929   1.432539   1.358867
     7  C    4.236143   5.066006   4.872064   2.825133   1.430705
     8  C    6.460343   7.038473   6.465689   5.080623   3.730586
     9  C    5.660997   6.458210   6.147801   4.249993   2.484619
    10  C    6.163028   6.469877   5.659322   4.900147   4.250556
    11  C    7.347839   7.477942   6.489889   6.166394   5.666651
    12  C    5.123351   4.293803   2.892244   4.914351   6.472646
    13  C    3.742366   4.228079   3.735483   2.452206   2.442950
    14  C    2.435700   2.795575   2.419073   1.408374   2.821763
    15  C    2.811919   2.424859   1.386557   2.448325   4.241376
    16  C    4.273761   3.771420   2.483614   3.781177   5.131495
    17  C    5.125611   4.925570   3.777959   4.271358   4.918909
    18  C    4.911499   5.102222   4.254997   3.756968   3.754157
    19  C    6.519578   5.720020   4.318442   6.197675   7.497510
    20  C    7.523420   6.552081   5.178627   7.380494   8.842685
    21  C    8.835825   7.907514   6.523609   8.601075   9.883487
    22  C    9.279562   8.514451   7.112886   8.835428   9.792677
    23  C    7.108438   6.534522   5.167191   6.515847   7.370814
    24  C    8.527910   7.932901   6.553750   7.916097   8.636723
    25  C    7.502929   7.377688   6.212599   6.496425   6.482893
    26  C    6.499417   6.193062   4.943298   5.673476   6.169871
    27  C    8.892281   8.671586   7.434352   7.932853   7.924365
    28  C    9.332954   8.908249   7.576667   8.539761   8.871298
    29  C   10.727683  10.269809   8.921061   9.943129  10.224533
    30  C   11.610185  11.273869   9.966020  10.708632  10.702113
    31  C   11.262149  11.089729   9.859543  10.235267   9.937577
    32  C    9.963192   9.863657   8.683210   8.897279   8.554038
    33  H    1.095825   2.152480   3.410316   2.169155   4.054825
    34  H    2.148037   1.095057   2.159353   3.412308   5.820324
    35  H    3.407412   2.172993   1.101010   3.897472   6.130578
    36  H    4.612845   5.826637   6.127532   3.430354   1.096044
    37  H    2.691491   4.063146   4.852281   2.177380   2.138962
    38  H    7.541408   8.134481   7.543635   6.152771   4.624042
    39  H    6.263342   7.204790   7.043107   4.872758   2.698217
    40  H    8.313676   8.520802   7.571319   7.073979   6.282120
    41  H    4.939762   3.877536   2.539044   5.041220   6.915024
    42  H    7.384849   6.273862   4.976715   7.449716   9.154696
    43  H    9.659337   8.645479   7.292583   9.525045  10.909565
    44  H   10.372552   9.615347   8.213776   9.899508  10.764257
    45  H   11.199398  10.619808   9.237849  10.525020  11.004760
    46  H   12.682390  12.314849  10.991285  11.796806  11.790660
    47  H   12.109635  12.012973  10.818737  11.021724  10.529345
    48  H    9.854564   9.908106   8.824829   8.688187   8.055040
                    6          7          8          9         10
     6  C    0.000000
     7  C    2.424849   0.000000
     8  C    4.847862   2.423336   0.000000
     9  C    3.725411   1.424866   1.363545   0.000000
    10  C    5.077864   2.819861   1.426476   2.425393   0.000000
    11  C    6.462351   4.235968   2.474703   3.719366   1.416119
    12  C    6.180857   5.639998   6.148149   6.455808   4.877405
    13  C    2.813291   1.397348   2.810578   2.438800   2.447947
    14  C    2.452665   2.453006   4.243182   3.754297   3.755676
    15  C    3.754153   3.752132   5.119356   4.917954   4.273114
    16  C    4.942537   4.270681   4.927379   5.122899   3.765018
    17  C    5.118739   3.749423   3.750542   4.238463   2.449305
    18  C    4.241975   2.447506   2.445118   2.814817   1.404513
    19  C    7.379374   6.484325   6.488871   7.062042   5.097333
    20  C    8.634643   7.874723   7.879788   8.473118   6.476329
    21  C    9.795404   8.806885   8.478080   9.237741   7.051708
    22  C    9.897941   8.586880   7.882297   8.804445   6.473872
    23  C    7.510269   6.174396   5.677519   6.475365   4.251075
    24  C    8.865344   7.370608   6.521741   7.490005   5.125337
    25  C    7.062905   5.084467   3.737974   4.859064   2.433895
    26  C    6.483605   4.890559   4.246157   5.074607   2.819716
    27  C    8.522991   6.514736   4.947867   6.172616   3.778813
    28  C    9.309393   7.506561   6.199081   7.346221   4.921053
    29  C   10.699701   8.841603   7.371602   8.585210   6.174783
    30  C   11.324203   9.282570   7.516428   8.817916   6.496589
    31  C   10.692382   8.506880   6.530922   7.874621   5.687021
    32  C    9.318381   7.123342   5.178565   6.511621   4.303482
    33  H    2.700869   4.869338   7.213756   6.273845   7.065958
    34  H    4.621258   6.136774   8.133523   7.538204   7.546629
    35  H    5.329939   5.852447   7.241003   7.062970   6.286094
    36  H    2.139264   2.177150   4.055974   2.696977   4.870910
    37  H    1.096079   3.427077   5.828150   4.621170   6.150700
    38  H    5.826230   3.423976   1.096029   2.141709   2.174991
    39  H    4.052375   2.174170   2.141745   1.096068   3.425986
    40  H    7.218773   4.871788   2.701282   4.060143   2.177253
    41  H    6.413268   6.268985   7.064988   7.232477   5.860489
    42  H    8.786028   8.320429   8.599327   9.062824   7.231567
    43  H   10.762620   9.865367   9.573131  10.325286   8.146748
    44  H   10.928800   9.516162   8.623899   9.631273   7.247432
    45  H   11.381912   9.654036   8.333802   9.502325   7.078095
    46  H   12.418974  10.369088   8.559832   9.874980   7.575179
    47  H   11.376026   9.104892   6.969307   8.331989   6.307595
    48  H    8.944409   6.635847   4.484310   5.845946   3.866816
                   11         12         13         14         15
    11  C    0.000000
    12  C    5.068365   0.000000
    13  C    3.741927   4.242692   0.000000
    14  C    4.912163   3.746502   1.432615   0.000000
    15  C    5.128702   2.466912   2.479162   1.419683   0.000000
    16  C    4.251951   1.369445   2.873341   2.490155   1.461867
    17  C    2.813288   2.428168   2.475983   2.863076   2.501008
    18  C    2.436343   3.726557   1.428716   2.475821   2.868666
    19  C    4.882897   1.426221   5.121317   4.927405   3.784320
    20  C    6.146030   2.466150   6.499944   6.188406   4.932764
    21  C    6.454253   3.722323   7.476285   7.343348   6.169172
    22  C    5.644146   4.220650   7.349797   7.487460   6.497063
    23  C    3.734537   2.451269   4.927888   5.135790   4.296816
    24  C    4.257214   3.748282   6.203821   6.525820   5.716210
    25  C    1.377468   4.249735   4.249890   5.125791   4.953641
    26  C    2.428035   2.819347   3.752127   4.265252   3.787075
    27  C    2.473389   5.127144   5.709911   6.548870   6.253488
    28  C    3.747503   4.933438   6.525451   7.131576   6.564079
    29  C    4.897017   6.196857   7.906098   8.534979   7.948361
    30  C    5.109821   7.357717   8.511120   9.313572   8.892560
    31  C    4.270944   7.488354   7.908185   8.879023   8.667948
    32  C    2.887410   6.501230   6.544342   7.558745   7.439249
    33  H    8.308973   6.196444   4.618923   3.425425   3.907740
    34  H    8.517815   4.929541   5.323096   3.890546   3.407883
    35  H    6.933357   2.541963   4.625055   3.417011   2.149517
    36  H    6.266802   7.546356   3.423978   3.917625   5.337288
    37  H    7.544038   7.085464   3.909224   3.433828   4.622709
    38  H    2.692431   7.048084   3.906511   5.339126   6.186288
    39  H    4.613925   7.532412   3.421587   4.624590   5.881276
    40  H    1.102045   6.145828   4.622709   5.886781   6.201297
    41  H    6.145734   1.102310   4.890660   4.098313   2.687375
    42  H    7.048875   2.689897   6.924396   6.391765   5.031880
    43  H    7.531198   4.611699   8.520498   8.311454   7.078528
    44  H    6.273168   5.321544   8.324344   8.537953   7.582891
    45  H    5.865495   6.403846   8.628787   9.121199   8.390517
    46  H    6.179590   8.324067   9.605892  10.399471   9.948268
    47  H    4.914000   8.529534   8.637803   9.697739   9.588177
    48  H    2.521937   6.926523   6.260786   7.420213   7.509502
                   16         17         18         19         20
    16  C    0.000000
    17  C    1.438674   0.000000
    18  C    2.482320   1.423682   0.000000
    19  C    2.437401   2.823600   4.247282   0.000000
    20  C    3.722002   4.234683   5.658366   1.411084   0.000000
    21  C    4.853228   5.067120   6.459713   2.416031   1.377054
    22  C    5.065718   4.873826   6.151918   2.794446   2.410682
    23  C    2.835095   2.451906   3.753631   1.410300   2.439621
    24  C    4.254406   3.754196   4.923108   2.445570   2.810206
    25  C    3.771438   2.452866   2.821277   3.763832   4.920393
    26  C    2.461205   1.402210   2.443054   2.454877   3.745497
    27  C    4.952005   3.777567   4.281238   4.269537   5.116253
    28  C    5.140337   4.268538   5.126570   3.773791   4.268688
    29  C    6.512288   5.671965   6.495921   4.929655   5.131768
    30  C    7.503598   6.487277   7.082433   6.171492   6.484889
    31  C    7.377151   6.177888   6.501506   6.484455   7.067691
    32  C    6.219037   4.938241   5.148972   5.673178   6.484497
    33  H    5.369573   6.192468   5.880730   7.601170   8.571739
    34  H    4.641674   5.893510   6.168386   6.334368   6.986027
    35  H    2.697988   4.126814   4.898681   3.897420   4.500267
    36  H    6.195544   5.880901   4.622048   8.531671   9.892519
    37  H    5.908368   6.184926   5.337936   8.341587   9.551046
    38  H    5.892636   4.621438   3.428226   7.239440   8.596455
    39  H    6.188850   5.334439   3.910765   8.158035   9.569116
    40  H    5.353989   3.915321   3.430222   5.865542   7.064446
    41  H    2.140838   3.431550   4.620291   2.185209   2.693739
    42  H    4.055659   4.866233   6.268322   2.169312   1.095824
    43  H    5.827954   6.137505   7.539176   3.412693   2.148283
    44  H    6.142571   5.855347   7.069340   3.895335   3.404708
    45  H    6.930566   6.279077   7.251706   5.033896   4.926129
    46  H    8.543631   7.564543   8.177202   7.079462   7.247844
    47  H    8.344977   7.087497   7.265562   7.562266   8.162484
    48  H    6.432103   5.048977   4.948045   6.285536   7.244217
                   21         22         23         24         25
    21  C    0.000000
    22  C    1.400469   0.000000
    23  C    2.800794   2.421991   0.000000
    24  C    2.425020   1.387307   1.419497   0.000000
    25  C    5.113830   4.266937   2.480807   2.879854   0.000000
    26  C    4.232044   3.737877   1.431361   2.480074   1.430436
    27  C    4.908758   3.756191   2.859238   2.483785   1.460101
    28  C    3.769492   2.483540   2.482303   1.458530   2.487173
    29  C    4.296213   2.895745   3.767080   2.484552   3.765943
    30  C    5.679683   4.279217   4.906576   3.757136   4.261300
    31  C    6.486397   5.117865   5.106233   4.257521   3.759358
    32  C    6.162808   4.905273   4.262894   3.762018   2.486257
    33  H    9.897585  10.368560   8.204167   9.623652   8.540205
    34  H    8.361844   9.107947   7.293441   8.657965   8.342733
    35  H    5.875212   6.642177   4.982750   6.287432   6.443395
    36  H   10.899343  10.743734   8.324802   9.543752   7.225442
    37  H   10.753328  10.918871   8.549807   9.919716   8.158950
    38  H    9.063133   8.326062   6.280683   6.941262   4.066164
    39  H   10.327040   9.866329   7.556712   8.537385   5.838211
    40  H    7.231400   6.277400   4.626060   4.905434   2.147942
    41  H    4.065926   4.855632   3.443659   4.628055   5.352037
    42  H    2.152295   3.408344   3.428895   3.906025   5.888733
    43  H    1.095059   2.159135   3.895769   3.408590   6.180303
    44  H    2.170279   1.100898   3.419724   2.151199   4.911759
    45  H    3.860303   2.526019   4.099103   2.687566   4.644716
    46  H    6.302471   4.921853   5.878514   4.635794   5.356069
    47  H    7.565341   6.187663   6.174574   5.352312   4.637368
    48  H    7.066745   5.874679   4.895380   4.642144   2.690230
                   26         27         28         29         30
    26  C    0.000000
    27  C    2.491068   0.000000
    28  C    2.866332   1.405629   0.000000
    29  C    4.269755   2.423753   1.403443   0.000000
    30  C    5.115153   2.801217   2.424285   1.383474   0.000000
    31  C    4.916275   2.425209   2.799005   2.404983   1.395264
    32  C    3.777510   1.403717   2.421878   2.774558   2.405560
    33  H    7.575572   9.945536  10.417829  11.814601  12.679744
    34  H    7.098755   9.589200   9.725256  11.057567  12.121506
    35  H    5.071026   7.523626   7.459650   8.738187   9.881700
    36  H    7.064312   8.632983   9.670218  10.990611  11.367311
    37  H    7.560609   9.619029  10.395861  11.788521  12.420244
    38  H    4.870924   5.042496   6.393741   7.428712   7.369494
    39  H    6.147153   7.087204   8.317172   9.510524   9.644788
    40  H    3.429926   2.696264   4.094934   5.014804   4.922261
    41  H    3.921634   6.200064   5.909617   7.109703   8.326627
    42  H    4.621816   6.184496   5.364491   6.203778   7.565555
    43  H    5.327064   5.874239   4.641271   4.926696   6.290235
    44  H    4.627714   4.100337   2.702143   2.535656   3.853304
    45  H    4.898363   3.415500   2.160028   1.100984   2.160657
    46  H    6.183226   3.895989   3.415966   2.152448   1.094773
    47  H    5.888468   3.416558   3.893797   3.396785   2.161419
    48  H    4.112230   2.161031   3.414681   3.875460   3.406944
                   31         32         33         34         35
    31  C    0.000000
    32  C    1.383539   0.000000
    33  H   12.298082  10.983636   0.000000
    34  H   12.013989  10.822297   2.486380   0.000000
    35  H    9.930212   8.847469   4.316286   2.487561   0.000000
    36  H   10.506107   9.129271   4.766770   6.753244   7.210909
    37  H   11.783043  10.407324   2.450714   4.767305   5.935602
    38  H    6.242526   4.968490   8.268444   9.229527   8.291253
    39  H    8.614962   7.284483   6.729242   8.258057   8.006755
    40  H    3.846648   2.529096   9.236793   9.573456   8.033744
    41  H    8.534094   7.583735   5.949099   4.299400   1.811917
    42  H    8.163489   7.562872   8.380032   6.544938   4.121012
    43  H    7.241363   7.061981  10.697663   8.997404   6.536939
    44  H    4.928048   5.020056  11.462953  10.203267   7.732625
    45  H    3.407429   3.875509  12.294294  11.329596   8.926593
    46  H    2.161587   3.397313  13.755783  13.141125  10.860948
    47  H    1.094793   2.152250  13.123109  12.963915  10.939759
    48  H    2.159316   1.100919  10.827433  10.917383   9.120356
                   36         37         38         39         40
    36  H    0.000000
    37  H    2.483285   0.000000
    38  H    4.763514   6.756547   0.000000
    39  H    2.445320   4.762849   2.482993   0.000000
    40  H    6.734316   8.274252   2.450872   4.768418   0.000000
    41  H    8.008912   7.205899   8.012843   8.280510   7.230664
    42  H   10.232756   9.624311   9.389276  10.152159   8.014628
    43  H   11.938609  11.692618  10.152300  11.415950   8.280608
    44  H   11.686509  11.962618   8.963729  10.669416   6.762043
    45  H   11.822453  12.458201   8.455657  10.461899   6.068289
    46  H   12.443910  13.515016   8.358102  10.677405   5.926103
    47  H   11.011021  12.455584   6.518262   8.969774   4.276707
    48  H    8.523112  10.013805   4.100010   6.513390   1.788801
                   41         42         43         44         45
    41  H    0.000000
    42  H    2.448330   0.000000
    43  H    4.767943   2.486289   0.000000
    44  H    5.938243   4.313373   2.485183   0.000000
    45  H    7.204626   5.933819   4.278532   1.793358   0.000000
    46  H    9.256222   8.302567   6.768915   4.283747   2.490390
    47  H    9.587584   9.258280   8.293593   5.932164   4.311471
    48  H    8.027458   8.294706   8.015074   6.073957   4.976391
                   46         47         48
    46  H    0.000000
    47  H    2.489526   0.000000
    48  H    4.310529   2.487909   0.000000
 Stoichiometry    C32H16
 Framework group  CS[SG(C32H16)]
 Deg. of freedom    93
 Full point group                 CS      NOp   2
 Largest Abelian subgroup         CS      NOp   2
 Largest concise Abelian subgroup C1      NOp   1
                         Standard orientation:                         
 ---------------------------------------------------------------------
 Center     Atomic      Atomic             Coordinates (Angstroms)
 Number     Number       Type             X           Y           Z
 ---------------------------------------------------------------------
      1          6           0       -0.399217    5.509028    0.000000
      2          6           0        0.949612    5.232151    0.000000
      3          6           0        1.404224    3.906285    0.000000
      4          6           0       -1.337793    4.455440    0.000000
      5          6           0       -3.645990    3.700870    0.000000
      6          6           0       -2.745900    4.718886    0.000000
      7          6           0       -3.208739    2.338619    0.000000
      8          6           0       -3.726059   -0.028856    0.000000
      9          6           0       -4.148504    1.267598    0.000000
     10          6           0       -2.334442   -0.342281    0.000000
     11          6           0       -1.888406   -1.686321    0.000000
     12          6           0        2.306379    1.158342    0.000000
     13          6           0       -1.840415    2.055298    0.000000
     14          6           0       -0.884220    3.122103    0.000000
     15          6           0        0.508695    2.847716    0.000000
     16          6           0        0.970750    1.460791    0.000000
     17          6           0        0.000000    0.398988    0.000000
     18          6           0       -1.391743    0.698860    0.000000
     19          6           0        2.760722   -0.193576    0.000000
     20          6           0        4.140188   -0.490610    0.000000
     21          6           0        4.564836   -1.800553    0.000000
     22          6           0        3.634950   -2.847752    0.000000
     23          6           0        1.819863   -1.244162    0.000000
     24          6           0        2.271838   -2.589782    0.000000
     25          6           0       -0.545392   -1.992477    0.000000
     26          6           0        0.421551   -0.938357    0.000000
     27          6           0       -0.083676   -3.377653    0.000000
     28          6           0        1.291313   -3.669541    0.000000
     29          6           0        1.708349   -5.009591    0.000000
     30          6           0        0.785759   -6.040527    0.000000
     31          6           0       -0.579280   -5.751682    0.000000
     32          6           0       -1.006199   -4.435657    0.000000
     33          1           0       -0.756043    6.545130    0.000000
     34          1           0        1.680119    6.047940    0.000000
     35          1           0        2.484585    3.694050    0.000000
     36          1           0       -4.723307    3.902609    0.000000
     37          1           0       -3.078677    5.763227    0.000000
     38          1           0       -4.448626   -0.852979    0.000000
     39          1           0       -5.217921    1.507834    0.000000
     40          1           0       -2.632755   -2.499000    0.000000
     41          1           0        3.049543    1.972462    0.000000
     42          1           0        4.865752    0.330602    0.000000
     43          1           0        5.634773   -2.033767    0.000000
     44          1           0        3.984305   -3.891747    0.000000
     45          1           0        2.787574   -5.227400    0.000000
     46          1           0        1.124884   -7.081450    0.000000
     47          1           0       -1.310750   -6.566251    0.000000
     48          1           0       -2.081782   -4.200834    0.000000
 ---------------------------------------------------------------------
 Rotational constants (GHZ):      0.2805627      0.1096299      0.0788279
 Leave Link  202 at Sat Jul 27 11:01:50 2019, MaxMem=  4194304000 cpu:         1.6
 (Enter /home/minenky/programs//g09/l301.exe)
 Standard basis: def2TZVP (5D, 7F)
 ======================================================================================================
                                       Pseudopotential Parameters
 ======================================================================================================
  Center     Atomic      Valence      Angular      Power
  Number     Number     Electrons     Momentum     of R      Exponent        Coefficient   SO-Coeffient
 ======================================================================================================
    1          6
                                   No pseudopotential on this center.
    2          6
                                   No pseudopotential on this center.
    3          6
                                   No pseudopotential on this center.
    4          6
                                   No pseudopotential on this center.
    5          6
                                   No pseudopotential on this center.
    6          6
                                   No pseudopotential on this center.
    7          6
                                   No pseudopotential on this center.
    8          6
                                   No pseudopotential on this center.
    9          6
                                   No pseudopotential on this center.
   10          6
                                   No pseudopotential on this center.
   11          6
                                   No pseudopotential on this center.
   12          6
                                   No pseudopotential on this center.
   13          6
                                   No pseudopotential on this center.
   14          6
                                   No pseudopotential on this center.
   15          6
                                   No pseudopotential on this center.
   16          6
                                   No pseudopotential on this center.
   17          6
                                   No pseudopotential on this center.
   18          6
                                   No pseudopotential on this center.
   19          6
                                   No pseudopotential on this center.
   20          6
                                   No pseudopotential on this center.
   21          6
                                   No pseudopotential on this center.
   22          6
                                   No pseudopotential on this center.
   23          6
                                   No pseudopotential on this center.
   24          6
                                   No pseudopotential on this center.
   25          6
                                   No pseudopotential on this center.
   26          6
                                   No pseudopotential on this center.
   27          6
                                   No pseudopotential on this center.
   28          6
                                   No pseudopotential on this center.
   29          6
                                   No pseudopotential on this center.
   30          6
                                   No pseudopotential on this center.
   31          6
                                   No pseudopotential on this center.
   32          6
                                   No pseudopotential on this center.
   33          1
                                   No pseudopotential on this center.
   34          1
                                   No pseudopotential on this center.
   35          1
                                   No pseudopotential on this center.
   36          1
                                   No pseudopotential on this center.
   37          1
                                   No pseudopotential on this center.
   38          1
                                   No pseudopotential on this center.
   39          1
                                   No pseudopotential on this center.
   40          1
                                   No pseudopotential on this center.
   41          1
                                   No pseudopotential on this center.
   42          1
                                   No pseudopotential on this center.
   43          1
                                   No pseudopotential on this center.
   44          1
                                   No pseudopotential on this center.
   45          1
                                   No pseudopotential on this center.
   46          1
                                   No pseudopotential on this center.
   47          1
                                   No pseudopotential on this center.
   48          1
                                   No pseudopotential on this center.
 ======================================================================================================
 Ernie: Thresh=  0.10000D-02 Tol=  0.10000D-05 Strict=F.
 AO basis set (Overlap normalization):
 Atom C1       Shell     1 S   6     bf    1 -     1         -0.754411028328         10.410554159218          0.000000000000
      0.1357534968D+05  0.6064550360D-03
      0.2035233368D+04  0.4697908888D-02
      0.4632256236D+03  0.2433247765D-01
      0.1312001960D+03  0.9739996831D-01
      0.4285301589D+02  0.3019558425D+00
      0.1558418577D+02  0.6623360914D+00
 Atom C1       Shell     2 S   2     bf    2 -     2         -0.754411028328         10.410554159218          0.000000000000
      0.6206713851D+01  0.6559530854D+00
      0.2576489653D+01  0.3758563329D+00
 Atom C1       Shell     3 S   1     bf    3 -     3         -0.754411028328         10.410554159218          0.000000000000
      0.5769633942D+00  0.1000000000D+01
 Atom C1       Shell     4 S   1     bf    4 -     4         -0.754411028328         10.410554159218          0.000000000000
      0.2297283136D+00  0.1000000000D+01
 Atom C1       Shell     5 S   1     bf    5 -     5         -0.754411028328         10.410554159218          0.000000000000
      0.9516444003D-01  0.1000000000D+01
 Atom C1       Shell     6 P   4     bf    6 -     8         -0.754411028328         10.410554159218          0.000000000000
      0.3469723224D+02  0.1132722000D-01
      0.7958262283D+01  0.7616965920D-01
      0.2378082688D+01  0.3019225220D+00
      0.8143320818D+00  0.7278502735D+00
 Atom C1       Shell     7 P   1     bf    9 -    11         -0.754411028328         10.410554159218          0.000000000000
      0.2888754725D+00  0.1000000000D+01
 Atom C1       Shell     8 P   1     bf   12 -    14         -0.754411028328         10.410554159218          0.000000000000
      0.1005682367D+00  0.1000000000D+01
 Atom C1       Shell     9 D   1     bf   15 -    19         -0.754411028328         10.410554159218          0.000000000000
      0.1097000000D+01  0.1000000000D+01
 Atom C1       Shell    10 D   1     bf   20 -    24         -0.754411028328         10.410554159218          0.000000000000
      0.3180000000D+00  0.1000000000D+01
 Atom C1       Shell    11 F   1     bf   25 -    31         -0.754411028328         10.410554159218          0.000000000000
      0.7610000000D+00  0.1000000000D+01
 Atom C2       Shell    12 S   6     bf   32 -    32          1.794506238420          9.887333270351          0.000000000000
      0.1357534968D+05  0.6064550360D-03
      0.2035233368D+04  0.4697908888D-02
      0.4632256236D+03  0.2433247765D-01
      0.1312001960D+03  0.9739996831D-01
      0.4285301589D+02  0.3019558425D+00
      0.1558418577D+02  0.6623360914D+00
 Atom C2       Shell    13 S   2     bf   33 -    33          1.794506238420          9.887333270351          0.000000000000
      0.6206713851D+01  0.6559530854D+00
      0.2576489653D+01  0.3758563329D+00
 Atom C2       Shell    14 S   1     bf   34 -    34          1.794506238420          9.887333270351          0.000000000000
      0.5769633942D+00  0.1000000000D+01
 Atom C2       Shell    15 S   1     bf   35 -    35          1.794506238420          9.887333270351          0.000000000000
      0.2297283136D+00  0.1000000000D+01
 Atom C2       Shell    16 S   1     bf   36 -    36          1.794506238420          9.887333270351          0.000000000000
      0.9516444003D-01  0.1000000000D+01
 Atom C2       Shell    17 P   4     bf   37 -    39          1.794506238420          9.887333270351          0.000000000000
      0.3469723224D+02  0.1132722000D-01
      0.7958262283D+01  0.7616965920D-01
      0.2378082688D+01  0.3019225220D+00
      0.8143320818D+00  0.7278502735D+00
 Atom C2       Shell    18 P   1     bf   40 -    42          1.794506238420          9.887333270351          0.000000000000
      0.2888754725D+00  0.1000000000D+01
 Atom C2       Shell    19 P   1     bf   43 -    45          1.794506238420          9.887333270351          0.000000000000
      0.1005682367D+00  0.1000000000D+01
 Atom C2       Shell    20 D   1     bf   46 -    50          1.794506238420          9.887333270351          0.000000000000
      0.1097000000D+01  0.1000000000D+01
 Atom C2       Shell    21 D   1     bf   51 -    55          1.794506238420          9.887333270351          0.000000000000
      0.3180000000D+00  0.1000000000D+01
 Atom C2       Shell    22 F   1     bf   56 -    62          1.794506238420          9.887333270351          0.000000000000
      0.7610000000D+00  0.1000000000D+01
 Atom C3       Shell    23 S   6     bf   63 -    63          2.653597869913          7.381808072801          0.000000000000
      0.1357534968D+05  0.6064550360D-03
      0.2035233368D+04  0.4697908888D-02
      0.4632256236D+03  0.2433247765D-01
      0.1312001960D+03  0.9739996831D-01
      0.4285301589D+02  0.3019558425D+00
      0.1558418577D+02  0.6623360914D+00
 Atom C3       Shell    24 S   2     bf   64 -    64          2.653597869913          7.381808072801          0.000000000000
      0.6206713851D+01  0.6559530854D+00
      0.2576489653D+01  0.3758563329D+00
 Atom C3       Shell    25 S   1     bf   65 -    65          2.653597869913          7.381808072801          0.000000000000
      0.5769633942D+00  0.1000000000D+01
 Atom C3       Shell    26 S   1     bf   66 -    66          2.653597869913          7.381808072801          0.000000000000
      0.2297283136D+00  0.1000000000D+01
 Atom C3       Shell    27 S   1     bf   67 -    67          2.653597869913          7.381808072801          0.000000000000
      0.9516444003D-01  0.1000000000D+01
 Atom C3       Shell    28 P   4     bf   68 -    70          2.653597869913          7.381808072801          0.000000000000
      0.3469723224D+02  0.1132722000D-01
      0.7958262283D+01  0.7616965920D-01
      0.2378082688D+01  0.3019225220D+00
      0.8143320818D+00  0.7278502735D+00
 Atom C3       Shell    29 P   1     bf   71 -    73          2.653597869913          7.381808072801          0.000000000000
      0.2888754725D+00  0.1000000000D+01
 Atom C3       Shell    30 P   1     bf   74 -    76          2.653597869913          7.381808072801          0.000000000000
      0.1005682367D+00  0.1000000000D+01
 Atom C3       Shell    31 D   1     bf   77 -    81          2.653597869913          7.381808072801          0.000000000000
      0.1097000000D+01  0.1000000000D+01
 Atom C3       Shell    32 D   1     bf   82 -    86          2.653597869913          7.381808072801          0.000000000000
      0.3180000000D+00  0.1000000000D+01
 Atom C3       Shell    33 F   1     bf   87 -    93          2.653597869913          7.381808072801          0.000000000000
      0.7610000000D+00  0.1000000000D+01
 Atom C4       Shell    34 S   6     bf   94 -    94         -2.528062604814          8.419561856077          0.000000000000
      0.1357534968D+05  0.6064550360D-03
      0.2035233368D+04  0.4697908888D-02
      0.4632256236D+03  0.2433247765D-01
      0.1312001960D+03  0.9739996831D-01
      0.4285301589D+02  0.3019558425D+00
      0.1558418577D+02  0.6623360914D+00
 Atom C4       Shell    35 S   2     bf   95 -    95         -2.528062604814          8.419561856077          0.000000000000
      0.6206713851D+01  0.6559530854D+00
      0.2576489653D+01  0.3758563329D+00
 Atom C4       Shell    36 S   1     bf   96 -    96         -2.528062604814          8.419561856077          0.000000000000
      0.5769633942D+00  0.1000000000D+01
 Atom C4       Shell    37 S   1     bf   97 -    97         -2.528062604814          8.419561856077          0.000000000000
      0.2297283136D+00  0.1000000000D+01
 Atom C4       Shell    38 S   1     bf   98 -    98         -2.528062604814          8.419561856077          0.000000000000
      0.9516444003D-01  0.1000000000D+01
 Atom C4       Shell    39 P   4     bf   99 -   101         -2.528062604814          8.419561856077          0.000000000000
      0.3469723224D+02  0.1132722000D-01
      0.7958262283D+01  0.7616965920D-01
      0.2378082688D+01  0.3019225220D+00
      0.8143320818D+00  0.7278502735D+00
 Atom C4       Shell    40 P   1     bf  102 -   104         -2.528062604814          8.419561856077          0.000000000000
      0.2888754725D+00  0.1000000000D+01
 Atom C4       Shell    41 P   1     bf  105 -   107         -2.528062604814          8.419561856077          0.000000000000
      0.1005682367D+00  0.1000000000D+01
 Atom C4       Shell    42 D   1     bf  108 -   112         -2.528062604814          8.419561856077          0.000000000000
      0.1097000000D+01  0.1000000000D+01
 Atom C4       Shell    43 D   1     bf  113 -   117         -2.528062604814          8.419561856077          0.000000000000
      0.3180000000D+00  0.1000000000D+01
 Atom C4       Shell    44 F   1     bf  118 -   124         -2.528062604814          8.419561856077          0.000000000000
      0.7610000000D+00  0.1000000000D+01
 Atom C5       Shell    45 S   6     bf  125 -   125         -6.889922156393          6.993630578047          0.000000000000
      0.1357534968D+05  0.6064550360D-03
      0.2035233368D+04  0.4697908888D-02
      0.4632256236D+03  0.2433247765D-01
      0.1312001960D+03  0.9739996831D-01
      0.4285301589D+02  0.3019558425D+00
      0.1558418577D+02  0.6623360914D+00
 Atom C5       Shell    46 S   2     bf  126 -   126         -6.889922156393          6.993630578047          0.000000000000
      0.6206713851D+01  0.6559530854D+00
      0.2576489653D+01  0.3758563329D+00
 Atom C5       Shell    47 S   1     bf  127 -   127         -6.889922156393          6.993630578047          0.000000000000
      0.5769633942D+00  0.1000000000D+01
 Atom C5       Shell    48 S   1     bf  128 -   128         -6.889922156393          6.993630578047          0.000000000000
      0.2297283136D+00  0.1000000000D+01
 Atom C5       Shell    49 S   1     bf  129 -   129         -6.889922156393          6.993630578047          0.000000000000
      0.9516444003D-01  0.1000000000D+01
 Atom C5       Shell    50 P   4     bf  130 -   132         -6.889922156393          6.993630578047          0.000000000000
      0.3469723224D+02  0.1132722000D-01
      0.7958262283D+01  0.7616965920D-01
      0.2378082688D+01  0.3019225220D+00
      0.8143320818D+00  0.7278502735D+00
 Atom C5       Shell    51 P   1     bf  133 -   135         -6.889922156393          6.993630578047          0.000000000000
      0.2888754725D+00  0.1000000000D+01
 Atom C5       Shell    52 P   1     bf  136 -   138         -6.889922156393          6.993630578047          0.000000000000
      0.1005682367D+00  0.1000000000D+01
 Atom C5       Shell    53 D   1     bf  139 -   143         -6.889922156393          6.993630578047          0.000000000000
      0.1097000000D+01  0.1000000000D+01
 Atom C5       Shell    54 D   1     bf  144 -   148         -6.889922156393          6.993630578047          0.000000000000
      0.3180000000D+00  0.1000000000D+01
 Atom C5       Shell    55 F   1     bf  149 -   155         -6.889922156393          6.993630578047          0.000000000000
      0.7610000000D+00  0.1000000000D+01
 Atom C6       Shell    56 S   6     bf  156 -   156         -5.188998270022          8.917402249142          0.000000000000
      0.1357534968D+05  0.6064550360D-03
      0.2035233368D+04  0.4697908888D-02
      0.4632256236D+03  0.2433247765D-01
      0.1312001960D+03  0.9739996831D-01
      0.4285301589D+02  0.3019558425D+00
      0.1558418577D+02  0.6623360914D+00
[...]
 0,0.,-0.00000280,0.00000776,0.,-0.00001226,-0.00004532,0.,0.00084464,-
 0.00040843,0.,0.14928855,0.00001476,0.00002494,0.,0.00001204,-0.000020
 71,0.,0.00000262,-0.00000661,0.,0.00000329,-0.00001317,0.,-0.00002433,
 0.00000304,0.,0.00000885,0.00001198,0.,0.00002474,0.00003906,0.,0.0000
 5608,-0.00002464,0.,-0.00004414,-0.00002055,0.,-0.00012260,0.00000182,
 0.,0.00011464,-0.00007352,0.,0.00013005,-0.00004780,0.,0.00002800,-0.0
 0003084,0.,0.00002005,0.00000904,0.,-0.00001121,0.00002844,0.,-0.00003
 011,0.00021550,0.,-0.00004920,-0.00015652,0.,-0.00002656,0.00007642,0.
 ,-0.00120204,0.00155525,0.,-0.00288075,0.00507341,0.,0.12854004,-0.259
 18620,0.,0.01752024,-0.01822206,0.,-0.00094918,0.00027847,0.,-0.003784
 76,-0.00317615,0.,-0.00012091,0.00011603,0.,0.00013652,-0.00008199,0.,
 -0.00032398,-0.00030142,0.,0.00126261,-0.00047741,0.,0.00001133,-0.000
 05659,0.,-0.00001672,0.00004310,0.,0.00000200,-0.00005427,0.,0.0000919
 2,-0.00008837,0.,0.00000286,-0.00000115,0.,0.00000373,0.00000403,0.,-0
 .00000498,-0.00000096,0.,0.00000249,-0.00000401,0.,0.00000307,0.000001
 59,0.,-0.00000297,-0.00000019,0.,0.00000357,-0.00000388,0.,-0.00000265
 ,0.00000049,0.,0.00000897,0.00000022,0.,0.00036663,0.00074891,0.,-0.13
 842984,0.27306957,0.,0.,-0.00000306,0.,0.,0.00000393,0.,0.,-0.00002254
 ,0.,0.,0.00000058,0.,0.,-0.00000233,0.,0.,0.00000297,0.,0.,-0.00000332
 ,0.,0.,-0.00000648,0.,0.,-0.00000198,0.,0.,-0.00000696,0.,0.,0.0000570
 0,0.,0.,0.00021613,0.,0.,-0.00001057,0.,0.,0.00002944,0.,0.,-0.0000163
 2,0.,0.,-0.00060169,0.,0.,0.00008328,0.,0.,0.00006427,0.,0.,0.00887151
 ,0.,0.,0.00296900,0.,0.,-0.03726498,0.,0.,0.00198908,0.,0.,-0.00087574
 ,0.,0.,0.00680329,0.,0.,0.00006810,0.,0.,-0.00083547,0.,0.,-0.00029781
 ,0.,0.,0.00019365,0.,0.,0.00013925,0.,0.,-0.00005904,0.,0.,0.00001221,
 0.,0.,-0.00001603,0.,0.,0.00000072,0.,0.,0.00000176,0.,0.,0.00000294,0
 .,0.,0.00000083,0.,0.,0.00000126,0.,0.,0.00000233,0.,0.,0.00000203,0.,
 0.,-0.00000723,0.,0.,0.00014890,0.,0.,-0.00447881,0.,0.,0.02615022,-0.
 00000960,0.00000107,0.,0.00000204,0.00000560,0.,-0.00001832,-0.0000131
 7,0.,-0.00000250,0.00000013,0.,0.00000514,0.00000589,0.,0.00000127,-0.
 00000796,0.,-0.00000394,-0.00000694,0.,-0.00001021,-0.00001029,0.,-0.0
 0000299,0.00003305,0.,0.00001356,0.00003529,0.,0.00001326,0.00005262,0
 .,-0.00001298,-0.00004399,0.,-0.00001607,0.00004502,0.,-0.00001259,-0.
 00000052,0.,0.00003358,0.00001142,0.,0.00004561,0.00002760,0.,-0.00007
 836,0.00035991,0.,-0.00003574,-0.00009546,0.,0.00059143,0.00011436,0.,
 0.00070347,-0.00303009,0.,-0.01132988,0.00241072,0.,-0.34468950,0.0002
 6927,0.,0.00058932,0.00283309,0.,-0.01311669,-0.00107985,0.,-0.0000582
 8,-0.00015679,0.,-0.00061703,-0.00053155,0.,-0.00000259,0.00030550,0.,
 -0.00150507,-0.00133153,0.,-0.00060881,-0.00190558,0.,0.00058292,-0.00
 026140,0.,-0.00002092,-0.00013216,0.,-0.00004824,-0.00006164,0.,-0.000
 00473,0.00000131,0.,-0.00000262,-0.00000338,0.,0.00000995,0.00000875,0
 .,-0.00000282,0.00000364,0.,-0.00000452,-0.00000050,0.,0.00000016,0.00
 000916,0.,-0.00000323,0.00000237,0.,-0.00001442,0.00003662,0.,0.000009
 03,-0.00001519,0.,-0.00063544,0.00013317,0.,0.00089552,-0.00029264,0.,
 0.36896236,0.00000896,-0.00003279,0.,-0.00002967,0.00001307,0.,0.00003
 999,0.00001009,0.,0.00000852,0.00003676,0.,0.00002652,0.00000182,0.,-0
 .00000740,-0.00002240,0.,-0.00001541,-0.00008113,0.,-0.00009962,0.0000
 6030,0.,0.00008859,0.00004159,0.,0.00019838,-0.00002036,0.,-0.00030652
 ,0.00007449,0.,-0.00043153,0.00028257,0.,-0.00003780,-0.00001622,0.,-0
 .00001370,-0.00000589,0.,-0.00005841,-0.00000215,0.,0.00003132,-0.0003
 6803,0.,0.00022769,-0.00017893,0.,0.00016802,-0.00003598,0.,0.00050692
 ,-0.00115082,0.,-0.00231125,-0.00473972,0.,-0.02980421,0.00338822,0.,0
 .00026274,-0.05890516,0.,0.00210560,-0.00505534,0.,0.02673866,0.007005
 05,0.,0.00016744,-0.00001225,0.,0.00110914,0.00098426,0.,-0.00001552,0
 .00005558,0.,-0.00079199,0.00083665,0.,0.00096168,-0.00249591,0.,-0.00
 054655,0.00029869,0.,-0.00000477,0.00008684,0.,-0.00010950,0.00019454,
 0.,0.00000041,-0.00000015,0.,0.00000175,0.00000074,0.,0.00000169,0.000
 00046,0.,0.00000167,-0.00000033,0.,0.00000075,-0.00000048,0.,0.0000016
 8,-0.00000845,0.,0.00000102,0.00000050,0.,0.00002569,-0.00004262,0.,0.
 00008750,0.00001874,0.,-0.00133934,-0.00004079,0.,0.00029612,0.0008237
 7,0.,0.00572561,0.06282839,0.,0.,0.00000162,0.,0.,-0.00000844,0.,0.,-0
 .00000292,0.,0.,-0.00000933,0.,0.,0.00002435,0.,0.,-0.00000083,0.,0.,-
 0.00000495,0.,0.,-0.00000219,0.,0.,-0.00000586,0.,0.,0.00006612,0.,0.,
 -0.00006132,0.,0.,-0.00081902,0.,0.,-0.00008151,0.,0.,0.00000410,0.,0.
 ,0.00007486,0.,0.,0.00014161,0.,0.,-0.00035267,0.,0.,-0.00002990,0.,0.
 ,-0.00125444,0.,0.,0.00690141,0.,0.,0.00263524,0.,0.,-0.03506978,0.,0.
 ,0.00835378,0.,0.,0.00156885,0.,0.,0.00025575,0.,0.,0.00008501,0.,0.,-
 0.00070943,0.,0.,-0.00238596,0.,0.,-0.00130443,0.,0.,-0.00010034,0.,0.
 ,-0.00012056,0.,0.,0.00035974,0.,0.,0.00000244,0.,0.,0.00000218,0.,0.,
 0.00000430,0.,0.,0.00000024,0.,0.,-0.00000270,0.,0.,0.00000165,0.,0.,-
 0.00000029,0.,0.,0.00000788,0.,0.,0.00004386,0.,0.,0.00001101,0.,0.,-0
 .00330745,0.,0.,0.02278585,0.00003048,0.00000925,0.,-0.00000619,-0.000
 02864,0.,0.00001873,0.00000146,0.,0.00000497,0.00001218,0.,0.00000264,
 -0.00001384,0.,-0.00002297,0.00000205,0.,-0.00000548,-0.00000428,0.,-0
 .00005480,-0.00004107,0.,-0.00001468,0.00001923,0.,-0.00000468,0.00012
 238,0.,-0.00055578,-0.00031717,0.,-0.00001786,-0.00012613,0.,0.0000349
 6,-0.00000623,0.,0.00000763,0.00002968,0.,-0.00004907,0.00000124,0.,0.
 00004476,0.00003736,0.,0.00001236,-0.00003733,0.,-0.00004829,0.0000056
 8,0.,0.00001187,0.00012748,0.,0.00019065,0.00008967,0.,0.00062139,-0.0
 0040947,0.,-0.00131396,0.00001081,0.,-0.00012418,-0.00013988,0.,0.0010
 8067,0.00110183,0.,-0.00007091,0.00166187,0.,0.00011183,0.00021706,0.,
 -0.00525641,-0.00200999,0.,-0.01142175,0.02754564,0.,-0.15158340,0.133
 77368,0.,0.01156207,-0.01405072,0.,-0.00037370,-0.00309143,0.,-0.00077
 778,-0.00093465,0.,-0.00000019,-0.00000155,0.,0.00000152,0.00000110,0.
 ,-0.00000209,-0.00000502,0.,-0.00000075,-0.00000103,0.,0.00000039,-0.0
 0000102,0.,0.00000428,-0.00000378,0.,-0.00000788,-0.00000032,0.,0.0000
 3486,0.00000560,0.,0.00000369,0.00000246,0.,0.00009730,0.00000942,0.,-
 0.00002451,-0.00000295,0.,0.00037668,-0.00284158,0.,0.15620525,0.00000
 647,0.00000497,0.,-0.00000067,-0.00000641,0.,0.00000823,0.00000285,0.,
 0.00000725,-0.00000022,0.,-0.00001177,0.00000616,0.,0.00000773,0.00000
 309,0.,0.00001067,0.00000296,0.,0.00001562,0.00000025,0.,-0.00000617,-
 0.00000513,0.,-0.00004829,0.00001423,0.,0.00000636,-0.00004912,0.,0.00
 001592,0.00000590,0.,0.00000213,-0.00000985,0.,0.00000953,-0.00000457,
 0.,-0.00001108,0.00000609,0.,-0.00000045,0.00000760,0.,0.00003060,-0.0
 0001728,0.,0.00000015,0.00002672,0.,0.00006078,-0.00003409,0.,0.000014
 57,-0.00007094,0.,-0.00028597,0.00010300,0.,-0.00254402,-0.00212596,0.
 ,0.00016703,0.00015669,0.,0.00061611,-0.00168432,0.,-0.00027201,0.0001
 7487,0.,0.00003459,0.00002252,0.,-0.00120232,0.00128368,0.,-0.00030584
 ,0.00563223,0.,0.13308939,-0.25227326,0.,0.01859154,-0.01979924,0.,-0.
 00382168,-0.00375676,0.,-0.00096524,0.00015244,0.,0.00000271,-0.000000
 84,0.,0.00000236,0.00000306,0.,-0.00000352,-0.00000135,0.,0.00000187,-
 0.00000310,0.,0.00000272,0.00000130,0.,-0.00000316,-0.00000044,0.,0.00
 000293,-0.00000255,0.,-0.00000570,0.00000750,0.,0.00001014,0.00001048,
 0.,-0.00000840,0.00000255,0.,-0.00000046,0.00000141,0.,-0.00341859,-0.
 00390687,0.,-0.14037910,0.27627261,0.,0.,-0.00000815,0.,0.,0.00000215,
 0.,0.,-0.00000306,0.,0.,0.00002000,0.,0.,0.00000312,0.,0.,-0.00000891,
 0.,0.,-0.00000666,0.,0.,-0.00001756,0.,0.,-0.00000105,0.,0.,-0.0000291
 2,0.,0.,0.00002525,0.,0.,-0.00003025,0.,0.,0.00002617,0.,0.,-0.0000339
 1,0.,0.,0.00001708,0.,0.,-0.00000735,0.,0.,0.00001846,0.,0.,-0.0000154
 2,0.,0.,0.00029914,0.,0.,-0.00009904,0.,0.,-0.00016994,0.,0.,-0.001207
 37,0.,0.,-0.00057128,0.,0.,-0.00171511,0.,0.,0.00003568,0.,0.,0.000058
 53,0.,0.,0.00714942,0.,0.,0.00104542,0.,0.,-0.03569684,0.,0.,0.0032550
 0,0.,0.,0.00868507,0.,0.,-0.00124785,0.,0.,0.00000134,0.,0.,0.00000100
 ,0.,0.,-0.00000055,0.,0.,0.00000062,0.,0.,0.00000174,0.,0.,0.00000130,
 0.,0.,0.00000538,0.,0.,0.00000060,0.,0.,0.00000745,0.,0.,0.00009874,0.
 ,0.,-0.00001637,0.,0.,0.00222675,0.,0.,0.02336619,-0.00000686,-0.00000
 186,0.,0.00000273,0.00000513,0.,-0.00001253,-0.00000527,0.,-0.00000629
 ,-0.00000392,0.,0.00000892,-0.00000761,0.,-0.00000606,-0.00000091,0.,-
 0.00000323,0.00000950,0.,-0.00001041,-0.00001003,0.,-0.00000667,0.0000
 0868,0.,0.00002129,-0.00002703,0.,-0.00004592,0.00006626,0.,-0.0000057
 0,-0.00001966,0.,0.00000695,0.00000494,0.,-0.00001207,0.00000107,0.,0.
 00001739,-0.00000478,0.,0.00000730,0.00000652,0.,-0.00000788,-0.000006
 94,0.,-0.00001083,-0.00000720,0.,-0.00004770,0.00002174,0.,-0.00002600
 ,-0.00004635,0.,-0.00000132,0.00001651,0.,-0.00004345,-0.00004133,0.,0
 .00000140,-0.00028245,0.,-0.00054466,0.00042650,0.,0.00001185,-0.00002
 774,0.,-0.00000809,-0.00000235,0.,0.00069678,0.00009139,0.,0.00106041,
 -0.00252916,0.,-0.01009474,0.00232158,0.,-0.34206479,-0.01247515,0.,-0
 .01217133,-0.00419678,0.,0.00021506,0.00348380,0.,-0.00000356,0.000000
 91,0.,-0.00000254,-0.00000349,0.,0.00000479,0.00000273,0.,-0.00000197,
 0.00000370,0.,-0.00000365,-0.00000145,0.,0.00000607,-0.00000115,0.,-0.
 00000529,0.00000274,0.,0.00002604,-0.00005429,0.,-0.00000921,-0.000007
 05,0.,-0.00000632,-0.00000657,0.,-0.00000187,-0.00002330,0.,-0.0000109
 2,0.00000914,0.,0.00087266,-0.00033705,0.,0.36221994,-0.00000444,-0.00
 000300,0.,-0.00000023,0.00000503,0.,-0.00000262,-0.00000079,0.,-0.0000
 0236,0.00000317,0.,0.00000448,0.00000393,0.,0.00000110,-0.00000453,0.,
 -0.00000604,-0.00001235,0.,-0.00001796,0.00000494,0.,0.00001331,0.0000
 0877,0.,0.00002434,0.00007774,0.,-0.00001664,-0.00003017,0.,-0.0000000
 5,-0.00002967,0.,-0.00001455,0.00001191,0.,0.00000082,-0.00000047,0.,0
 .00000745,0.00000005,0.,-0.00000214,-0.00000401,0.,-0.00003124,0.00004
 035,0.,0.00003246,-0.00003835,0.,-0.00011580,0.00001834,0.,-0.00004690
 ,0.00000736,0.,0.00007547,0.00001252,0.,-0.00000172,-0.00001664,0.,-0.
 00010233,-0.00039218,0.,-0.00123899,0.00070305,0.,0.00015738,0.0001104
 5,0.,0.00011607,-0.00010716,0.,-0.00010970,-0.00150679,0.,-0.00205860,
 -0.00471879,0.,-0.02947165,0.00317908,0.,-0.01181611,-0.06132791,0.,0.
 02738285,0.00676843,0.,0.00284067,-0.00428847,0.,-0.00000013,0.0000004
 0,0.,-0.00000060,-0.00000037,0.,0.00000115,0.00000160,0.,-0.00000019,0
 .00000026,0.,-0.00000007,0.00000018,0.,-0.00000389,0.00000516,0.,0.000
 00102,0.00000023,0.,-0.00003259,0.00007999,0.,-0.00001513,-0.00000350,
 0.,-0.00000051,-0.00000487,0.,-0.00000650,-0.00002101,0.,0.00000842,-0
 .00002820,0.,0.00020831,0.00089776,0.,0.01352127,0.05969450,0.,0.,-0.0
 0000110,0.,0.,0.00000026,0.,0.,-0.00000413,0.,0.,-0.00000088,0.,0.,-0.
 00000195,0.,0.,0.00000013,0.,0.,0.00000179,0.,0.,0.00000040,0.,0.,-0.0
 0000687,0.,0.,-0.00004750,0.,0.,0.00002720,0.,0.,0.00000744,0.,0.,0.00
 001135,0.,0.,0.00000241,0.,0.,0.00000256,0.,0.,-0.00001826,0.,0.,0.000
 07550,0.,0.,-0.00001424,0.,0.,-0.00002311,0.,0.,0.00001682,0.,0.,-0.00
 005975,0.,0.,0.00018646,0.,0.,-0.00036347,0.,0.,0.00016168,0.,0.,-0.00
 097269,0.,0.,0.00007510,0.,0.,-0.00110967,0.,0.,0.00861041,0.,0.,0.002
 38980,0.,0.,-0.03647524,0.,0.,0.00221989,0.,0.,0.00719505,0.,0.,0.0000
 0040,0.,0.,0.00000082,0.,0.,0.00000094,0.,0.,0.00000109,0.,0.,0.000000
 51,0.,0.,0.00000341,0.,0.,0.00000122,0.,0.,0.00011125,0.,0.,0.00000390
 ,0.,0.,0.00000257,0.,0.,0.00001587,0.,0.,-0.00003382,0.,0.,-0.00441644
 ,0.,0.,0.02578256,-0.00000185,-0.00000257,0.,-0.00000026,0.00000043,0.
 ,-0.00000807,-0.00000102,0.,-0.00000467,0.00000506,0.,0.00001410,-0.00
 000419,0.,-0.00001263,-0.00000393,0.,-0.00002134,-0.00000831,0.,-0.000
 04726,-0.00003126,0.,0.00000532,0.00002106,0.,0.00007205,0.00005512,0.
 ,-0.00004261,-0.00000127,0.,-0.00001059,-0.00000623,0.,0.00000628,0.00
 001530,0.,-0.00000707,0.00000693,0.,0.00000599,-0.00002007,0.,-0.00003
 468,0.00002301,0.,-0.00004532,-0.00013481,0.,0.00000653,-0.00004164,0.
 ,0.00001641,-0.00002820,0.,-0.00002042,0.00002048,0.,0.00006817,-0.000
 01239,0.,-0.00002040,-0.00002058,0.,-0.00005871,0.00012071,0.,0.000153
 94,0.00009118,0.,0.00018162,-0.00157692,0.,-0.00044468,0.00012320,0.,-
 0.00542984,0.00083555,0.,-0.00115076,0.00070524,0.,-0.00119209,0.00347
 113,0.,0.01222217,0.01654573,0.,-0.11659953,-0.11202848,0.,-0.00916271
 ,-0.02990305,0.,-0.00000205,0.00000025,0.,-0.00000182,-0.00000195,0.,0
 .00000242,0.00000056,0.,-0.00000345,0.00000281,0.,-0.00000192,-0.00000
 109,0.,0.00000085,0.00000987,0.,-0.00000851,0.00000253,0.,-0.00001735,
 0.00001130,0.,0.00000029,-0.00000473,0.,0.00000343,-0.00000349,0.,-0.0
 0000047,-0.00000501,0.,0.00003527,-0.00004368,0.,0.00035416,0.00084874
 ,0.,0.00071856,-0.00059149,0.,0.11966182,-0.00000433,-0.00000177,0.,0.
 00000329,0.00000421,0.,-0.00000925,-0.00000580,0.,-0.00000550,-0.00000
 179,0.,0.00000831,-0.00001212,0.,-0.00001182,0.00000379,0.,-0.00000931
 ,0.00001689,0.,-0.00000577,-0.00002130,0.,-0.00001528,-0.00000552,0.,0
 .00000299,-0.00001520,0.,-0.00003904,-0.00003403,0.,-0.00000217,0.,0.,
 0.00001996,0.00000934,0.,-0.00001263,0.00000131,0.,0.00001267,-0.00000
 648,0.,-0.00000110,0.00001056,0.,0.00001436,-0.00001475,0.,-0.00002803
 ,0.00001428,0.,-0.00001463,0.00000840,0.,-0.00000498,-0.00001850,0.,-0
 .00004630,0.00002339,0.,0.00004871,-0.00006455,0.,0.00002131,-0.000057
 50,0.,-0.00008436,-0.00001059,0.,0.00008317,-0.00001765,0.,-0.00007050
 ,0.00007782,0.,0.00038194,0.00180066,0.,0.00090961,0.00034365,0.,0.004
 11854,-0.00288973,0.,-0.01505121,-0.01767787,0.,-0.11269997,-0.2866231
 0,0.,0.00190070,0.00217456,0.,-0.00000303,0.00000078,0.,-0.00000204,-0
 .00000324,0.,0.00000339,0.00000115,0.,-0.00000277,0.00000367,0.,-0.000
 00303,-0.00000161,0.,0.00000423,0.00000226,0.,-0.00000605,0.00000321,0
 .,0.00000697,-0.00002123,0.,-0.00000348,-0.00000539,0.,-0.00001090,-0.
 00000551,0.,0.00000248,-0.00000715,0.,-0.00005541,0.00007666,0.,-0.000
 67690,-0.00101630,0.,0.00031946,0.00084283,0.,0.12134262,0.30218295,0.
 ,0.,-0.00000101,0.,0.,-0.00000155,0.,0.,-0.00000044,0.,0.,0.00000046,0
 .,0.,-0.00000054,0.,0.,-0.00000185,0.,0.,0.00000261,0.,0.,0.00001523,0
 .,0.,-0.00001118,0.,0.,-0.00007766,0.,0.,0.00023972,0.,0.,-0.00000889,
 0.,0.,-0.00000069,0.,0.,0.00000127,0.,0.,-0.00000013,0.,0.,-0.00000595
 ,0.,0.,-0.00003403,0.,0.,0.00003691,0.,0.,0.00007595,0.,0.,-0.00000836
 ,0.,0.,-0.00007945,0.,0.,0.00004164,0.,0.,0.00008358,0.,0.,-0.00097679
 ,0.,0.,0.00013749,0.,0.,-0.00034668,0.,0.,0.00860167,0.,0.,-0.00111082
 ,0.,0.,0.00719329,0.,0.,0.00223040,0.,0.,-0.03639213,0.,0.,0.00236543,
 0.,0.,0.00000091,0.,0.,0.00000099,0.,0.,0.00000116,0.,0.,0.00000147,0.
 ,0.,0.00000080,0.,0.,0.00000658,0.,0.,0.00000238,0.,0.,-0.00005524,0.,
 0.,0.00000088,0.,0.,0.00001826,0.,0.,0.00000522,0.,0.,0.00010515,0.,0.
 ,-0.00004431,0.,0.,-0.00330254,0.,0.,0.02571641,-0.00000156,0.00000128
 ,0.,0.00000314,0.00000572,0.,0.00000920,0.00000147,0.,0.00001012,0.000
 00011,0.,-0.00002167,0.00001061,0.,0.00001293,0.00001211,0.,0.00001063
 ,0.00001902,0.,0.00003576,-0.00003442,0.,-0.00002082,-0.00003758,0.,-0
 .00008786,0.00025688,0.,-0.00207718,-0.00202886,0.,0.00005674,0.000040
 60,0.,0.00001591,0.00002463,0.,0.00001204,-0.00002265,0.,-0.00000940,0
 .00001309,0.,-0.00003695,0.00000107,0.,0.00005443,0.00008824,0.,0.0000
 1818,0.00002372,0.,0.00000180,0.00004321,0.,0.00000224,-0.00002066,0.,
 0.00003637,-0.00005804,0.,-0.00025090,-0.00013811,0.,0.00012825,0.0000
 3777,0.,0.00064967,-0.00057981,0.,-0.00063552,0.00146531,0.,0.00013324
 ,0.00001351,0.,0.01291904,-0.01094273,0.,-0.00100210,-0.00310358,0.,-0
 .00070816,-0.00100080,0.,-0.00570869,-0.00140310,0.,-0.01296541,0.0293
 6349,0.,-0.13490545,0.12639252,0.,0.00000498,0.00000008,0.,0.00000273,
 0.00000384,0.,-0.00000526,-0.00000111,0.,0.00000289,-0.00000478,0.,0.0
 0000537,0.00000280,0.,-0.00002710,0.00002781,0.,0.00001332,-0.00000420
 ,0.,-0.00606312,-0.00093594,0.,-0.00000596,0.00000479,0.,-0.00000050,0
 .00000283,0.,-0.00001470,-0.00002029,0.,0.00000846,0.00000522,0.,0.000
 05150,0.00006536,0.,-0.00071626,0.00131461,0.,0.00082169,-0.00032492,0
 .,0.15024397,-0.00001386,-0.00000415,0.,0.00000717,0.00001859,0.,-0.00
 000787,-0.00000417,0.,0.00000354,0.00000723,0.,-0.00000910,0.00000634,
 0.,0.00000517,0.00001021,0.,-0.00002398,0.00002861,0.,-0.00001121,0.00
 001964,0.,-0.00001303,-0.00006116,0.,-0.00013605,0.00090795,0.,0.00091
 039,-0.00059210,0.,0.00007020,0.00007227,0.,0.00002775,0.00010215,0.,0
 .00001585,-0.00003322,0.,0.00002251,-0.00000615,0.,-0.00009926,0.00000
 821,0.,0.00011843,-0.00002405,0.,0.00019799,0.00002339,0.,0.00002554,0
 .00003326,0.,-0.00006038,-0.00007214,0.,0.00009327,-0.00005892,0.,-0.0
 0046172,-0.00033930,0.,0.00017300,0.00000287,0.,0.00134415,-0.00055789
 ,0.,0.00187091,0.00000930,0.,-0.00021906,-0.00011191,0.,0.01673280,-0.
 01881224,0.,-0.00393745,-0.00301729,0.,-0.00095538,0.00008129,0.,-0.00
 068508,0.00164067,0.,-0.00313358,0.00464338,0.,0.12689436,-0.26794144,
 0.,0.00000334,0.00000173,0.,0.00000045,0.00000136,0.,-0.00000159,0.000
 00298,0.,0.00000051,-0.00000166,0.,0.00000348,0.00000188,0.,-0.0000274
 0,0.00002744,0.,0.00001419,-0.00000038,0.,-0.00027972,0.00201364,0.,-0
 .00001391,-0.00000267,0.,-0.00000896,-0.00000501,0.,-0.00002478,-0.000
 04933,0.,0.00001501,0.00003118,0.,0.00012860,-0.00003430,0.,-0.0001927
 0,0.00006121,0.,0.00021758,0.00093627,0.,-0.13858012,0.28103643,0.,0.,
 0.00000234,0.,0.,-0.00000713,0.,0.,0.00000871,0.,0.,-0.00000975,0.,0.,
 -0.00000051,0.,0.,-0.00000055,0.,0.,0.00000621,0.,0.,-0.00001882,0.,0.
 ,-0.00002376,0.,0.,-0.00032888,0.,0.,-0.00073373,0.,0.,-0.00005387,0.,
 0.,0.00004914,0.,0.,0.00001315,0.,0.,-0.00001494,0.,0.,0.00000643,0.,0
 .,0.00018317,0.,0.,0.00002859,0.,0.,0.00014240,0.,0.,-0.00005397,0.,0.
 ,-0.00001223,0.,0.,-0.00003956,0.,0.,-0.00014939,0.,0.,0.00021242,0.,0
 .,-0.00224557,0.,0.,-0.00031717,0.,0.,0.00150215,0.,0.,0.00696714,0.,0
 .,-0.00121872,0.,0.,0.00868108,0.,0.,0.00335703,0.,0.,-0.03597749,0.,0
 .,0.00000008,0.,0.,0.00000159,0.,0.,0.00000115,0.,0.,0.00000201,0.,0.,
 0.00000153,0.,0.,0.00004568,0.,0.,0.00000199,0.,0.,0.00217401,0.,0.,0.
 00000702,0.,0.,0.00000836,0.,0.,-0.00000159,0.,0.,0.00000439,0.,0.,-0.
 00100505,0.,0.,-0.00005714,0.,0.,-0.00442563,0.,0.,0.02328767\\-0.0000
 0042,0.00000254,0.,-0.00000044,0.00000080,0.,-0.00000067,0.00000080,0.
 ,0.00000108,-0.00000038,0.,-0.00000165,0.00000006,0.,0.00000003,0.0000
 0428,0.,0.00000248,0.00000032,0.,0.00000080,0.00000026,0.,0.00000070,0
 .00000057,0.,-0.00000036,0.00000007,0.,0.00000267,-0.00000120,0.,-0.00
 000047,0.00000020,0.,0.00000080,0.00000242,0.,-0.00000123,-0.00000039,
 0.,-0.00000011,0.00000179,0.,-0.00000110,0.00000132,0.,0.00000087,-0.0
 0000126,0.,-0.00000053,0.00000124,0.,-0.00000166,0.00000050,0.,0.00000
 087,-0.00000145,0.,-0.00000253,-0.00000222,0.,-0.00000089,0.00000166,0
 .,-0.00000103,-0.00000052,0.,0.00000123,-0.00000178,0.,-0.00000012,0.0
 0000102,0.,-0.00000108,-0.00000095,0.,0.00000111,-0.00000170,0.,-0.000
 00021,-0.00000061,0.,-0.00000094,-0.00000183,0.,0.00000090,-0.00000188
 ,0.,0.00000102,-0.00000090,0.,0.00000030,-0.00000143,0.,-0.00000069,0.
 00000197,0.,-0.00000107,0.00000148,0.,-0.00000128,0.00000057,0.,0.0000
 0116,0.00000180,0.,0.00000015,0.00000149,0.,0.00000157,0.00000030,0.,0
 .00000104,0.00000102,0.,0.00000024,-0.00000018,0.,-0.00000083,-0.00000
 011,0.,-0.00000169,-0.00000037,0.,-0.00000110,-0.00000101,0.,-0.000000
 08,-0.00000153,0.,0.00000016,-0.00000220,0.,0.00000047,-0.00000209,0.,
 0.00000108,-0.00000158,0.,0.00000146,-0.00000090,0.\\\@


 IT IS NOT EASY TO DESCRIBE
     THE SEA WITH THE MOUTH

                   -- KOKYU
 Job cpu time:       4 days 22 hours 10 minutes 38.4 seconds.
 File lengths (MBytes):  RWF=   4430 Int=      0 D2E=      0 Chk=     85 Scr=      1
 Normal termination of Gaussian 09 at Sun Jul 28 00:17:11 2019.
