 Entering Gaussian System, Link 0=g09
 Initial command:
 /home/minenky/programs//g09/l1.exe "/local/scratch/minenky/m1_00_188-91-0-C32H16_wB97XD/Gau-30685.inp" -scrdir="/local/scratch/minenky/m1_00_188-91-0-C32H16_wB97XD/"
 Entering Link 1 = /home/minenky/programs//g09/l1.exe PID=     30686.
  
 Copyright (c) 1988,1990,1992,1993,1995,1998,2003,2009,2013,
            Gaussian, Inc.  All Rights Reserved.
  
 This is part of the Gaussian(R) 09 program.  It is based on
 the Gaussian(R) 03 system (copyright 2003, Gaussian, Inc.),
 the Gaussian(R) 98 system (copyright 1998, Gaussian, Inc.),
 the Gaussian(R) 94 system (copyright 1995, Gaussian, Inc.),
 the Gaussian 92(TM) system (copyright 1992, Gaussian, Inc.),
 the Gaussian 90(TM) system (copyright 1990, Gaussian, Inc.),
 the Gaussian 88(TM) system (copyright 1988, Gaussian, Inc.),
 the Gaussian 86(TM) system (copyright 1986, Carnegie Mellon
 University), and the Gaussian 82(TM) system (copyright 1983,
 Carnegie Mellon University). Gaussian is a federally registered
 trademark of Gaussian, Inc.
  
 This software contains proprietary and confidential information,
 including trade secrets, belonging to Gaussian, Inc.
  
 This software is provided under written license and may be
 used, copied, transmitted, or stored only in accord with that
 written license.
  
 The following legend is applicable only to US Government
 contracts under FAR:
  
                    RESTRICTED RIGHTS LEGEND
  
 Use, reproduction and disclosure by the US Government is
 subject to restrictions as set forth in subparagraphs (a)
 and (c) of the Commercial Computer Software - Restricted
 Rights clause in FAR 52.227-19.
  
 Gaussian, Inc.
 340 Quinnipiac St., Bldg. 40, Wallingford CT 06492
  
  
 ---------------------------------------------------------------
 Warning -- This program may not be used in any manner that
 competes with the business of Gaussian, Inc. or will provide
 assistance to any competitor of Gaussian, Inc.  The licensee
 of this program is prohibited from giving any competitor of
 Gaussian, Inc. access to this program.  By using this program,
 the user acknowledges that Gaussian, Inc. is engaged in the
 business of creating and licensing software in the field of
 computational chemistry and represents and warrants to the
 licensee that it is not a competitor of Gaussian, Inc. and that
 it will not use this program in any manner prohibited above.
 ---------------------------------------------------------------
  

 Cite this work as:
 Gaussian 09, Revision D.01,
 M. J. Frisch, G. W. Trucks, H. B. Schlegel, G. E. Scuseria, 
 M. A. Robb, J. R. Cheeseman, G. Scalmani, V. Barone, B. Mennucci, 
 G. A. Petersson, H. Nakatsuji, M. Caricato, X. Li, H. P. Hratchian, 
 A. F. Izmaylov, J. Bloino, G. Zheng, J. L. Sonnenberg, M. Hada, 
 M. Ehara, K. Toyota, R. Fukuda, J. Hasegawa, M. Ishida, T. Nakajima, 
 Y. Honda, O. Kitao, H. Nakai, T. Vreven, J. A. Montgomery, Jr., 
 J. E. Peralta, F. Ogliaro, M. Bearpark, J. J. Heyd, E. Brothers, 
 K. N. Kudin, V. N. Staroverov, T. Keith, R. Kobayashi, J. Normand, 
 K. Raghavachari, A. Rendell, J. C. Burant, S. S. Iyengar, J. Tomasi, 
 M. Cossi, N. Rega, J. M. Millam, M. Klene, J. E. Knox, J. B. Cross, 
 V. Bakken, C. Adamo, J. Jaramillo, R. Gomperts, R. E. Stratmann, 
 O. Yazyev, A. J. Austin, R. Cammi, C. Pomelli, J. W. Ochterski, 
 R. L. Martin, K. Morokuma, V. G. Zakrzewski, G. A. Voth, 
 P. Salvador, J. J. Dannenberg, S. Dapprich, A. D. Daniels, 
 O. Farkas, J. B. Foresman, J. V. Ortiz, J. Cioslowski, 
 and D. J. Fox, Gaussian, Inc., Wallingford CT, 2013.
 
 ******************************************
 Gaussian 09:  AM64L-G09RevD.01 24-Apr-2013
                27-Jul-2019 
 ******************************************
 %Mem=32000MB
 %NProcShared=16
 Will use up to   16 processors via shared memory.
 %Chk=m1_00_188-91-0-C32H16_wB97XD
 ----------------------------------------------------------------------
 #P wB97XD/def2tzvp opt=(tight) freq integral(Grid=ultrafine) # SCF(Max
 Cycle=380) 5d 7f GFPrint
 ----------------------------------------------------------------------
 1/7=10,14=-1,18=20,19=15,26=4,38=1/1,3;
 2/9=110,12=2,17=6,18=5,40=1/2;
 3/5=44,7=101,8=11,11=2,16=1,24=100,25=1,30=1,71=1,74=-58,75=-5/1,2,3;
 4//1;
 5/5=2,7=380,38=5/2;
 6/7=2,8=2,9=2,10=2,28=1/1;
 7//1,2,3,16;
 1/7=10,14=-1,18=20,19=15,26=4/3(2);
 2/9=110/2;
 99//99;
 2/9=110/2;
 3/5=44,7=101,8=11,11=2,16=1,25=1,30=1,71=1,74=-58,75=-5/1,2,3;
 4/5=5,16=3,69=1/1;
 5/5=2,7=380,38=5/2;
 7//1,2,3,16;
 1/7=10,14=-1,18=20,19=15,26=4/3(-5);
 2/9=110/2;
 6/7=2,8=2,9=2,10=2,19=2,28=1/1;
 99/9=1/99;
 Leave Link    1 at Sat Jul 27 14:25:42 2019, MaxMem=  4194304000 cpu:         0.9
 (Enter /home/minenky/programs//g09/l101.exe)
 ---------------------------------------
 The PBEPBE optimization and frequencies
 ---------------------------------------
 Symbolic Z-matrix:
 Charge =  0 Multiplicity = 1
 C                    -2.05191   1.9221    0. 
 C                    -3.43447   1.53866   0. 
 C                    -4.45986   2.49103   0. 
 C                    -5.78887   2.08692   0. 
 C                    -6.12209   0.73718   0. 
 C                    -2.03887  -3.14614   0. 
 C                    -0.71238  -2.75013   0. 
 C                    -3.05956  -2.18927   0. 
 C                    -2.72114  -0.8177    0. 
 C                    -3.76321   0.16479   0. 
 C                    -5.11862  -0.23606   0. 
 C                    -5.43005  -1.6425    0. 
 C                    -4.4478   -2.57259   0. 
 C                    -1.36427  -0.41643   0. 
 C                    -0.35614  -1.39517   0. 
 C                    -1.05029   0.99586   0. 
 C                     0.35614   1.39527   0. 
 C                     2.03898   3.14617   0. 
 C                     0.71244   2.7502    0. 
 C                     3.05962   2.18929   0. 
 C                     5.43009   1.64247   0. 
 C                     4.44788   2.57258   0. 
 C                     5.11863   0.23601   0. 
 C                     4.45979  -2.4911    0. 
 C                     5.7888   -2.08703   0. 
 C                     6.12207  -0.73724   0. 
 C                     3.43441  -1.53867   0. 
 C                     3.76318  -0.16481   0. 
 C                     2.72113   0.81772   0. 
 C                     1.36427   0.41648   0. 
 C                     1.05027  -0.99578   0. 
 C                     2.05184  -1.92208   0. 
 H                    -1.80658   2.99662   0. 
 H                    -4.20928   3.55779   0. 
 H                    -6.58382   2.84029   0. 
 H                    -7.17438   0.43126   0. 
 H                    -2.29371  -4.21204   0. 
 H                     0.08814  -3.50637   0. 
 H                    -6.48619  -1.93548   0. 
 H                    -4.68435  -3.6429    0. 
 H                     2.29377   4.21209   0. 
 H                    -0.088     3.50652   0. 
 H                     6.48625   1.9354    0. 
 H                     4.68441   3.64288   0. 
 H                     4.2091   -3.55784   0. 
 H                     6.58381  -2.84034   0. 
 H                     7.1744   -0.43144   0. 
 H                     1.80643  -2.99659   0. 
 
 NAtoms=     48 NQM=       48 NQMF=       0 NMMI=      0 NMMIF=      0
                NMic=       0 NMicF=      0.
                    Isotopes and Nuclear Properties:
 (Nuclear quadrupole moments (NQMom) in fm**2, nuclear magnetic moments (NMagM)
  in nuclear magnetons)

  Atom         1           2           3           4           5           6           7           8           9          10
 IAtWgt=          12          12          12          12          12          12          12          12          12          12
 AtmWgt=  12.0000000  12.0000000  12.0000000  12.0000000  12.0000000  12.0000000  12.0000000  12.0000000  12.0000000  12.0000000
 NucSpn=           0           0           0           0           0           0           0           0           0           0
 AtZEff=   0.0000000   0.0000000   0.0000000   0.0000000   0.0000000   0.0000000   0.0000000   0.0000000   0.0000000   0.0000000
 NQMom=    0.0000000   0.0000000   0.0000000   0.0000000   0.0000000   0.0000000   0.0000000   0.0000000   0.0000000   0.0000000
 NMagM=    0.0000000   0.0000000   0.0000000   0.0000000   0.0000000   0.0000000   0.0000000   0.0000000   0.0000000   0.0000000
 AtZNuc=   6.0000000   6.0000000   6.0000000   6.0000000   6.0000000   6.0000000   6.0000000   6.0000000   6.0000000   6.0000000

  Atom        11          12          13          14          15          16          17          18          19          20
 IAtWgt=          12          12          12          12          12          12          12          12          12          12
 AtmWgt=  12.0000000  12.0000000  12.0000000  12.0000000  12.0000000  12.0000000  12.0000000  12.0000000  12.0000000  12.0000000
 NucSpn=           0           0           0           0           0           0           0           0           0           0
 AtZEff=   0.0000000   0.0000000   0.0000000   0.0000000   0.0000000   0.0000000   0.0000000   0.0000000   0.0000000   0.0000000
 NQMom=    0.0000000   0.0000000   0.0000000   0.0000000   0.0000000   0.0000000   0.0000000   0.0000000   0.0000000   0.0000000
 NMagM=    0.0000000   0.0000000   0.0000000   0.0000000   0.0000000   0.0000000   0.0000000   0.0000000   0.0000000   0.0000000
 AtZNuc=   6.0000000   6.0000000   6.0000000   6.0000000   6.0000000   6.0000000   6.0000000   6.0000000   6.0000000   6.0000000

  Atom        21          22          23          24          25          26          27          28          29          30
 IAtWgt=          12          12          12          12          12          12          12          12          12          12
 AtmWgt=  12.0000000  12.0000000  12.0000000  12.0000000  12.0000000  12.0000000  12.0000000  12.0000000  12.0000000  12.0000000
 NucSpn=           0           0           0           0           0           0           0           0           0           0
 AtZEff=   0.0000000   0.0000000   0.0000000   0.0000000   0.0000000   0.0000000   0.0000000   0.0000000   0.0000000   0.0000000
 NQMom=    0.0000000   0.0000000   0.0000000   0.0000000   0.0000000   0.0000000   0.0000000   0.0000000   0.0000000   0.0000000
 NMagM=    0.0000000   0.0000000   0.0000000   0.0000000   0.0000000   0.0000000   0.0000000   0.0000000   0.0000000   0.0000000
 AtZNuc=   6.0000000   6.0000000   6.0000000   6.0000000   6.0000000   6.0000000   6.0000000   6.0000000   6.0000000   6.0000000

  Atom        31          32          33          34          35          36          37          38          39          40
 IAtWgt=          12          12           1           1           1           1           1           1           1           1
 AtmWgt=  12.0000000  12.0000000   1.0078250   1.0078250   1.0078250   1.0078250   1.0078250   1.0078250   1.0078250   1.0078250
 NucSpn=           0           0           1           1           1           1           1           1           1           1
 AtZEff=   0.0000000   0.0000000   0.0000000   0.0000000   0.0000000   0.0000000   0.0000000   0.0000000   0.0000000   0.0000000
 NQMom=    0.0000000   0.0000000   0.0000000   0.0000000   0.0000000   0.0000000   0.0000000   0.0000000   0.0000000   0.0000000
 NMagM=    0.0000000   0.0000000   2.7928460   2.7928460   2.7928460   2.7928460   2.7928460   2.7928460   2.7928460   2.7928460
 AtZNuc=   6.0000000   6.0000000   1.0000000   1.0000000   1.0000000   1.0000000   1.0000000   1.0000000   1.0000000   1.0000000

  Atom        41          42          43          44          45          46          47          48
 IAtWgt=           1           1           1           1           1           1           1           1
 AtmWgt=   1.0078250   1.0078250   1.0078250   1.0078250   1.0078250   1.0078250   1.0078250   1.0078250
 NucSpn=           1           1           1           1           1           1           1           1
 AtZEff=   0.0000000   0.0000000   0.0000000   0.0000000   0.0000000   0.0000000   0.0000000   0.0000000
 NQMom=    0.0000000   0.0000000   0.0000000   0.0000000   0.0000000   0.0000000   0.0000000   0.0000000
 NMagM=    2.7928460   2.7928460   2.7928460   2.7928460   2.7928460   2.7928460   2.7928460   2.7928460
 AtZNuc=   1.0000000   1.0000000   1.0000000   1.0000000   1.0000000   1.0000000   1.0000000   1.0000000
 Leave Link  101 at Sat Jul 27 14:25:42 2019, MaxMem=  4194304000 cpu:         5.6
 (Enter /home/minenky/programs//g09/l103.exe)

 GradGradGradGradGradGradGradGradGradGradGradGradGradGradGradGradGradGrad
 Berny optimization.
 Initialization pass.
                           ----------------------------
                           !    Initial Parameters    !
                           ! (Angstroms and Degrees)  !
 --------------------------                            --------------------------
 ! Name  Definition              Value          Derivative Info.                !
 --------------------------------------------------------------------------------
 ! R1    R(1,2)                  1.4347         estimate D2E/DX2                !
 ! R2    R(1,16)                 1.3642         estimate D2E/DX2                !
 ! R3    R(1,33)                 1.1022         estimate D2E/DX2                !
 ! R4    R(2,3)                  1.3994         estimate D2E/DX2                !
 ! R5    R(2,10)                 1.4127         estimate D2E/DX2                !
 ! R6    R(3,4)                  1.3891         estimate D2E/DX2                !
 ! R7    R(3,34)                 1.0958         estimate D2E/DX2                !
 ! R8    R(4,5)                  1.3903         estimate D2E/DX2                !
 ! R9    R(4,35)                 1.0952         estimate D2E/DX2                !
 ! R10   R(5,11)                 1.3979         estimate D2E/DX2                !
 ! R11   R(5,36)                 1.0959         estimate D2E/DX2                !
 ! R12   R(6,7)                  1.3843         estimate D2E/DX2                !
 ! R13   R(6,8)                  1.3991         estimate D2E/DX2                !
 ! R14   R(6,37)                 1.0959         estimate D2E/DX2                !
 ! R15   R(7,15)                 1.401          estimate D2E/DX2                !
 ! R16   R(7,38)                 1.1012         estimate D2E/DX2                !
 ! R17   R(8,9)                  1.4127         estimate D2E/DX2                !
 ! R18   R(8,13)                 1.4402         estimate D2E/DX2                !
 ! R19   R(9,10)                 1.4322         estimate D2E/DX2                !
 ! R20   R(9,14)                 1.415          estimate D2E/DX2                !
 ! R21   R(10,11)                1.4134         estimate D2E/DX2                !
 ! R22   R(11,12)                1.4405         estimate D2E/DX2                !
 ! R23   R(12,13)                1.3527         estimate D2E/DX2                !
 ! R24   R(12,39)                1.096          estimate D2E/DX2                !
 ! R25   R(13,40)                1.0961         estimate D2E/DX2                !
 ! R26   R(14,15)                1.4051         estimate D2E/DX2                !
 ! R27   R(14,16)                1.4468         estimate D2E/DX2                !
 ! R28   R(15,31)                1.462          estimate D2E/DX2                !
 ! R29   R(16,17)                1.462          estimate D2E/DX2                !
 ! R30   R(17,19)                1.401          estimate D2E/DX2                !
 ! R31   R(17,30)                1.4051         estimate D2E/DX2                !
 ! R32   R(18,19)                1.3844         estimate D2E/DX2                !
 ! R33   R(18,20)                1.399          estimate D2E/DX2                !
 ! R34   R(18,41)                1.0959         estimate D2E/DX2                !
 ! R35   R(19,42)                1.1012         estimate D2E/DX2                !
 ! R36   R(20,22)                1.4402         estimate D2E/DX2                !
 ! R37   R(20,29)                1.4127         estimate D2E/DX2                !
 ! R38   R(21,22)                1.3527         estimate D2E/DX2                !
 ! R39   R(21,23)                1.4405         estimate D2E/DX2                !
 ! R40   R(21,43)                1.096          estimate D2E/DX2                !
 ! R41   R(22,44)                1.0961         estimate D2E/DX2                !
 ! R42   R(23,26)                1.3979         estimate D2E/DX2                !
 ! R43   R(23,28)                1.4135         estimate D2E/DX2                !
 ! R44   R(24,25)                1.3891         estimate D2E/DX2                !
 ! R45   R(24,27)                1.3995         estimate D2E/DX2                !
 ! R46   R(24,45)                1.0958         estimate D2E/DX2                !
 ! R47   R(25,26)                1.3903         estimate D2E/DX2                !
 ! R48   R(25,46)                1.0952         estimate D2E/DX2                !
 ! R49   R(26,47)                1.0959         estimate D2E/DX2                !
 ! R50   R(27,28)                1.4126         estimate D2E/DX2                !
 ! R51   R(27,32)                1.4347         estimate D2E/DX2                !
 ! R52   R(28,29)                1.4322         estimate D2E/DX2                !
 ! R53   R(29,30)                1.4149         estimate D2E/DX2                !
 ! R54   R(30,31)                1.4468         estimate D2E/DX2                !
 ! R55   R(31,32)                1.3642         estimate D2E/DX2                !
 ! R56   R(32,48)                1.1022         estimate D2E/DX2                !
 ! A1    A(2,1,16)             121.7384         estimate D2E/DX2                !
 ! A2    A(2,1,33)             118.362          estimate D2E/DX2                !
 ! A3    A(16,1,33)            119.8996         estimate D2E/DX2                !
 ! A4    A(1,2,3)              121.6136         estimate D2E/DX2                !
 ! A5    A(1,2,10)             118.9575         estimate D2E/DX2                !
 ! A6    A(3,2,10)             119.4289         estimate D2E/DX2                !
 ! A7    A(2,3,4)              120.2016         estimate D2E/DX2                !
 ! A8    A(2,3,34)             119.6669         estimate D2E/DX2                !
 ! A9    A(4,3,34)             120.1315         estimate D2E/DX2                !
 ! A10   A(3,4,5)              120.7806         estimate D2E/DX2                !
 ! A11   A(3,4,35)             119.6258         estimate D2E/DX2                !
 ! A12   A(5,4,35)             119.5937         estimate D2E/DX2                !
 ! A13   A(4,5,11)             120.2559         estimate D2E/DX2                !
 ! A14   A(4,5,36)             120.0777         estimate D2E/DX2                !
 ! A15   A(11,5,36)            119.6664         estimate D2E/DX2                !
 ! A16   A(7,6,8)              120.2259         estimate D2E/DX2                !
 ! A17   A(7,6,37)             120.0688         estimate D2E/DX2                !
 ! A18   A(8,6,37)             119.7053         estimate D2E/DX2                !
 ! A19   A(6,7,15)             121.3532         estimate D2E/DX2                !
 ! A20   A(6,7,38)             120.0064         estimate D2E/DX2                !
 ! A21   A(15,7,38)            118.6404         estimate D2E/DX2                !
 ! A22   A(6,8,9)              119.2909         estimate D2E/DX2                !
 ! A23   A(6,8,13)             121.4122         estimate D2E/DX2                !
 ! A24   A(9,8,13)             119.2969         estimate D2E/DX2                !
 ! A25   A(8,9,10)             119.4535         estimate D2E/DX2                !
 ! A26   A(8,9,14)             120.3352         estimate D2E/DX2                !
 ! A27   A(10,9,14)            120.2113         estimate D2E/DX2                !
 ! A28   A(2,10,9)             119.8574         estimate D2E/DX2                !
 ! A29   A(2,10,11)            119.9319         estimate D2E/DX2                !
 ! A30   A(9,10,11)            120.2108         estimate D2E/DX2                !
 ! A31   A(5,11,10)            119.4012         estimate D2E/DX2                !
 ! A32   A(5,11,12)            121.6381         estimate D2E/DX2                !
 ! A33   A(10,11,12)           118.9607         estimate D2E/DX2                !
 ! A34   A(11,12,13)           120.9521         estimate D2E/DX2                !
 ! A35   A(11,12,39)           117.9902         estimate D2E/DX2                !
 ! A36   A(13,12,39)           121.0577         estimate D2E/DX2                !
 ! A37   A(8,13,12)            121.126          estimate D2E/DX2                !
 ! A38   A(8,13,40)            117.8992         estimate D2E/DX2                !
 ! A39   A(12,13,40)           120.9748         estimate D2E/DX2                !
 ! A40   A(9,14,15)            119.373          estimate D2E/DX2                !
 ! A41   A(9,14,16)            119.0087         estimate D2E/DX2                !
 ! A42   A(15,14,16)           121.6183         estimate D2E/DX2                !
 ! A43   A(7,15,14)            119.4217         estimate D2E/DX2                !
 ! A44   A(7,15,31)            120.584          estimate D2E/DX2                !
 ! A45   A(14,15,31)           119.9942         estimate D2E/DX2                !
 ! A46   A(1,16,14)            120.2266         estimate D2E/DX2                !
 ! A47   A(1,16,17)            121.3852         estimate D2E/DX2                !
 ! A48   A(14,16,17)           118.3882         estimate D2E/DX2                !
 ! A49   A(16,17,19)           120.5875         estimate D2E/DX2                !
 ! A50   A(16,17,30)           119.9922         estimate D2E/DX2                !
 ! A51   A(19,17,30)           119.4203         estimate D2E/DX2                !
 ! A52   A(19,18,20)           120.2262         estimate D2E/DX2                !
 ! A53   A(19,18,41)           120.0639         estimate D2E/DX2                !
 ! A54   A(20,18,41)           119.7099         estimate D2E/DX2                !
 ! A55   A(17,19,18)           121.3539         estimate D2E/DX2                !
 ! A56   A(17,19,42)           118.6429         estimate D2E/DX2                !
 ! A57   A(18,19,42)           120.0032         estimate D2E/DX2                !
 ! A58   A(18,20,22)           121.412          estimate D2E/DX2                !
 ! A59   A(18,20,29)           119.2907         estimate D2E/DX2                !
 ! A60   A(22,20,29)           119.2973         estimate D2E/DX2                !
 ! A61   A(22,21,23)           120.9524         estimate D2E/DX2                !
 ! A62   A(22,21,43)           121.0591         estimate D2E/DX2                !
 ! A63   A(23,21,43)           117.9885         estimate D2E/DX2                !
 ! A64   A(20,22,21)           121.1263         estimate D2E/DX2                !
 ! A65   A(20,22,44)           117.8966         estimate D2E/DX2                !
 ! A66   A(21,22,44)           120.9772         estimate D2E/DX2                !
 ! A67   A(21,23,26)           121.6381         estimate D2E/DX2                !
 ! A68   A(21,23,28)           118.9603         estimate D2E/DX2                !
 ! A69   A(26,23,28)           119.4016         estimate D2E/DX2                !
 ! A70   A(25,24,27)           120.2012         estimate D2E/DX2                !
 ! A71   A(25,24,45)           120.1362         estimate D2E/DX2                !
 ! A72   A(27,24,45)           119.6626         estimate D2E/DX2                !
 ! A73   A(24,25,26)           120.7806         estimate D2E/DX2                !
 ! A74   A(24,25,46)           119.6312         estimate D2E/DX2                !
 ! A75   A(26,25,46)           119.5882         estimate D2E/DX2                !
 ! A76   A(23,26,25)           120.2556         estimate D2E/DX2                !
 ! A77   A(23,26,47)           119.6715         estimate D2E/DX2                !
 ! A78   A(25,26,47)           120.0729         estimate D2E/DX2                !
 ! A79   A(24,27,28)           119.4294         estimate D2E/DX2                !
 ! A80   A(24,27,32)           121.613          estimate D2E/DX2                !
 ! A81   A(28,27,32)           118.9576         estimate D2E/DX2                !
 ! A82   A(23,28,27)           119.9316         estimate D2E/DX2                !
 ! A83   A(23,28,29)           120.2103         estimate D2E/DX2                !
 ! A84   A(27,28,29)           119.8581         estimate D2E/DX2                !
 ! A85   A(20,29,28)           119.4535         estimate D2E/DX2                !
 ! A86   A(20,29,30)           120.336          estimate D2E/DX2                !
 ! A87   A(28,29,30)           120.2105         estimate D2E/DX2                !
 ! A88   A(17,30,29)           119.373          estimate D2E/DX2                !
 ! A89   A(17,30,31)           121.6187         estimate D2E/DX2                !
 ! A90   A(29,30,31)           119.0084         estimate D2E/DX2                !
 ! A91   A(15,31,30)           118.3884         estimate D2E/DX2                !
 ! A92   A(15,31,32)           121.3827         estimate D2E/DX2                !
 ! A93   A(30,31,32)           120.2289         estimate D2E/DX2                !
 ! A94   A(27,32,31)           121.7365         estimate D2E/DX2                !
 ! A95   A(27,32,48)           118.3647         estimate D2E/DX2                !
 ! A96   A(31,32,48)           119.8987         estimate D2E/DX2                !
 ! D1    D(16,1,2,3)           180.0            estimate D2E/DX2                !
 ! D2    D(16,1,2,10)            0.0            estimate D2E/DX2                !
 ! D3    D(33,1,2,3)             0.0            estimate D2E/DX2                !
 ! D4    D(33,1,2,10)          180.0            estimate D2E/DX2                !
 ! D5    D(2,1,16,14)            0.0            estimate D2E/DX2                !
 ! D6    D(2,1,16,17)          180.0            estimate D2E/DX2                !
 ! D7    D(33,1,16,14)         180.0            estimate D2E/DX2                !
 ! D8    D(33,1,16,17)           0.0            estimate D2E/DX2                !
 ! D9    D(1,2,3,4)            180.0            estimate D2E/DX2                !
 ! D10   D(1,2,3,34)             0.0            estimate D2E/DX2                !
 ! D11   D(10,2,3,4)             0.0            estimate D2E/DX2                !
 ! D12   D(10,2,3,34)          180.0            estimate D2E/DX2                !
 ! D13   D(1,2,10,9)             0.0            estimate D2E/DX2                !
 ! D14   D(1,2,10,11)          180.0            estimate D2E/DX2                !
 ! D15   D(3,2,10,9)           180.0            estimate D2E/DX2                !
 ! D16   D(3,2,10,11)            0.0            estimate D2E/DX2                !
 ! D17   D(2,3,4,5)              0.0            estimate D2E/DX2                !
 ! D18   D(2,3,4,35)           180.0            estimate D2E/DX2                !
 ! D19   D(34,3,4,5)           180.0            estimate D2E/DX2                !
 ! D20   D(34,3,4,35)            0.0            estimate D2E/DX2                !
 ! D21   D(3,4,5,11)             0.0            estimate D2E/DX2                !
 ! D22   D(3,4,5,36)           180.0            estimate D2E/DX2                !
 ! D23   D(35,4,5,11)          180.0            estimate D2E/DX2                !
 ! D24   D(35,4,5,36)            0.0            estimate D2E/DX2                !
 ! D25   D(4,5,11,10)            0.0            estimate D2E/DX2                !
 ! D26   D(4,5,11,12)          180.0            estimate D2E/DX2                !
 ! D27   D(36,5,11,10)         180.0            estimate D2E/DX2                !
 ! D28   D(36,5,11,12)           0.0            estimate D2E/DX2                !
 ! D29   D(8,6,7,15)             0.0            estimate D2E/DX2                !
 ! D30   D(8,6,7,38)           180.0            estimate D2E/DX2                !
 ! D31   D(37,6,7,15)          180.0            estimate D2E/DX2                !
 ! D32   D(37,6,7,38)            0.0            estimate D2E/DX2                !
 ! D33   D(7,6,8,9)              0.0            estimate D2E/DX2                !
 ! D34   D(7,6,8,13)           180.0            estimate D2E/DX2                !
 ! D35   D(37,6,8,9)           180.0            estimate D2E/DX2                !
 ! D36   D(37,6,8,13)            0.0            estimate D2E/DX2                !
 ! D37   D(6,7,15,14)            0.0            estimate D2E/DX2                !
 ! D38   D(6,7,15,31)          180.0            estimate D2E/DX2                !
 ! D39   D(38,7,15,14)         180.0            estimate D2E/DX2                !
 ! D40   D(38,7,15,31)           0.0            estimate D2E/DX2                !
 ! D41   D(6,8,9,10)           180.0            estimate D2E/DX2                !
 ! D42   D(6,8,9,14)             0.0            estimate D2E/DX2                !
 ! D43   D(13,8,9,10)            0.0            estimate D2E/DX2                !
 ! D44   D(13,8,9,14)          180.0            estimate D2E/DX2                !
 ! D45   D(6,8,13,12)          180.0            estimate D2E/DX2                !
 ! D46   D(6,8,13,40)            0.0            estimate D2E/DX2                !
 ! D47   D(9,8,13,12)            0.0            estimate D2E/DX2                !
 ! D48   D(9,8,13,40)          180.0            estimate D2E/DX2                !
 ! D49   D(8,9,10,2)           180.0            estimate D2E/DX2                !
 ! D50   D(8,9,10,11)            0.0            estimate D2E/DX2                !
 ! D51   D(14,9,10,2)            0.0            estimate D2E/DX2                !
 ! D52   D(14,9,10,11)         180.0            estimate D2E/DX2                !
 ! D53   D(8,9,14,15)            0.0            estimate D2E/DX2                !
 ! D54   D(8,9,14,16)          180.0            estimate D2E/DX2                !
 ! D55   D(10,9,14,15)         180.0            estimate D2E/DX2                !
 ! D56   D(10,9,14,16)           0.0            estimate D2E/DX2                !
 ! D57   D(2,10,11,5)            0.0            estimate D2E/DX2                !
 ! D58   D(2,10,11,12)         180.0            estimate D2E/DX2                !
 ! D59   D(9,10,11,5)          180.0            estimate D2E/DX2                !
 ! D60   D(9,10,11,12)           0.0            estimate D2E/DX2                !
 ! D61   D(5,11,12,13)         180.0            estimate D2E/DX2                !
 ! D62   D(5,11,12,39)           0.0            estimate D2E/DX2                !
 ! D63   D(10,11,12,13)          0.0            estimate D2E/DX2                !
 ! D64   D(10,11,12,39)        180.0            estimate D2E/DX2                !
 ! D65   D(11,12,13,8)           0.0            estimate D2E/DX2                !
 ! D66   D(11,12,13,40)        180.0            estimate D2E/DX2                !
 ! D67   D(39,12,13,8)         180.0            estimate D2E/DX2                !
 ! D68   D(39,12,13,40)          0.0            estimate D2E/DX2                !
 ! D69   D(9,14,15,7)            0.0            estimate D2E/DX2                !
 ! D70   D(9,14,15,31)         180.0            estimate D2E/DX2                !
 ! D71   D(16,14,15,7)         180.0            estimate D2E/DX2                !
 ! D72   D(16,14,15,31)          0.0            estimate D2E/DX2                !
 ! D73   D(9,14,16,1)            0.0            estimate D2E/DX2                !
 ! D74   D(9,14,16,17)         180.0            estimate D2E/DX2                !
 ! D75   D(15,14,16,1)         180.0            estimate D2E/DX2                !
 ! D76   D(15,14,16,17)          0.0            estimate D2E/DX2                !
 ! D77   D(7,15,31,30)         180.0            estimate D2E/DX2                !
 ! D78   D(7,15,31,32)           0.0            estimate D2E/DX2                !
 ! D79   D(14,15,31,30)          0.0            estimate D2E/DX2                !
 ! D80   D(14,15,31,32)        180.0            estimate D2E/DX2                !
 ! D81   D(1,16,17,19)           0.0            estimate D2E/DX2                !
 ! D82   D(1,16,17,30)         180.0            estimate D2E/DX2                !
 ! D83   D(14,16,17,19)        180.0            estimate D2E/DX2                !
 ! D84   D(14,16,17,30)          0.0            estimate D2E/DX2                !
 ! D85   D(16,17,19,18)        180.0            estimate D2E/DX2                !
 ! D86   D(16,17,19,42)          0.0            estimate D2E/DX2                !
 ! D87   D(30,17,19,18)          0.0            estimate D2E/DX2                !
 ! D88   D(30,17,19,42)        180.0            estimate D2E/DX2                !
 ! D89   D(16,17,30,29)        180.0            estimate D2E/DX2                !
 ! D90   D(16,17,30,31)          0.0            estimate D2E/DX2                !
 ! D91   D(19,17,30,29)          0.0            estimate D2E/DX2                !
 ! D92   D(19,17,30,31)        180.0            estimate D2E/DX2                !
 ! D93   D(20,18,19,17)          0.0            estimate D2E/DX2                !
 ! D94   D(20,18,19,42)        180.0            estimate D2E/DX2                !
 ! D95   D(41,18,19,17)        180.0            estimate D2E/DX2                !
 ! D96   D(41,18,19,42)          0.0            estimate D2E/DX2                !
 ! D97   D(19,18,20,22)        180.0            estimate D2E/DX2                !
 ! D98   D(19,18,20,29)          0.0            estimate D2E/DX2                !
 ! D99   D(41,18,20,22)          0.0            estimate D2E/DX2                !
 ! D100  D(41,18,20,29)        180.0            estimate D2E/DX2                !
 ! D101  D(18,20,22,21)        180.0            estimate D2E/DX2                !
 ! D102  D(18,20,22,44)          0.0            estimate D2E/DX2                !
 ! D103  D(29,20,22,21)          0.0            estimate D2E/DX2                !
 ! D104  D(29,20,22,44)        180.0            estimate D2E/DX2                !
 ! D105  D(18,20,29,28)        180.0            estimate D2E/DX2                !
 ! D106  D(18,20,29,30)          0.0            estimate D2E/DX2                !
 ! D107  D(22,20,29,28)          0.0            estimate D2E/DX2                !
 ! D108  D(22,20,29,30)        180.0            estimate D2E/DX2                !
 ! D109  D(23,21,22,20)          0.0            estimate D2E/DX2                !
 ! D110  D(23,21,22,44)        180.0            estimate D2E/DX2                !
 ! D111  D(43,21,22,20)        180.0            estimate D2E/DX2                !
 ! D112  D(43,21,22,44)          0.0            estimate D2E/DX2                !
 ! D113  D(22,21,23,26)        180.0            estimate D2E/DX2                !
 ! D114  D(22,21,23,28)          0.0            estimate D2E/DX2                !
 ! D115  D(43,21,23,26)          0.0            estimate D2E/DX2                !
 ! D116  D(43,21,23,28)        180.0            estimate D2E/DX2                !
 ! D117  D(21,23,26,25)        180.0            estimate D2E/DX2                !
 ! D118  D(21,23,26,47)          0.0            estimate D2E/DX2                !
 ! D119  D(28,23,26,25)          0.0            estimate D2E/DX2                !
 ! D120  D(28,23,26,47)        180.0            estimate D2E/DX2                !
 ! D121  D(21,23,28,27)        180.0            estimate D2E/DX2                !
 ! D122  D(21,23,28,29)          0.0            estimate D2E/DX2                !
 ! D123  D(26,23,28,27)          0.0            estimate D2E/DX2                !
 ! D124  D(26,23,28,29)        180.0            estimate D2E/DX2                !
 ! D125  D(27,24,25,26)          0.0            estimate D2E/DX2                !
 ! D126  D(27,24,25,46)        180.0            estimate D2E/DX2                !
 ! D127  D(45,24,25,26)        180.0            estimate D2E/DX2                !
 ! D128  D(45,24,25,46)          0.0            estimate D2E/DX2                !
 ! D129  D(25,24,27,28)          0.0            estimate D2E/DX2                !
 ! D130  D(25,24,27,32)        180.0            estimate D2E/DX2                !
 ! D131  D(45,24,27,28)        180.0            estimate D2E/DX2                !
 ! D132  D(45,24,27,32)          0.0            estimate D2E/DX2                !
 ! D133  D(24,25,26,23)          0.0            estimate D2E/DX2                !
 ! D134  D(24,25,26,47)        180.0            estimate D2E/DX2                !
 ! D135  D(46,25,26,23)        180.0            estimate D2E/DX2                !
 ! D136  D(46,25,26,47)          0.0            estimate D2E/DX2                !
 ! D137  D(24,27,28,23)          0.0            estimate D2E/DX2                !
 ! D138  D(24,27,28,29)        180.0            estimate D2E/DX2                !
 ! D139  D(32,27,28,23)        180.0            estimate D2E/DX2                !
 ! D140  D(32,27,28,29)          0.0            estimate D2E/DX2                !
 ! D141  D(24,27,32,31)        180.0            estimate D2E/DX2                !
 ! D142  D(24,27,32,48)          0.0            estimate D2E/DX2                !
 ! D143  D(28,27,32,31)          0.0            estimate D2E/DX2                !
 ! D144  D(28,27,32,48)        180.0            estimate D2E/DX2                !
 ! D145  D(23,28,29,20)          0.0            estimate D2E/DX2                !
 ! D146  D(23,28,29,30)        180.0            estimate D2E/DX2                !
 ! D147  D(27,28,29,20)        180.0            estimate D2E/DX2                !
 ! D148  D(27,28,29,30)          0.0            estimate D2E/DX2                !
 ! D149  D(20,29,30,17)          0.0            estimate D2E/DX2                !
 ! D150  D(20,29,30,31)        180.0            estimate D2E/DX2                !
 ! D151  D(28,29,30,17)        180.0            estimate D2E/DX2                !
 ! D152  D(28,29,30,31)          0.0            estimate D2E/DX2                !
 ! D153  D(17,30,31,15)          0.0            estimate D2E/DX2                !
 ! D154  D(17,30,31,32)        180.0            estimate D2E/DX2                !
 ! D155  D(29,30,31,15)        180.0            estimate D2E/DX2                !
 ! D156  D(29,30,31,32)          0.0            estimate D2E/DX2                !
 ! D157  D(15,31,32,27)        180.0            estimate D2E/DX2                !
 ! D158  D(15,31,32,48)          0.0            estimate D2E/DX2                !
 ! D159  D(30,31,32,27)          0.0            estimate D2E/DX2                !
 ! D160  D(30,31,32,48)        180.0            estimate D2E/DX2                !
 --------------------------------------------------------------------------------
 Trust Radius=3.00D-01 FncErr=1.00D-07 GrdErr=1.00D-06
 Number of steps in this run=    288 maximum allowed number of steps=    288.
 GradGradGradGradGradGradGradGradGradGradGradGradGradGradGradGradGradGrad

 Leave Link  103 at Sat Jul 27 14:25:42 2019, MaxMem=  4194304000 cpu:         0.2
 (Enter /home/minenky/programs//g09/l202.exe)
                          Input orientation:                          
 ---------------------------------------------------------------------
 Center     Atomic      Atomic             Coordinates (Angstroms)
 Number     Number       Type             X           Y           Z
 ---------------------------------------------------------------------
      1          6           0       -2.051913    1.922098    0.000000
      2          6           0       -3.434474    1.538660    0.000000
      3          6           0       -4.459858    2.491027    0.000000
      4          6           0       -5.788870    2.086919    0.000000
      5          6           0       -6.122092    0.737180    0.000000
      6          6           0       -2.038871   -3.146139    0.000000
      7          6           0       -0.712379   -2.750127    0.000000
      8          6           0       -3.059565   -2.189266    0.000000
      9          6           0       -2.721135   -0.817697    0.000000
     10          6           0       -3.763214    0.164792    0.000000
     11          6           0       -5.118620   -0.236057    0.000000
     12          6           0       -5.430050   -1.642499    0.000000
     13          6           0       -4.447798   -2.572594    0.000000
     14          6           0       -1.364272   -0.416432    0.000000
     15          6           0       -0.356138   -1.395173    0.000000
     16          6           0       -1.050292    0.995858    0.000000
     17          6           0        0.356137    1.395270    0.000000
     18          6           0        2.038976    3.146172    0.000000
     19          6           0        0.712443    2.750201    0.000000
     20          6           0        3.059617    2.189285    0.000000
     21          6           0        5.430092    1.642469    0.000000
     22          6           0        4.447878    2.572577    0.000000
     23          6           0        5.118628    0.236007    0.000000
     24          6           0        4.459795   -2.491101    0.000000
     25          6           0        5.788803   -2.087031    0.000000
     26          6           0        6.122074   -0.737244    0.000000
     27          6           0        3.434406   -1.538668    0.000000
     28          6           0        3.763178   -0.164813    0.000000
     29          6           0        2.721134    0.817716    0.000000
     30          6           0        1.364271    0.416484    0.000000
     31          6           0        1.050271   -0.995785    0.000000
     32          6           0        2.051837   -1.922076    0.000000
     33          1           0       -1.806579    2.996624    0.000000
     34          1           0       -4.209283    3.557792    0.000000
     35          1           0       -6.583822    2.840286    0.000000
     36          1           0       -7.174384    0.431264    0.000000
     37          1           0       -2.293715   -4.212044    0.000000
     38          1           0        0.088136   -3.506370    0.000000
     39          1           0       -6.486194   -1.935484    0.000000
     40          1           0       -4.684352   -3.642896    0.000000
     41          1           0        2.293769    4.212086    0.000000
     42          1           0       -0.087999    3.506518    0.000000
     43          1           0        6.486251    1.935402    0.000000
     44          1           0        4.684415    3.642881    0.000000
     45          1           0        4.209105   -3.557841    0.000000
     46          1           0        6.583807   -2.840342    0.000000
     47          1           0        7.174400   -0.431444    0.000000
     48          1           0        1.806427   -2.996587    0.000000
 ---------------------------------------------------------------------
                    Distance matrix (angstroms):
                    1          2          3          4          5
     1  C    0.000000
     2  C    1.434747   0.000000
     3  C    2.474244   1.399434   0.000000
     4  C    3.740590   2.417389   1.389092   0.000000
     5  C    4.239150   2.804579   2.416402   1.390264   0.000000
     6  C    5.068254   4.888257   6.135049   6.437965   5.634968
     7  C    4.860456   5.079714   6.443081   7.011974   6.436327
     8  C    4.233046   3.746731   4.885281   5.072955   4.235937
     9  C    2.820343   2.461965   3.737755   4.224665   3.739539
    10  C    2.452891   1.412651   2.428308   2.792464   2.427331
    11  C    3.749977   2.446624   2.805522   2.417738   1.397908
    12  C    4.911024   3.755275   4.245858   3.746640   2.478264
    13  C    5.093380   4.234293   5.063635   4.848663   3.709159
    14  C    2.437533   2.847476   4.246877   5.083683   4.895679
    15  C    3.725578   4.252473   5.651820   6.452871   6.147614
    16  C    1.364245   2.445191   3.722993   4.862565   5.078393
    17  C    2.465006   3.793323   4.939079   6.183809   6.511570
    18  C    4.270097   5.704625   6.531773   7.899189   8.509188
    19  C    2.885727   4.320272   5.178791   6.535061   7.124825
    20  C    5.118508   6.526602   7.525527   8.849079   9.295827
    21  C    7.487229   8.865174   9.926287  11.227763  11.587602
    22  C    6.532259   7.949871   8.908110  10.248262  10.728138
    23  C    7.366109   8.651732   9.840351  11.063426  11.251887
    24  C    7.866299   8.863321  10.216741  11.224678  11.063369
    25  C    8.806244   9.910322  11.224690  12.307086  12.241143
    26  C    8.595706   9.823815  11.063409  12.241180  12.332621
    27  C    6.486648   7.526717   8.863287   9.910283   9.823754
    28  C    6.178226   7.396487   8.641285   9.813864   9.926337
    29  C    4.899146   6.197683   7.373372   8.604130   8.843593
    30  C    3.733254   4.928208   6.182574   7.345597   7.493229
    31  C    4.258824   5.151345   6.520689   7.501794   7.378751
    32  C    5.623027   6.486625   7.866235   8.806175   8.595624
    33  H    1.102178   2.185338   2.701022   4.084875   4.871216
    34  H    2.707350   2.162689   1.095799   2.158370   3.408033
    35  H    4.623989   3.407730   2.152488   1.095221   2.153195
    36  H    5.335007   3.900417   3.407532   2.158899   1.095857
    37  H    6.138906   5.862758   7.044383   7.203683   6.257099
    38  H    5.835073   6.153138   7.526820   8.113204   7.521612
    39  H    5.877396   4.624140   4.868268   4.082400   2.697351
    40  H    6.156207   5.330170   6.138030   5.835301   4.610007
    41  H    4.912127   6.321390   6.969471   8.357355   9.105036
    42  H    2.523360   3.882185   4.488249   5.874963   6.639241
    43  H    8.538174   9.928655  10.960202  12.276056  12.665151
    44  H    6.952640   8.387139   9.216534  10.588234  11.190339
    45  H    8.320461   9.186872  10.570701  11.481412  11.188424
    46  H    9.861871  10.933509  12.263199  13.317697  13.199945
    47  H    9.521765  10.790251  11.995700  13.205625  13.347749
    48  H    6.251419   6.930765   8.329480   9.139506   8.763700
                    6          7          8          9         10
     6  C    0.000000
     7  C    1.384344   0.000000
     8  C    1.399079   2.413264   0.000000
     9  C    2.426340   2.787362   1.412705   0.000000
    10  C    3.733045   4.219519   2.456972   1.432206   0.000000
    11  C    4.237149   5.073017   2.838086   2.467030   1.413438
    12  C    3.709586   4.845953   2.432726   2.831698   2.458586
    13  C    2.476264   3.739636   1.440185   2.461915   2.821691
    14  C    2.811830   2.423035   2.452949   1.414953   2.468348
    15  C    2.428472   1.401003   2.817641   2.434480   3.747220
    16  C    4.258337   3.761195   3.765925   2.465908   2.837361
    17  C    5.134244   4.280892   4.951355   3.790360   4.299201
    18  C    7.498134   6.506635   7.379838   6.194426   6.523345
    19  C    6.506655   5.681877   6.215013   4.951703   5.168737
    20  C    7.379793   6.214961   7.524367   6.516060   7.116852
    21  C    8.872214   7.551480   9.314315   8.514395   9.311305
    22  C    8.647637   7.413462   8.890267   7.930240   8.556836
    23  C    7.916357   6.551156   8.530228   7.910258   8.882127
    24  C    6.531595   5.178656   7.525415   7.373333   8.641275
    25  C    7.899000   6.534911   8.848958   8.604084   9.813854
    26  C    8.509042   7.124706   9.295744   8.843575   9.926358
    27  C    5.704448   4.320123   6.526480   6.197620   7.396452
    28  C    6.523196   5.168603   7.116757   6.517099   7.533605
    29  C    6.194336   4.951617   6.516013   5.682682   6.517137
    30  C    4.926831   3.786806   5.134224   4.267757   5.133659
    31  C    3.763884   2.486896   4.279620   3.775609   4.951422
    32  C    4.269921   2.885578   5.118380   4.899073   6.178174
    33  H    6.147154   5.849993   5.335113   3.922430   3.442047
    34  H    7.046516   7.212363   5.860933   4.621633   3.422196
    35  H    7.516240   8.107191   6.141399   5.319886   3.887685
    36  H    6.258699   7.202691   4.878414   4.625076   3.421563
    37  H    1.095946   2.153561   2.162905   3.421152   4.616939
    38  H    2.157296   1.101239   3.412152   3.888569   5.320745
    39  H    4.609161   5.831001   3.436014   3.927482   3.438863
    40  H    2.691716   4.071069   2.180132   3.440344   3.917523
    41  H    8.539043   7.583491   8.344788   7.102675   7.284753
    42  H    6.932803   6.287723   6.424341   5.062830   4.967326
    43  H    9.924705   8.589206  10.398821   9.610178  10.401278
    44  H    9.554756   8.366357   9.694491   8.645168   9.135618
    45  H    6.261526   4.987325   7.396388   7.452289   8.798628
    46  H    8.628099   7.296744   9.665326   9.522240  10.774585
    47  H    9.604892   8.220558  10.383833   9.903071  10.953853
    48  H    3.848205   2.530835   4.932509   5.024578   6.404312
                   11         12         13         14         15
    11  C    0.000000
    12  C    1.440509   0.000000
    13  C    2.430927   1.352736   0.000000
    14  C    3.758678   4.246621   3.762601   0.000000
    15  C    4.901508   5.079936   4.257700   1.405087   0.000000
    16  C    4.250754   5.113043   4.927159   1.446771   2.489754
    17  C    5.712635   6.535136   6.230709   2.498414   2.879914
    18  C    7.916480   8.872300   8.647689   4.926890   5.134236
    19  C    6.551262   7.551558   7.413517   3.786860   4.280887
    20  C    8.530290   9.314344   8.890263   5.134253   4.951335
    21  C   10.714672  11.346087  10.739622   7.099469   6.535115
    22  C    9.970271  10.739661  10.276470   6.535691   6.230698
    23  C   10.248126  10.714634   9.970193   6.515649   5.712601
    24  C    9.840287   9.926185   8.907966   6.182557   4.939055
    25  C   11.063362  11.227656  10.248111   7.345569   6.183766
    26  C   11.251861  11.587538  10.728034   7.493217   6.511536
    27  C    8.651650   8.865064   7.949727   4.928157   3.793259
    28  C    8.882083   9.311229   8.556725   5.133620   4.299133
    29  C    7.910258   8.514368   7.930182   4.267747   3.790314
    30  C    6.515649   7.099451   6.535651   2.852841   2.498381
    31  C    6.215497   6.512511   5.719711   2.483077   1.462018
    32  C    7.366010   7.487108   6.532108   3.733198   2.464948
    33  H    4.628158   5.886510   6.163783   3.441596   4.625111
    34  H    3.901306   5.341657   6.135024   4.887591   6.275236
    35  H    3.407448   4.628882   5.819095   6.152228   7.531478
    36  H    2.161362   2.709833   4.056776   5.871626   7.058637
    37  H    4.877351   4.054523   2.707004   3.907753   3.418914
    38  H    6.148597   5.824465   4.631051   3.414266   2.157437
    39  H    2.181355   1.096029   2.135642   5.342434   6.153822
    40  H    3.434405   2.134866   1.096131   4.629579   4.877058
    41  H    8.644622   9.691932   9.564550   5.899529   6.201883
    42  H    6.270089   7.419561   7.480872   4.125337   4.909019
    43  H   11.806280  12.441848  11.826895   8.195232   7.609928
    44  H   10.542563  11.412170  11.046694   7.284548   7.126651
    45  H    9.901550   9.827606   8.712788   6.397733   5.051591
    46  H   11.988707  12.073425  11.034854   8.309471   7.088819
    47  H   12.294573  12.662496  11.817784   8.538686   7.591955
    48  H    7.454985   7.362075   6.268581   4.087852   2.690950
                   16         17         18         19         20
    16  C    0.000000
    17  C    1.462044   0.000000
    18  C    3.763964   2.428498   0.000000
    19  C    2.486957   1.400997   1.384370   0.000000
    20  C    4.279675   2.817670   1.399050   2.413266   0.000000
    21  C    6.512563   5.079973   3.709554   4.845955   2.432727
    22  C    5.719782   4.257745   2.476251   3.739656   1.440202
    23  C    6.215540   4.901552   4.237135   5.073030   2.838102
    24  C    6.520731   5.651892   6.135080   6.443127   4.885336
    25  C    7.501828   6.452927   6.437982   7.012007   5.073000
    26  C    7.378785   6.147653   5.634946   6.436333   4.235944
    27  C    5.151343   4.252497   4.888246   5.079713   3.746746
    28  C    4.951429   3.747237   3.733028   4.219513   2.456986
    29  C    3.775631   2.434497   2.426324   2.787353   1.412718
    30  C    2.483101   1.405118   2.811836   2.423039   2.452962
    31  C    2.894651   2.489772   4.258326   3.761189   3.765919
    32  C    4.258819   3.725611   5.068264   4.860468   4.233073
    33  H    2.138933   2.691036   3.848461   2.531046   4.932713
    34  H    4.067276   5.051690   6.261803   4.987544   7.396602
    35  H    5.832827   7.088802   8.628222   7.296821   9.665388
    36  H    6.150063   7.591974   9.605037   8.220676  10.383902
    37  H    5.354283   6.201910   8.539060   7.583525   8.344770
    38  H    4.643929   4.908961   6.932683   6.287643   6.424188
    39  H    6.175905   7.609955   9.924804   8.589297  10.398857
    40  H    5.892744   7.126686   9.554820   8.366426   9.694503
    41  H    4.639705   3.418899   1.095944   2.153532   2.162926
    42  H    2.688758   2.157458   2.157283   1.101237   3.412124
    43  H    7.594881   6.153863   4.609145   5.831016   3.436026
    44  H    6.316137   4.877063   2.691666   4.071048   2.180116
    45  H    6.956826   6.275242   7.046506   7.212353   5.860954
    46  H    8.543764   7.531552   7.516239   8.107225   6.141422
    47  H    8.347619   7.058725   6.258748   7.202760   4.878490
    48  H    4.909221   4.625121   6.147159   5.849989   5.335143
                   21         22         23         24         25
    21  C    0.000000
    22  C    1.352718   0.000000
    23  C    1.440536   2.430938   0.000000
    24  C    4.245925   5.063691   2.805562   0.000000
    25  C    3.746710   4.848713   2.417776   1.389077   0.000000
    26  C    2.478280   3.709157   1.397899   2.416440   1.390321
    27  C    3.755315   4.234319   2.446646   1.399482   2.417413
    28  C    2.458632   2.821723   1.413472   2.428351   2.792503
    29  C    2.831726   2.461946   2.467055   3.737808   4.224707
    30  C    4.246639   3.762627   3.758692   4.246918   5.083706
    31  C    5.113044   4.927163   4.250746   3.723012   4.862561
    32  C    4.911068   5.093418   3.750004   2.474278   3.740605
    33  H    7.362278   6.268815   7.455165   8.329619   9.139659
    34  H    9.827819   8.713041   9.901727  10.570810  11.481540
    35  H   12.073479  11.034948  11.988728  12.263162  13.317669
    36  H   12.662537  11.817876  12.294563  11.995597  13.205530
    37  H    9.691879   9.564526   8.644535   6.969328   8.357199
    38  H    7.419370   7.480705   6.269868   4.488003   5.874703
    39  H   12.441850  11.826941  11.806238  10.960081  12.275932
    40  H   11.412146  11.046706  10.542500   9.216401  10.588092
    41  H    4.054561   2.707061   4.877401   7.044458   7.203759
    42  H    5.824432   4.631029   6.148594   7.526876   8.113235
    43  H    1.096029   2.135639   2.181360   4.868311   4.082450
    44  H    2.134873   1.096130   3.434433   6.138093   5.835371
    45  H    5.341726   6.135066   3.901348   1.095801   2.158409
    46  H    4.628893   5.819096   3.407444   2.152533   1.095221
    47  H    2.709931   4.056854   2.161409   3.407531   2.158899
    48  H    5.886577   6.163833   4.628211   2.701088   4.084925
                   26         27         28         29         30
    26  C    0.000000
    27  C    2.804610   0.000000
    28  C    2.427358   1.412645   0.000000
    29  C    3.739558   2.461971   1.432208   0.000000
    30  C    4.895689   2.847469   2.468331   1.414943   0.000000
    31  C    5.078388   2.445163   2.837319   2.465881   1.446755
    32  C    4.239181   1.434747   2.452888   2.820358   2.437541
    33  H    8.763863   6.930858   6.404442   5.024721   4.087959
    34  H   11.188578   9.186942   8.798746   7.452429   6.397838
    35  H   13.199944  10.933441  10.774555   9.522237   8.309453
    36  H   13.347704  10.790138  10.953793   9.903062   8.538668
    37  H    9.104929   6.321259   7.284643   7.102619   5.899503
    38  H    6.639011   3.881930   4.967085   5.062648   4.125204
    39  H   12.665078   9.928533  10.401197   9.610151   8.195215
    40  H   11.190248   8.387015   9.135525   8.645131   7.284532
    41  H    6.257140   5.862784   4.616971   3.421168   3.907757
    42  H    7.521604   6.153149   5.320737   3.888558   3.414294
    43  H    2.697344   4.624167   3.438899   3.927509   5.342451
    44  H    4.610029   5.330194   3.917552   3.440353   4.629578
    45  H    3.408110   2.162687   3.422205   4.621640   4.887569
    46  H    2.153188   3.407797   3.887725   5.319928   6.152274
    47  H    1.095858   3.900449   3.421627   4.625147   5.871676
    48  H    4.871287   2.185370   3.442065   3.922447   3.441591
                   31         32         33         34         35
    31  C    0.000000
    32  C    1.364239   0.000000
    33  H    4.909269   6.251478   0.000000
    34  H    6.956866   8.320491   2.467367   0.000000
    35  H    8.543700   9.861779   4.779801   2.480574   0.000000
    36  H    8.347540   9.521626   5.949320   4.308944   2.480353
    37  H    4.639673   4.912003   7.225109   8.002485   8.254718
    38  H    2.688632   2.523115   6.773395   8.268628   9.208424
    39  H    7.594823   8.538041   6.798859   5.946462   4.776767
    40  H    6.316099   6.952515   7.236353   7.216343   6.755711
    41  H    5.354270   6.138931   4.276704   6.535884   8.982953
    42  H    4.643963   5.835111   1.792626   4.121603   6.529899
    43  H    6.175899   5.877428   8.360455  10.817883  13.101359
    44  H    5.892726   6.156233   6.523085   8.894105  11.296783
    45  H    4.067230   2.707311   8.896598  11.022772  12.546844
    46  H    5.832873   4.624064  10.220995  12.546989  14.340711
    47  H    6.150076   5.335039   9.612993  12.062432  14.141885
    48  H    2.138920   1.102180   6.998027   8.896553  10.220830
                   36         37         38         39         40
    36  H    0.000000
    37  H    6.736560   0.000000
    38  H    8.261305   2.484188   0.000000
    39  H    2.464772   4.770703   6.759400   0.000000
    40  H    4.774834   2.457453   4.774440   2.482315   0.000000
    41  H   10.195123   9.592235   8.027415  10.718226  10.506898
    42  H    7.724898   8.027539   7.015100   8.399541   8.499446
    43  H   13.743194  10.718157   8.399331  13.537654  12.485983
    44  H   12.285992  10.506862   8.499269  12.486018  11.868291
    45  H   12.062205   6.535644   4.121291  10.817646   8.893864
    46  H   14.141826   8.982871   6.529728  13.101286  11.296704
    47  H   14.374696  10.195006   7.724656  13.743143  12.285904
    48  H    9.612759   4.276506   1.792318   8.360233   6.522877
                   41         42         43         44         45
    41  H    0.000000
    42  H    2.484078   0.000000
    43  H    4.770765   6.759376   0.000000
    44  H    2.457475   4.774361   2.482358   0.000000
    45  H    8.002517   8.268632   5.946521   7.216392   0.000000
    46  H    8.254767   9.208454   4.776740   6.755729   2.480729
    47  H    6.736686   8.261355   2.464855   4.774951   4.308983
    48  H    7.225128   6.773420   6.798916   7.236390   2.467360
                   46         47         48
    46  H    0.000000
    47  H    2.480240   0.000000
    48  H    4.779935   5.949378   0.000000
 Stoichiometry    C32H16
 Framework group  CS[SG(C32H16)]
 Deg. of freedom    93
 Full point group                 CS      NOp   2
 Largest Abelian subgroup         CS      NOp   2
 Largest concise Abelian subgroup C1      NOp   1
                         Standard orientation:                         
 ---------------------------------------------------------------------
 Center     Atomic      Atomic             Coordinates (Angstroms)
 Number     Number       Type             X           Y           Z
 ---------------------------------------------------------------------
      1          6           0       -2.437405    1.401379    0.000000
      2          6           0       -2.474301    2.835652    0.000000
      3          6           0       -3.684532    3.538330    0.000000
      4          6           0       -3.686025    4.927420    0.000000
      5          6           0       -2.492368    5.640173    0.000000
      6          6           0        2.413846    2.868543    0.000000
      7          6           0        2.422345    1.484225    0.000000
      8          6           0        1.200673    3.565418    0.000000
      9          6           0       -0.012342    2.841312    0.000000
     10          6           0       -1.256258    3.551162    0.000000
     11          6           0       -1.268572    4.964546    0.000000
     12          6           0       -0.014321    5.673009    0.000000
     13          6           0        1.162017    5.005084    0.000000
     14          6           0        0.000000    1.426413    0.000000
     15          6           0        1.230421    0.747934    0.000000
     16          6           0       -1.259100    0.713802    0.000000
     17          6           0       -1.230514   -0.747962    0.000000
     18          6           0       -2.413847   -2.868652    0.000000
     19          6           0       -2.422398   -1.484308    0.000000
     20          6           0       -1.200677   -3.565474    0.000000
     21          6           0        0.014361   -5.673042    0.000000
     22          6           0       -1.161977   -5.005155    0.000000
     23          6           0        1.268622   -4.964540    0.000000
     24          6           0        3.684583   -3.538248    0.000000
     25          6           0        3.686111   -4.927324    0.000000
     26          6           0        2.492423   -5.640137    0.000000
     27          6           0        2.474288   -2.835586    0.000000
     28          6           0        1.256267   -3.551122    0.000000
     29          6           0        0.012323   -2.841316    0.000000
     30          6           0       -0.000051   -1.426428    0.000000
     31          6           0        1.259023   -0.713805    0.000000
     32          6           0        2.437361   -1.401314    0.000000
     33          1           0       -3.393496    0.853033    0.000000
     34          1           0       -4.631671    2.987236    0.000000
     35          1           0       -4.638652    5.467801    0.000000
     36          1           0       -2.506988    6.735933    0.000000
     37          1           0        3.358915    3.423468    0.000000
     38          1           0        3.379348    0.939364    0.000000
     39          1           0       -0.042433    6.768678    0.000000
     40          1           0        2.116631    5.543800    0.000000
     41          1           0       -3.358940   -3.423532    0.000000
     42          1           0       -3.379450   -0.939538    0.000000
     43          1           0        0.042528   -6.768709    0.000000
     44          1           0       -2.116600   -5.543855    0.000000
     45          1           0        4.631665   -2.987051    0.000000
     46          1           0        4.638701   -5.467771    0.000000
     47          1           0        2.507164   -6.735896    0.000000
     48          1           0        3.393416   -0.852899    0.000000
 ---------------------------------------------------------------------
 Rotational constants (GHZ):      0.3565682      0.0890043      0.0712254
 Leave Link  202 at Sat Jul 27 14:25:42 2019, MaxMem=  4194304000 cpu:         0.1
 (Enter /home/minenky/programs//g09/l301.exe)
 Standard basis: def2TZVP (5D, 7F)
 ======================================================================================================
                                       Pseudopotential Parameters
 ======================================================================================================
  Center     Atomic      Valence      Angular      Power
  Number     Number     Electrons     Momentum     of R      Exponent        Coefficient   SO-Coeffient
 ======================================================================================================
    1          6
                                   No pseudopotential on this center.
    2          6
                                   No pseudopotential on this center.
    3          6
                                   No pseudopotential on this center.
    4          6
                                   No pseudopotential on this center.
    5          6
                                   No pseudopotential on this center.
    6          6
                                   No pseudopotential on this center.
    7          6
                                   No pseudopotential on this center.
    8          6
                                   No pseudopotential on this center.
    9          6
                                   No pseudopotential on this center.
   10          6
                                   No pseudopotential on this center.
   11          6
                                   No pseudopotential on this center.
   12          6
                                   No pseudopotential on this center.
   13          6
                                   No pseudopotential on this center.
   14          6
                                   No pseudopotential on this center.
   15          6
                                   No pseudopotential on this center.
   16          6
                                   No pseudopotential on this center.
   17          6
                                   No pseudopotential on this center.
   18          6
                                   No pseudopotential on this center.
   19          6
                                   No pseudopotential on this center.
   20          6
                                   No pseudopotential on this center.
   21          6
                                   No pseudopotential on this center.
   22          6
                                   No pseudopotential on this center.
   23          6
                                   No pseudopotential on this center.
   24          6
                                   No pseudopotential on this center.
   25          6
                                   No pseudopotential on this center.
   26          6
                                   No pseudopotential on this center.
   27          6
                                   No pseudopotential on this center.
   28          6
                                   No pseudopotential on this center.
   29          6
                                   No pseudopotential on this center.
   30          6
                                   No pseudopotential on this center.
   31          6
                                   No pseudopotential on this center.
   32          6
                                   No pseudopotential on this center.
   33          1
                                   No pseudopotential on this center.
   34          1
                                   No pseudopotential on this center.
   35          1
                                   No pseudopotential on this center.
   36          1
                                   No pseudopotential on this center.
   37          1
                                   No pseudopotential on this center.
   38          1
                                   No pseudopotential on this center.
   39          1
                                   No pseudopotential on this center.
   40          1
                                   No pseudopotential on this center.
   41          1
                                   No pseudopotential on this center.
   42          1
                                   No pseudopotential on this center.
   43          1
                                   No pseudopotential on this center.
   44          1
                                   No pseudopotential on this center.
   45          1
                                   No pseudopotential on this center.
   46          1
                                   No pseudopotential on this center.
   47          1
                                   No pseudopotential on this center.
   48          1
                                   No pseudopotential on this center.
 ======================================================================================================
 Ernie: Thresh=  0.10000D-02 Tol=  0.10000D-05 Strict=F.
 AO basis set (Overlap normalization):
 Atom C1       Shell     1 S   6     bf    1 -     1         -4.606027486128          2.648223381465          0.000000000000
      0.1357534968D+05  0.6064550360D-03
      0.2035233368D+04  0.4697908888D-02
      0.4632256236D+03  0.2433247765D-01
      0.1312001960D+03  0.9739996831D-01
      0.4285301589D+02  0.3019558425D+00
      0.1558418577D+02  0.6623360914D+00
 Atom C1       Shell     2 S   2     bf    2 -     2         -4.606027486128          2.648223381465          0.000000000000
      0.6206713851D+01  0.6559530854D+00
      0.2576489653D+01  0.3758563329D+00
 Atom C1       Shell     3 S   1     bf    3 -     3         -4.606027486128          2.648223381465          0.000000000000
      0.5769633942D+00  0.1000000000D+01
 Atom C1       Shell     4 S   1     bf    4 -     4         -4.606027486128          2.648223381465          0.000000000000
      0.2297283136D+00  0.1000000000D+01
 Atom C1       Shell     5 S   1     bf    5 -     5         -4.606027486128          2.648223381465          0.000000000000
      0.9516444003D-01  0.1000000000D+01
 Atom C1       Shell     6 P   4     bf    6 -     8         -4.606027486128          2.648223381465          0.000000000000
      0.3469723224D+02  0.1132722000D-01
      0.7958262283D+01  0.7616965920D-01
      0.2378082688D+01  0.3019225220D+00
      0.8143320818D+00  0.7278502735D+00
 Atom C1       Shell     7 P   1     bf    9 -    11         -4.606027486128          2.648223381465          0.000000000000
      0.2888754725D+00  0.1000000000D+01
 Atom C1       Shell     8 P   1     bf   12 -    14         -4.606027486128          2.648223381465          0.000000000000
      0.1005682367D+00  0.1000000000D+01
 Atom C1       Shell     9 D   1     bf   15 -    19         -4.606027486128          2.648223381465          0.000000000000
      0.1097000000D+01  0.1000000000D+01
 Atom C1       Shell    10 D   1     bf   20 -    24         -4.606027486128          2.648223381465          0.000000000000
      0.3180000000D+00  0.1000000000D+01
 Atom C1       Shell    11 F   1     bf   25 -    31         -4.606027486128          2.648223381465          0.000000000000
      0.7610000000D+00  0.1000000000D+01
 Atom C2       Shell    12 S   6     bf   32 -    32         -4.675750424904          5.358606329180          0.000000000000
      0.1357534968D+05  0.6064550360D-03
      0.2035233368D+04  0.4697908888D-02
      0.4632256236D+03  0.2433247765D-01
      0.1312001960D+03  0.9739996831D-01
      0.4285301589D+02  0.3019558425D+00
      0.1558418577D+02  0.6623360914D+00
 Atom C2       Shell    13 S   2     bf   33 -    33         -4.675750424904          5.358606329180          0.000000000000
      0.6206713851D+01  0.6559530854D+00
      0.2576489653D+01  0.3758563329D+00
 Atom C2       Shell    14 S   1     bf   34 -    34         -4.675750424904          5.358606329180          0.000000000000
      0.5769633942D+00  0.1000000000D+01
 Atom C2       Shell    15 S   1     bf   35 -    35         -4.675750424904          5.358606329180          0.000000000000
      0.2297283136D+00  0.1000000000D+01
 Atom C2       Shell    16 S   1     bf   36 -    36         -4.675750424904          5.358606329180          0.000000000000
      0.9516444003D-01  0.1000000000D+01
 Atom C2       Shell    17 P   4     bf   37 -    39         -4.675750424904          5.358606329180          0.000000000000
      0.3469723224D+02  0.1132722000D-01
      0.7958262283D+01  0.7616965920D-01
      0.2378082688D+01  0.3019225220D+00
      0.8143320818D+00  0.7278502735D+00
 Atom C2       Shell    18 P   1     bf   40 -    42         -4.675750424904          5.358606329180          0.000000000000
      0.2888754725D+00  0.1000000000D+01
 Atom C2       Shell    19 P   1     bf   43 -    45         -4.675750424904          5.358606329180          0.000000000000
      0.1005682367D+00  0.1000000000D+01
 Atom C2       Shell    20 D   1     bf   46 -    50         -4.675750424904          5.358606329180          0.000000000000
      0.1097000000D+01  0.1000000000D+01
 Atom C2       Shell    21 D   1     bf   51 -    55         -4.675750424904          5.358606329180          0.000000000000
      0.3180000000D+00  0.1000000000D+01
 Atom C2       Shell    22 F   1     bf   56 -    62         -4.675750424904          5.358606329180          0.000000000000
      0.7610000000D+00  0.1000000000D+01
 Atom C3       Shell    23 S   6     bf   63 -    63         -6.962756445959          6.686473915613          0.000000000000
      0.1357534968D+05  0.6064550360D-03
      0.2035233368D+04  0.4697908888D-02
      0.4632256236D+03  0.2433247765D-01
      0.1312001960D+03  0.9739996831D-01
      0.4285301589D+02  0.3019558425D+00
      0.1558418577D+02  0.6623360914D+00
 Atom C3       Shell    24 S   2     bf   64 -    64         -6.962756445959          6.686473915613          0.000000000000
      0.6206713851D+01  0.6559530854D+00
      0.2576489653D+01  0.3758563329D+00
 Atom C3       Shell    25 S   1     bf   65 -    65         -6.962756445959          6.686473915613          0.000000000000
      0.5769633942D+00  0.1000000000D+01
 Atom C3       Shell    26 S   1     bf   66 -    66         -6.962756445959          6.686473915613          0.000000000000
      0.2297283136D+00  0.1000000000D+01
 Atom C3       Shell    27 S   1     bf   67 -    67         -6.962756445959          6.686473915613          0.000000000000
      0.9516444003D-01  0.1000000000D+01
 Atom C3       Shell    28 P   4     bf   68 -    70         -6.962756445959          6.686473915613          0.000000000000
      0.3469723224D+02  0.1132722000D-01
      0.7958262283D+01  0.7616965920D-01
      0.2378082688D+01  0.3019225220D+00
      0.8143320818D+00  0.7278502735D+00
 Atom C3       Shell    29 P   1     bf   71 -    73         -6.962756445959          6.686473915613          0.000000000000
      0.2888754725D+00  0.1000000000D+01
 Atom C3       Shell    30 P   1     bf   74 -    76         -6.962756445959          6.686473915613          0.000000000000
      0.1005682367D+00  0.1000000000D+01
 Atom C3       Shell    31 D   1     bf   77 -    81         -6.962756445959          6.686473915613          0.000000000000
      0.1097000000D+01  0.1000000000D+01
 Atom C3       Shell    32 D   1     bf   82 -    86         -6.962756445959          6.686473915613          0.000000000000
      0.3180000000D+00  0.1000000000D+01
 Atom C3       Shell    33 F   1     bf   87 -    93         -6.962756445959          6.686473915613          0.000000000000
      0.7610000000D+00  0.1000000000D+01
 Atom C4       Shell    34 S   6     bf   94 -    94         -6.965577244932          9.311475039835          0.000000000000
      0.1357534968D+05  0.6064550360D-03
      0.2035233368D+04  0.4697908888D-02
      0.4632256236D+03  0.2433247765D-01
      0.1312001960D+03  0.9739996831D-01
      0.4285301589D+02  0.3019558425D+00
      0.1558418577D+02  0.6623360914D+00
 Atom C4       Shell    35 S   2     bf   95 -    95         -6.965577244932          9.311475039835          0.000000000000
      0.6206713851D+01  0.6559530854D+00
      0.2576489653D+01  0.3758563329D+00
 Atom C4       Shell    36 S   1     bf   96 -    96         -6.965577244932          9.311475039835          0.000000000000
      0.5769633942D+00  0.1000000000D+01
 Atom C4       Shell    37 S   1     bf   97 -    97         -6.965577244932          9.311475039835          0.000000000000
      0.2297283136D+00  0.1000000000D+01
 Atom C4       Shell    38 S   1     bf   98 -    98         -6.965577244932          9.311475039835          0.000000000000
      0.9516444003D-01  0.1000000000D+01
 Atom C4       Shell    39 P   4     bf   99 -   101         -6.965577244932          9.311475039835          0.000000000000
      0.3469723224D+02  0.1132722000D-01
      0.7958262283D+01  0.7616965920D-01
      0.2378082688D+01  0.3019225220D+00
      0.8143320818D+00  0.7278502735D+00
 Atom C4       Shell    40 P   1     bf  102 -   104         -6.965577244932          9.311475039835          0.000000000000
      0.2888754725D+00  0.1000000000D+01
 Atom C4       Shell    41 P   1     bf  105 -   107         -6.965577244932          9.311475039835          0.000000000000
      0.1005682367D+00  0.1000000000D+01
 Atom C4       Shell    42 D   1     bf  108 -   112         -6.965577244932          9.311475039835          0.000000000000
      0.1097000000D+01  0.1000000000D+01
 Atom C4       Shell    43 D   1     bf  113 -   117         -6.965577244932          9.311475039835          0.000000000000
      0.3180000000D+00  0.1000000000D+01
 Atom C4       Shell    44 F   1     bf  118 -   124         -6.965577244932          9.311475039835          0.000000000000
      0.7610000000D+00  0.1000000000D+01
 Atom C5       Shell    45 S   6     bf  125 -   125         -4.709892445453         10.658382096604          0.000000000000
      0.1357534968D+05  0.6064550360D-03
      0.2035233368D+04  0.4697908888D-02
      0.4632256236D+03  0.2433247765D-01
      0.1312001960D+03  0.9739996831D-01
      0.4285301589D+02  0.3019558425D+00
      0.1558418577D+02  0.6623360914D+00
 Atom C5       Shell    46 S   2     bf  126 -   126         -4.709892445453         10.658382096604          0.000000000000
      0.6206713851D+01  0.6559530854D+00
      0.2576489653D+01  0.3758563329D+00
 Atom C5       Shell    47 S   1     bf  127 -   127         -4.709892445453         10.658382096604          0.000000000000
      0.5769633942D+00  0.1000000000D+01
 Atom C5       Shell    48 S   1     bf  128 -   128         -4.709892445453         10.658382096604          0.000000000000
      0.2297283136D+00  0.1000000000D+01
 Atom C5       Shell    49 S   1     bf  129 -   129         -4.709892445453         10.658382096604          0.000000000000
      0.9516444003D-01  0.1000000000D+01
 Atom C5       Shell    50 P   4     bf  130 -   132         -4.709892445453         10.658382096604          0.000000000000
      0.3469723224D+02  0.1132722000D-01
      0.7958262283D+01  0.7616965920D-01
      0.2378082688D+01  0.3019225220D+00
      0.8143320818D+00  0.7278502735D+00
 Atom C5       Shell    51 P   1     bf  133 -   135         -4.709892445453         10.658382096604          0.000000000000
      0.2888754725D+00  0.1000000000D+01
 Atom C5       Shell    52 P   1     bf  136 -   138         -4.709892445453         10.658382096604          0.000000000000
      0.1005682367D+00  0.1000000000D+01
 Atom C5       Shell    53 D   1     bf  139 -   143         -4.709892445453         10.658382096604          0.000000000000
      0.1097000000D+01  0.1000000000D+01
 Atom C5       Shell    54 D   1     bf  144 -   148         -4.709892445453         10.658382096604          0.000000000000
      0.3180000000D+00  0.1000000000D+01
 Atom C5       Shell    55 F   1     bf  149 -   155         -4.709892445453         10.658382096604          0.000000000000
      0.7610000000D+00  0.1000000000D+01
 Atom C6       Shell    56 S   6     bf  156 -   156          4.561506961439          5.420759837377          0.000000000000
      0.1357534968D+05  0.6064550360D-03
      0.2035233368D+04  0.4697908888D-02
      0.4632256236D+03  0.2433247765D-01
      0.1312001960D+03  0.9739996831D-01
      0.4285301589D+02  0.3019558425D+00
      0.1558418577D+02  0.6623360914D+00
 Atom C6       Shell    57 S   2     bf  157 -   157          4.561506961439          5.420759837377          0.000000000000
[...]
 0.00004918,0.,-0.00010532,-0.00002917,0.,0.33719997,0.00001275,0.00001
 590,0.,-0.00001245,0.00000679,0.,0.00000318,0.00000624,0.,-0.00000085,
 0.00000417,0.,0.00000854,0.00000352,0.,-0.00000407,0.00001714,0.,-0.00
 000843,-0.00001426,0.,-0.00000639,-0.00000659,0.,0.00000604,0.00000414
 ,0.,0.00001028,-0.00000362,0.,-0.00000327,-0.00000596,0.,-0.00000594,-
 0.00000476,0.,0.00000252,0.00000881,0.,0.00000191,-0.00003340,0.,0.000
 00776,0.00003150,0.,-0.00000606,-0.00000818,0.,-0.00000527,-0.00021150
 ,0.,0.00059215,0.00078870,0.,0.00031760,-0.00008434,0.,0.00282537,-0.0
 0318594,0.,-0.07643419,-0.08158625,0.,0.02303179,0.01040906,0.,-0.0297
 6048,-0.00412526,0.,-0.00002817,0.00006334,0.,0.00034996,0.00007106,0.
 ,-0.00159755,0.00153997,0.,-0.00164255,0.00025708,0.,0.00044300,-0.005
 57990,0.,0.00062733,-0.00057559,0.,-0.00022143,0.00009728,0.,0.0000369
 3,0.00004320,0.,0.00011741,-0.00049098,0.,-0.00000723,0.00000866,0.,-0
 .00000144,0.00000091,0.,0.00000115,-0.00000002,0.,0.00000040,0.0000002
 9,0.,-0.00000061,-0.00000059,0.,0.00000139,0.00001483,0.,0.00000027,0.
 00000104,0.,-0.00000010,0.00000015,0.,-0.00001565,-0.00002879,0.,0.000
 10503,0.00002462,0.,0.08042670,0.08220026,0.,0.,-0.00001183,0.,0.,0.00
 001569,0.,0.,-0.00000298,0.,0.,0.00000026,0.,0.,-0.00000077,0.,0.,-0.0
 0000466,0.,0.,0.00000775,0.,0.,0.00000042,0.,0.,-0.00000493,0.,0.,0.00
 000093,0.,0.,-0.00000126,0.,0.,-0.00000051,0.,0.,-0.00000073,0.,0.,-0.
 00000024,0.,0.,-0.00000580,0.,0.,0.00010208,0.,0.,0.00011575,0.,0.,0.0
 0006517,0.,0.,-0.00076846,0.,0.,0.01042870,0.,0.,-0.03717080,0.,0.,0.0
 0425202,0.,0.,0.00272513,0.,0.,-0.00001444,0.,0.,-0.00018952,0.,0.,-0.
 00196457,0.,0.,0.00008026,0.,0.,0.00391081,0.,0.,-0.00080604,0.,0.,-0.
 00075644,0.,0.,0.00004549,0.,0.,0.00002527,0.,0.,-0.00002479,0.,0.,0.0
 0000178,0.,0.,0.00000080,0.,0.,0.00000031,0.,0.,0.00000108,0.,0.,0.000
 00387,0.,0.,0.00000058,0.,0.,0.00000087,0.,0.,0.00022387,0.,0.,-0.0000
 0233,0.,0.,0.02523284,-0.00004749,-0.00003262,0.,0.00001819,0.00001764
 ,0.,-0.00001073,-0.00000820,0.,0.00000151,0.00000028,0.,-0.00000962,-0
 .00000207,0.,-0.00000029,-0.00001810,0.,-0.00004893,0.00000904,0.,0.00
 000275,-0.00000104,0.,-0.00000006,0.00001326,0.,-0.00001032,-0.0000066
 7,0.,0.00000364,0.00000568,0.,-0.00000159,0.00000080,0.,0.00000089,0.0
 0000114,0.,0.00001042,-0.00000309,0.,0.00002052,-0.00015570,0.,0.00005
 067,0.00011498,0.,0.00009191,-0.00007478,0.,0.00149340,-0.00166533,0.,
 0.00008951,0.00037299,0.,-0.00289441,-0.02978659,0.,0.00954222,0.02461
 122,0.,-0.07374059,-0.06253720,0.,-0.00359385,0.00267327,0.,-0.0002009
 3,0.00002352,0.,-0.00013264,0.00033037,0.,0.00082747,0.00067377,0.,0.0
 0010133,-0.00023530,0.,-0.00062404,0.00060667,0.,-0.00546707,0.0000712
 7,0.,0.00031143,-0.00156419,0.,-0.00048267,0.00011087,0.,0.00003876,0.
 00001535,0.,-0.00000865,0.00000803,0.,-0.00000022,0.00000227,0.,-0.000
 00218,0.00000042,0.,-0.00000061,0.00000003,0.,-0.00000580,-0.00000269,
 0.,0.00000379,-0.00000159,0.,-0.00000094,-0.00000010,0.,-0.00000009,-0
 .00000090,0.,-0.00047350,0.00109509,0.,-0.00002798,0.00000469,0.,0.000
 82704,-0.00021891,0.,0.07432515,-0.00003545,-0.00002913,0.,0.00002695,
 0.00001573,0.,-0.00001684,-0.00000752,0.,0.00000616,-0.00001126,0.,-0.
 00002333,0.00000153,0.,-0.00000587,0.00000775,0.,-0.00002757,-0.000003
 10,0.,-0.00000508,-0.00001332,0.,-0.00000193,-0.00000565,0.,-0.0000164
 0,-0.00000812,0.,-0.00000677,0.00000697,0.,-0.00000562,-0.00000164,0.,
 0.00000953,0.00001071,0.,-0.00002211,0.00001142,0.,0.00004777,-0.00005
 775,0.,0.00000199,0.00007342,0.,0.00003696,0.00032756,0.,0.00153104,0.
 00108845,0.,-0.00042468,-0.00004919,0.,0.00039986,-0.00599114,0.,-0.00
 770949,-0.01705555,0.,-0.06154010,-0.32480020,0.,0.00389469,-0.0002714
 0,0.,0.00007451,0.00006136,0.,0.00033071,-0.00027132,0.,-0.00078380,-0
 .00068903,0.,-0.00007973,0.00003893,0.,0.00015322,0.00043919,0.,-0.001
 28451,0.00117176,0.,0.00045471,-0.00047465,0.,-0.00015551,0.00007668,0
 .,0.00004038,-0.00000437,0.,0.00000146,-0.00000185,0.,0.00000375,0.000
 00229,0.,-0.00000596,0.00000321,0.,-0.00000293,-0.00000199,0.,-0.00000
 511,-0.00000614,0.,0.00000620,0.00000411,0.,-0.00000420,0.00000015,0.,
 -0.00000090,-0.00000517,0.,-0.00063776,0.00032761,0.,-0.00004978,-0.00
 000952,0.,0.00035589,0.00084629,0.,0.06546733,0.34539663,0.,0.,-0.0000
 0049,0.,0.,-0.00000554,0.,0.,-0.00000129,0.,0.,-0.00000131,0.,0.,-0.00
 000097,0.,0.,0.00000144,0.,0.,-0.00002115,0.,0.,-0.00000505,0.,0.,0.00
 001082,0.,0.,-0.00000291,0.,0.,0.00000164,0.,0.,-0.00000218,0.,0.,0.00
 000041,0.,0.,-0.00002560,0.,0.,0.00000414,0.,0.,0.00004296,0.,0.,-0.00
 000579,0.,0.,-0.00204833,0.,0.,-0.00017961,0.,0.,0.00267164,0.,0.,0.00
 423177,0.,0.,-0.03724804,0.,0.,0.01047201,0.,0.,0.00011552,0.,0.,-0.00
 079791,0.,0.,0.00007086,0.,0.,-0.00075301,0.,0.,-0.00079358,0.,0.,0.00
 383962,0.,0.,0.00016235,0.,0.,0.00000604,0.,0.,0.00005005,0.,0.,0.0000
 0698,0.,0.,0.00000230,0.,0.,0.00000125,0.,0.,0.00000085,0.,0.,0.000003
 73,0.,0.,0.00000348,0.,0.,0.00000087,0.,0.,0.00000089,0.,0.,0.00022550
 ,0.,0.,0.00009139,0.,0.,-0.00584966,0.,0.,0.02539648,0.00001250,-0.000
 01276,0.,-0.00001962,-0.00001313,0.,0.00001252,-0.00000503,0.,-0.00000
 651,0.00000227,0.,0.00000734,-0.00000207,0.,0.00001585,-0.00005134,0.,
 -0.00002288,0.00007665,0.,0.00000805,0.00002097,0.,0.00000646,-0.00000
 670,0.,-0.00000219,0.00000995,0.,0.00001242,-0.00000076,0.,0.00000739,
 0.00000446,0.,-0.00000872,-0.00001821,0.,0.00001365,0.00002072,0.,-0.0
 0003226,-0.00001610,0.,-0.00000528,0.00001581,0.,0.00005839,-0.0003035
 6,0.,-0.00015836,0.00015206,0.,0.00015642,0.00017613,0.,-0.00006355,0.
 00007694,0.,0.00021341,-0.00033824,0.,-0.00029014,0.00002498,0.,-0.001
 02871,0.00069063,0.,-0.07530174,-0.06309448,0.,-0.00174188,-0.03084572
 ,0.,-0.00546248,-0.00085540,0.,0.00887878,0.02218700,0.,-0.00338881,0.
 00273606,0.,0.00071296,0.00099897,0.,0.00007596,0.00027960,0.,0.000060
 35,-0.00053688,0.,0.00126742,0.00171175,0.,0.00000373,-0.00000283,0.,-
 0.00000139,-0.00000159,0.,0.00000264,-0.00000247,0.,0.00000198,0.00000
 135,0.,0.00000009,0.00000393,0.,-0.00002153,-0.00003835,0.,0.00000354,
 -0.00000144,0.,-0.00000022,0.00000375,0.,-0.00003079,0.00002765,0.,0.0
 0000282,-0.00000144,0.,0.00001853,0.00007838,0.,0.00001384,-0.00000441
 ,0.,0.07597653,0.00004173,0.00000848,0.,-0.00002231,0.00000513,0.,0.00
 000851,0.00000134,0.,-0.00000226,0.00000052,0.,0.00000791,0.00000445,0
 .,-0.00000833,0.00003857,0.,0.00006137,-0.00005262,0.,0.00001197,-0.00
 000334,0.,-0.00000977,-0.00000204,0.,0.00001776,0.00000422,0.,-0.00000
 613,-0.00000305,0.,0.00000159,-0.00000462,0.,-0.00000546,0.00000752,0.
 ,0.00004773,-0.00001026,0.,-0.00004319,-0.00004024,0.,-0.00005429,-0.0
 0002079,0.,0.00003798,0.00004368,0.,-0.00008822,-0.00006086,0.,0.00006
 616,-0.00002256,0.,0.00033123,-0.00019987,0.,-0.00008155,0.00010056,0.
 ,0.00013032,-0.00000360,0.,0.00056779,0.00035957,0.,-0.06290056,-0.323
 99965,0.,0.00077913,-0.00454622,0.,-0.00161191,0.00170235,0.,-0.007907
 08,-0.01775436,0.,0.00386918,-0.00079663,0.,-0.00100836,-0.00068275,0.
 ,-0.00008248,0.00017340,0.,0.00042048,0.00009712,0.,-0.00198239,0.0010
 0716,0.,-0.00001043,0.00000705,0.,-0.00000159,0.00000172,0.,0.00000085
 ,-0.00000019,0.,0.00000109,0.00000023,0.,0.00000883,0.00000401,0.,0.00
 001453,0.00002015,0.,0.00000072,0.00000091,0.,0.00000227,0.00000229,0.
 ,0.00002876,-0.00003830,0.,0.00000590,-0.00000323,0.,-0.00002308,-0.00
 001431,0.,-0.00000136,-0.00002478,0.,0.06854571,0.34391708,0.,0.,-0.00
 000564,0.,0.,0.00000935,0.,0.,-0.00000280,0.,0.,-0.00000212,0.,0.,-0.0
 0000015,0.,0.,0.00001170,0.,0.,-0.00007343,0.,0.,-0.00001129,0.,0.,0.0
 0000898,0.,0.,-0.00000630,0.,0.,-0.00000490,0.,0.,-0.00000232,0.,0.,-0
 .00000171,0.,0.,-0.00002333,0.,0.,0.00028231,0.,0.,0.00001096,0.,0.,0.
 00002646,0.,0.,0.00001498,0.,0.,0.00000246,0.,0.,-0.00008498,0.,0.,-0.
 00099515,0.,0.,0.00011039,0.,0.,-0.00098304,0.,0.,-0.03566275,0.,0.,0.
 00274210,0.,0.,0.00738096,0.,0.,0.00306532,0.,0.,0.00661777,0.,0.,0.00
 012707,0.,0.,0.00017499,0.,0.,-0.00026963,0.,0.,-0.00375915,0.,0.,-0.0
 0000223,0.,0.,0.00000171,0.,0.,0.00000093,0.,0.,0.00000252,0.,0.,0.000
 00719,0.,0.,0.00004031,0.,0.,0.00000178,0.,0.,0.00000230,0.,0.,-0.0001
 1458,0.,0.,0.00000342,0.,0.,0.00004261,0.,0.,0.00010495,0.,0.,0.024751
 66,-0.00001880,0.00000499,0.,0.00002650,0.00001605,0.,-0.00001493,0.00
 000350,0.,0.00000873,-0.00000946,0.,-0.00001702,0.00000334,0.,-0.00000
 770,0.00002513,0.,-0.00002459,-0.00001071,0.,-0.00001697,-0.00002409,0
 .,-0.00000313,0.00000449,0.,-0.00001039,-0.00001177,0.,-0.00001234,0.0
 0000199,0.,-0.00000968,-0.00000475,0.,0.00001523,0.00001780,0.,-0.0000
 5877,-0.00004911,0.,0.00001183,0.00013012,0.,0.00001265,0.00001028,0.,
 -0.00005121,0.00020625,0.,0.00021809,-0.00001509,0.,-0.00012906,-0.000
 16217,0.,-0.00026279,0.00008661,0.,0.00026846,0.00003300,0.,0.00019375
 ,-0.00014034,0.,0.00076080,-0.00245978,0.,-0.01638309,0.02340135,0.,-0
 .20768445,0.14049144,0.,0.00921389,-0.00706502,0.,-0.00456564,-0.00315
 062,0.,-0.00021504,-0.00092109,0.,0.00003405,0.00006130,0.,0.00010340,
 -0.00029524,0.,-0.00047826,-0.00007333,0.,-0.00021324,0.00136026,0.,-0
 .00000104,0.00000034,0.,0.00000264,0.00000085,0.,-0.00000387,0.0000030
 0,0.,-0.00000255,-0.00000166,0.,-0.00000895,-0.00000814,0.,0.00000823,
 0.00001460,0.,-0.00000396,0.00000115,0.,-0.00000218,-0.00000596,0.,0.0
 0000164,0.00000680,0.,-0.00000617,0.00000359,0.,-0.00000462,0.00000578
 ,0.,0.00002640,-0.00002739,0.,0.00084710,-0.00037998,0.,0.21771244,0.0
 0000340,0.00000342,0.,-0.00000954,-0.00000747,0.,0.00000472,0.00000440
 ,0.,-0.00000162,0.00001031,0.,0.00001427,-0.00000424,0.,-0.00000527,-0
 .00000570,0.,0.00001467,0.00000946,0.,0.00000593,0.00000024,0.,0.00000
 095,0.00001420,0.,0.00001183,-0.00000030,0.,0.00000154,-0.00000178,0.,
 0.00000203,-0.00000095,0.,-0.00000635,-0.00000482,0.,-0.00000289,-0.00
 000429,0.,-0.00003663,0.00003327,0.,-0.00001831,-0.00003162,0.,-0.0000
 4502,0.00023930,0.,0.00025232,-0.00006028,0.,-0.00015731,-0.00013406,0
 .,-0.00033468,0.00010528,0.,0.00139027,-0.00008316,0.,-0.00003915,-0.0
 0057074,0.,-0.00293670,-0.00488588,0.,-0.00820902,0.01002645,0.,0.1404
 7372,-0.19483056,0.,0.02458616,-0.01564260,0.,-0.00272582,0.00050455,0
 .,-0.00093169,-0.00029611,0.,0.00005881,0.00004898,0.,0.00012463,-0.00
 026004,0.,-0.00019231,0.00015264,0.,0.00001951,0.00033413,0.,-0.000003
 16,0.00000248,0.,-0.00000247,-0.00000019,0.,0.00000300,-0.00000188,0.,
 0.00000180,0.00000133,0.,0.00000099,0.00000325,0.,-0.00000298,0.000000
 79,0.,0.00000255,-0.00000002,0.,0.00000042,0.00000321,0.,-0.00000412,0
 .00000172,0.,0.00000582,-0.00000510,0.,-0.00004823,-0.00002190,0.,0.00
 011666,-0.00010437,0.,0.00039747,0.00074862,0.,-0.15142137,0.20383145,
 0.,0.,-0.00000253,0.,0.,0.00000235,0.,0.,-0.00000050,0.,0.,-0.00000092
 ,0.,0.,-0.00000043,0.,0.,-0.00000089,0.,0.,-0.00001181,0.,0.,0.0000002
 5,0.,0.,0.00000399,0.,0.,-0.00000291,0.,0.,0.00000054,0.,0.,-0.0000011
 9,0.,0.,-0.00000109,0.,0.,0.00001574,0.,0.,-0.00002777,0.,0.,-0.000009
 89,0.,0.,0.00003275,0.,0.,0.00004812,0.,0.,-0.00000718,0.,0.,0.0000893
 1,0.,0.,0.00019227,0.,0.,-0.00041620,0.,0.,0.00788975,0.,0.,0.00261086
 ,0.,0.,-0.03752810,0.,0.,0.00260241,0.,0.,0.00786416,0.,0.,-0.00089016
 ,0.,0.,-0.00083317,0.,0.,0.00008519,0.,0.,-0.00042114,0.,0.,0.00021707
 ,0.,0.,-0.00000007,0.,0.,0.00000093,0.,0.,0.00000052,0.,0.,0.00000045,
 0.,0.,0.00000275,0.,0.,0.00000318,0.,0.,0.00000080,0.,0.,0.00000125,0.
 ,0.,-0.00000488,0.,0.,0.00000981,0.,0.,0.00008667,0.,0.,-0.00002793,0.
 ,0.,-0.00394150,0.,0.,0.02620222,-0.00002444,-0.00000398,0.,0.00001062
 ,0.00000633,0.,-0.00000873,0.00000012,0.,0.00000144,0.00000111,0.,-0.0
 0000331,0.00000073,0.,-0.00000493,0.00000865,0.,-0.00001460,-0.0000126
 8,0.,-0.00000555,-0.00000892,0.,0.00000682,0.00000080,0.,-0.00000459,-
 0.00000787,0.,-0.00000315,-0.00000073,0.,-0.00000764,-0.00000238,0.,0.
 00000603,0.00000948,0.,-0.00002375,-0.00000934,0.,0.00002982,0.0000064
 1,0.,0.00000885,0.00003056,0.,-0.00005662,-0.00007929,0.,0.00006182,0.
 00003601,0.,-0.00004509,0.00005378,0.,0.00015414,-0.00007696,0.,0.0010
 2763,-0.00183789,0.,0.00008028,0.00036659,0.,-0.01823073,-0.00898598,0
 .,0.00177611,-0.00129941,0.,-0.00319758,0.00073913,0.,-0.31800420,-0.0
 7391060,0.,0.00031420,0.00060253,0.,-0.00112445,0.00393258,0.,-0.00065
 585,-0.00105506,0.,-0.00020183,0.00030303,0.,-0.00000391,0.00014310,0.
 ,0.00011486,-0.00008825,0.,0.00000576,-0.00000027,0.,0.00000198,0.0000
 0109,0.,-0.00000255,0.00000180,0.,-0.00000214,-0.00000112,0.,-0.000002
 82,-0.00000373,0.,0.00000592,0.00001086,0.,-0.00000276,0.00000040,0.,-
 0.00000061,-0.00000293,0.,-0.00001564,0.00003005,0.,0.00000074,0.00000
 856,0.,0.00029141,0.00111836,0.,-0.00003325,0.00004869,0.,-0.00029368,
 0.00006776,0.,0.00074983,-0.00036564,0.,0.33733559,0.00001151,0.000012
 26,0.,0.00000555,0.00000317,0.,-0.00000135,-0.00000101,0.,0.00000093,-
 0.00000739,0.,-0.00000882,0.00000434,0.,0.00000986,0.00001088,0.,-0.00
 000427,-0.00002425,0.,-0.00000655,0.00000170,0.,-0.00000651,-0.0000059
 1,0.,-0.00000600,-0.00000081,0.,-0.00000233,-0.00000037,0.,-0.00000211
 ,0.00000147,0.,0.00000647,0.00000502,0.,-0.00000354,-0.00000526,0.,0.0
 0001532,0.00002775,0.,0.00002341,-0.00001706,0.,0.00015068,-0.00016772
 ,0.,-0.00033073,0.00004422,0.,0.00017956,0.00017032,0.,0.00031678,0.00
 005854,0.,0.00160592,0.00123854,0.,-0.00053232,0.00009496,0.,0.0211462
 9,0.00954967,0.,-0.00055413,-0.00560893,0.,-0.03088770,-0.00310121,0.,
 -0.07410191,-0.08152851,0.,0.00075434,-0.00098503,0.,0.00291261,-0.003
 05403,0.,0.00091915,0.00070781,0.,0.00003947,-0.00005110,0.,0.00003863
 ,-0.00026253,0.,-0.00033743,0.00018975,0.,0.00000050,-0.00000099,0.,0.
 00000135,0.00000023,0.,-0.00000166,0.00000133,0.,-0.00000112,-0.000000
 82,0.,0.00000040,-0.00000193,0.,0.00000434,0.00000562,0.,-0.00000175,0
 .00000029,0.,0.00000003,-0.00000199,0.,0.00001025,-0.00001294,0.,-0.00
 000423,0.00000071,0.,-0.00059609,-0.00043350,0.,-0.00002015,0.00000948
 ,0.,-0.00146188,-0.00035779,0.,0.00038653,0.00088322,0.,0.08024954,0.0
 8258494,0.,0.,-0.00000081,0.,0.,0.00003973,0.,0.,0.00000011,0.,0.,-0.0
 0000645,0.,0.,-0.00000060,0.,0.,-0.00000405,0.,0.,-0.00001021,0.,0.,0.
 00000048,0.,0.,-0.00000594,0.,0.,-0.00000246,0.,0.,-0.00000117,0.,0.,-
 0.00000145,0.,0.,0.00000039,0.,0.,-0.00000313,0.,0.,0.00010216,0.,0.,-
 0.00015767,0.,0.,0.00003611,0.,0.,-0.00000719,0.,0.,0.00001151,0.,0.,0
 .00014295,0.,0.,-0.00385189,0.,0.,-0.00014720,0.,0.,0.00306686,0.,0.,0
 .00738998,0.,0.,0.00271776,0.,0.,-0.03560428,0.,0.,-0.00107359,0.,0.,0
 .00660742,0.,0.,0.00010057,0.,0.,-0.00001536,0.,0.,0.00011401,0.,0.,-0
 .00095908,0.,0.,-0.00001420,0.,0.,0.00000252,0.,0.,0.00000045,0.,0.,0.
 00000190,0.,0.,0.00000219,0.,0.,0.00000437,0.,0.,0.00000031,0.,0.,0.00
 000085,0.,0.,0.00002890,0.,0.,-0.00000557,0.,0.,0.00023378,0.,0.,0.000
 23723,0.,0.,0.00013731,0.,0.,-0.00393276,0.,0.,0.02478135,0.00003151,-
 0.00009435,0.,-0.00001125,-0.00000076,0.,0.00002432,-0.00001782,0.,0.0
 0000650,-0.00006150,0.,-0.00005343,0.00001389,0.,0.00021703,-0.0004484
 9,0.,-0.00250457,0.00150056,0.,0.00003199,0.00008462,0.,0.00006554,-0.
 00014450,0.,-0.00007461,0.00005161,0.,0.00003949,-0.00000625,0.,0.0000
 2758,-0.00000157,0.,0.00000949,-0.00008571,0.,0.00006551,-0.00009379,0
 .,0.00049261,-0.00117257,0.,0.00014825,0.00007711,0.,0.00100629,0.0008
 7333,0.,-0.00014480,0.00006138,0.,-0.00025397,0.00024449,0.,0.00004483
 ,-0.00022066,0.,-0.00049608,0.00009118,0.,0.00007457,0.00002635,0.,0.0
 0030318,-0.00158486,0.,0.00129780,-0.00184454,0.,0.00008409,0.00033732
 ,0.,0.00004403,-0.00000036,0.,-0.00366539,-0.03064914,0.,-0.00548754,0
 .00001798,0.,-0.00054611,0.00049265,0.,-0.00412074,0.00241390,0.,0.011
 04721,0.02275210,0.,-0.06803960,-0.05380557,0.,0.00002149,-0.00002543,
 0.,0.00000373,-0.00001043,0.,-0.00000104,-0.00000316,0.,0.00000576,0.0
 0000050,0.,-0.00002427,0.00000574,0.,-0.00519861,-0.00183124,0.,0.0000
 1258,-0.00000723,0.,-0.00000865,0.00000146,0.,0.00001149,-0.00000429,0
 .,0.00003453,0.00013864,0.,-0.00003216,-0.00015094,0.,0.00001762,-0.00
 000857,0.,-0.00050992,0.00115345,0.,-0.00000521,0.00000680,0.,-0.00000
 947,0.00008314,0.,0.07601842,0.00009840,0.00006242,0.,-0.00004856,0.00
 002705,0.,0.00001884,0.00000998,0.,-0.00001190,0.00000580,0.,0.0000257
 0,0.00002331,0.,-0.00016375,0.00073441,0.,-0.00149367,-0.00035538,0.,-
 0.00015580,-0.00004458,0.,-0.00009230,-0.00009058,0.,0.00009619,-0.000
 00083,0.,-0.00003431,-0.00002517,0.,-0.00002513,-0.00000803,0.,-0.0000
 0862,0.00009775,0.,0.00038064,0.00003166,0.,-0.00179582,-0.00115143,0.
 ,-0.00028305,-0.00003840,0.,-0.00083393,-0.00080861,0.,0.00005356,0.00
 003172,0.,0.00041409,-0.00022027,0.,-0.00009377,0.00002527,0.,-0.00017
 101,0.00008479,0.,0.00005836,-0.00003881,0.,0.00047307,-0.00053326,0.,
 0.00181532,0.00123298,0.,-0.00036875,-0.00004117,0.,-0.00003642,0.0003
 3295,0.,-0.00023441,-0.00725212,0.,-0.00146628,0.00120498,0.,0.0001764
 4,0.00039497,0.,0.00371252,-0.00010843,0.,-0.00535790,-0.01790812,0.,-
 0.05327999,-0.33000440,0.,-0.00002543,0.00001612,0.,-0.00000283,0.0000
 0705,0.,0.00000034,0.00000248,0.,-0.00000027,-0.00000099,0.,0.00000569
 ,-0.00001880,0.,-0.00241924,0.00136036,0.,-0.00000844,0.00000866,0.,0.
 00000803,-0.00000185,0.,-0.00000191,-0.00002378,0.,-0.00003405,-0.0001
 3459,0.,-0.00002824,-0.00004929,0.,-0.00001007,-0.00002305,0.,-0.00062
 841,0.00038592,0.,-0.00004346,-0.00000464,0.,-0.00002504,0.00002489,0.
 ,0.06184555,0.35278104,0.,0.,0.00012181,0.,0.,-0.00006095,0.,0.,-0.000
 00607,0.,0.,0.00001264,0.,0.,0.00000096,0.,0.,-0.00030437,0.,0.,-0.000
 64583,0.,0.,-0.00008307,0.,0.,0.00028083,0.,0.,0.00000524,0.,0.,0.0000
 3557,0.,0.,-0.00000008,0.,0.,0.00013176,0.,0.,-0.00016314,0.,0.,-0.004
 68250,0.,0.,-0.00006967,0.,0.,0.00056185,0.,0.,0.00014856,0.,0.,-0.001
 01179,0.,0.,-0.00066430,0.,0.,-0.00001851,0.,0.,0.00005086,0.,0.,0.000
 09127,0.,0.,-0.00224251,0.,0.,-0.00018733,0.,0.,-0.00001019,0.,0.,0.00
 387964,0.,0.,0.00389622,0.,0.,-0.00069530,0.,0.,0.00910315,0.,0.,0.004
 56698,0.,0.,-0.03725332,0.,0.,0.00001138,0.,0.,-0.00000223,0.,0.,-0.00
 000007,0.,0.,-0.00001420,0.,0.,-0.00003266,0.,0.,0.00214541,0.,0.,-0.0
 0002479,0.,0.,0.00000698,0.,0.,0.00013295,0.,0.,-0.00002701,0.,0.,-0.0
 0002403,0.,0.,0.00001318,0.,0.,0.00026452,0.,0.,0.00009969,0.,0.,0.000
 04384,0.,0.,0.02261865\\-0.00000059,0.00000354,0.,-0.00000130,-0.00000
 142,0.,-0.00000323,0.00000137,0.,0.00000293,0.00000193,0.,0.00000257,-
 0.00000300,0.,-0.00000612,0.00000350,0.,0.00000207,0.00000467,0.,0.000
 00272,-0.00001175,0.,-0.00000023,0.00000794,0.,0.00000731,0.00000069,0
 .,-0.00000717,-0.00000435,0.,0.00000236,0.00000428,0.,0.00000334,0.000
 00044,0.,-0.00000525,0.00000377,0.,0.00000134,-0.00000412,0.,-0.000001
 26,-0.00000644,0.,-0.00000128,0.00000420,0.,0.00000622,-0.00000349,0.,
 -0.00000202,-0.00000460,0.,-0.00000282,0.00001182,0.,-0.00000238,-0.00
 000424,0.,-0.00000332,-0.00000047,0.,0.00000725,0.00000429,0.,0.000003
 32,-0.00000141,0.,-0.00000301,-0.00000200,0.,-0.00000259,0.00000310,0.
 ,0.00000122,0.00000152,0.,-0.00000731,-0.00000070,0.,0.00000020,-0.000
 00794,0.,0.00000532,-0.00000382,0.,0.00000118,0.00000640,0.,0.00000042
 ,-0.00000350,0.,-0.00000036,-0.00000059,0.,0.00000051,0.00000016,0.,-0
 .00000111,0.00000003,0.,-0.00000089,0.00000038,0.,0.00000051,-0.000000
 49,0.,0.00000053,-0.00000182,0.,-0.00000076,-0.00000129,0.,-0.00000184
 ,0.00000035,0.,-0.00000049,0.00000049,0.,-0.00000030,0.00000177,0.,0.0
 0000076,0.00000129,0.,0.00000184,-0.00000035,0.,-0.00000051,-0.0000001
 6,0.,0.00000111,-0.00000002,0.,0.00000089,-0.00000039,0.,0.00000022,0.
 00000043,0.\\\@


 NEVER LISTEN TO CRITICISM
 OR YOU'LL BE DOIN' EVERYBODY ELSE'S THING BUT BUT YOUR OWN.

                                               -- ANDY CAPP
 Job cpu time:       5 days 14 hours 21 minutes 14.8 seconds.
 File lengths (MBytes):  RWF=   4430 Int=      0 D2E=      0 Chk=     85 Scr=      1
 Normal termination of Gaussian 09 at Sun Jul 28 04:12:28 2019.
