 Entering Gaussian System, Link 0=g09
 Initial command:
 /home/minenky/programs//g09/l1.exe "/local/scratch/minenky/m1_00_C6H6_wB97XD/Gau-214627.inp" -scrdir="/local/scratch/minenky/m1_00_C6H6_wB97XD/"
 Entering Link 1 = /home/minenky/programs//g09/l1.exe PID=    214628.
  
 Copyright (c) 1988,1990,1992,1993,1995,1998,2003,2009,2013,
            Gaussian, Inc.  All Rights Reserved.
  
 This is part of the Gaussian(R) 09 program.  It is based on
 the Gaussian(R) 03 system (copyright 2003, Gaussian, Inc.),
 the Gaussian(R) 98 system (copyright 1998, Gaussian, Inc.),
 the Gaussian(R) 94 system (copyright 1995, Gaussian, Inc.),
 the Gaussian 92(TM) system (copyright 1992, Gaussian, Inc.),
 the Gaussian 90(TM) system (copyright 1990, Gaussian, Inc.),
 the Gaussian 88(TM) system (copyright 1988, Gaussian, Inc.),
 the Gaussian 86(TM) system (copyright 1986, Carnegie Mellon
 University), and the Gaussian 82(TM) system (copyright 1983,
 Carnegie Mellon University). Gaussian is a federally registered
 trademark of Gaussian, Inc.
  
 This software contains proprietary and confidential information,
 including trade secrets, belonging to Gaussian, Inc.
  
 This software is provided under written license and may be
 used, copied, transmitted, or stored only in accord with that
 written license.
  
 The following legend is applicable only to US Government
 contracts under FAR:
  
                    RESTRICTED RIGHTS LEGEND
  
 Use, reproduction and disclosure by the US Government is
 subject to restrictions as set forth in subparagraphs (a)
 and (c) of the Commercial Computer Software - Restricted
 Rights clause in FAR 52.227-19.
  
 Gaussian, Inc.
 340 Quinnipiac St., Bldg. 40, Wallingford CT 06492
  
  
 ---------------------------------------------------------------
 Warning -- This program may not be used in any manner that
 competes with the business of Gaussian, Inc. or will provide
 assistance to any competitor of Gaussian, Inc.  The licensee
 of this program is prohibited from giving any competitor of
 Gaussian, Inc. access to this program.  By using this program,
 the user acknowledges that Gaussian, Inc. is engaged in the
 business of creating and licensing software in the field of
 computational chemistry and represents and warrants to the
 licensee that it is not a competitor of Gaussian, Inc. and that
 it will not use this program in any manner prohibited above.
 ---------------------------------------------------------------
  

 Cite this work as:
 Gaussian 09, Revision D.01,
 M. J. Frisch, G. W. Trucks, H. B. Schlegel, G. E. Scuseria, 
 M. A. Robb, J. R. Cheeseman, G. Scalmani, V. Barone, B. Mennucci, 
 G. A. Petersson, H. Nakatsuji, M. Caricato, X. Li, H. P. Hratchian, 
 A. F. Izmaylov, J. Bloino, G. Zheng, J. L. Sonnenberg, M. Hada, 
 M. Ehara, K. Toyota, R. Fukuda, J. Hasegawa, M. Ishida, T. Nakajima, 
 Y. Honda, O. Kitao, H. Nakai, T. Vreven, J. A. Montgomery, Jr., 
 J. E. Peralta, F. Ogliaro, M. Bearpark, J. J. Heyd, E. Brothers, 
 K. N. Kudin, V. N. Staroverov, T. Keith, R. Kobayashi, J. Normand, 
 K. Raghavachari, A. Rendell, J. C. Burant, S. S. Iyengar, J. Tomasi, 
 M. Cossi, N. Rega, J. M. Millam, M. Klene, J. E. Knox, J. B. Cross, 
 V. Bakken, C. Adamo, J. Jaramillo, R. Gomperts, R. E. Stratmann, 
 O. Yazyev, A. J. Austin, R. Cammi, C. Pomelli, J. W. Ochterski, 
 R. L. Martin, K. Morokuma, V. G. Zakrzewski, G. A. Voth, 
 P. Salvador, J. J. Dannenberg, S. Dapprich, A. D. Daniels, 
 O. Farkas, J. B. Foresman, J. V. Ortiz, J. Cioslowski, 
 and D. J. Fox, Gaussian, Inc., Wallingford CT, 2013.
 
 ******************************************
 Gaussian 09:  AM64L-G09RevD.01 24-Apr-2013
                 9-Jul-2021 
 ******************************************
 %Mem=32000MB
 %NProcShared=16
 Will use up to   16 processors via shared memory.
 %Chk=m1_00_C6H6_wB97XD
 ----------------------------------------------------------------------
 #P wB97XD/def2tzvp opt=(tight) freq integral(Grid=ultrafine) # SCF(Max
 Cycle=380) 5d 7f GFPrint
 ----------------------------------------------------------------------
 1/7=10,14=-1,18=20,19=15,26=4,38=1/1,3;
 2/9=110,12=2,17=6,18=5,40=1/2;
 3/5=44,7=101,8=11,11=2,16=1,24=100,25=1,30=1,71=1,74=-58,75=-5/1,2,3;
 4//1;
 5/5=2,7=380,38=5/2;
 6/7=2,8=2,9=2,10=2,28=1/1;
 7//1,2,3,16;
 1/7=10,14=-1,18=20,19=15,26=4/3(2);
 2/9=110/2;
 99//99;
 2/9=110/2;
 3/5=44,7=101,8=11,11=2,16=1,25=1,30=1,71=1,74=-58,75=-5/1,2,3;
 4/5=5,16=3,69=1/1;
 5/5=2,7=380,38=5/2;
 7//1,2,3,16;
 1/7=10,14=-1,18=20,19=15,26=4/3(-5);
 2/9=110/2;
 6/7=2,8=2,9=2,10=2,19=2,28=1/1;
 99/9=1/99;
 Leave Link    1 at Fri Jul  9 19:21:40 2021, MaxMem=  4194304000 cpu:         1.6
 (Enter /home/minenky/programs//g09/l101.exe)
 ---------------------------------------
 The PBEPBE optimization and frequencies
 ---------------------------------------
 Symbolic Z-matrix:
 Charge =  0 Multiplicity = 1
 C                     0.        1.39048   0. 
 H                     0.        2.47305   0. 
 C                     1.20419   0.69524   0. 
 H                     2.14172   1.23652   0. 
 C                     1.20419  -0.69524   0. 
 H                     2.14172  -1.23652   0. 
 C                     0.       -1.39048   0. 
 H                     0.       -2.47305   0. 
 C                    -1.20419  -0.69524   0. 
 H                    -2.14172  -1.23652   0. 
 C                    -1.20419   0.69524   0. 
 H                    -2.14172   1.23652   0. 
 
 NAtoms=     12 NQM=       12 NQMF=       0 NMMI=      0 NMMIF=      0
                NMic=       0 NMicF=      0.
                    Isotopes and Nuclear Properties:
 (Nuclear quadrupole moments (NQMom) in fm**2, nuclear magnetic moments (NMagM)
  in nuclear magnetons)

  Atom         1           2           3           4           5           6           7           8           9          10
 IAtWgt=          12           1          12           1          12           1          12           1          12           1
 AtmWgt=  12.0000000   1.0078250  12.0000000   1.0078250  12.0000000   1.0078250  12.0000000   1.0078250  12.0000000   1.0078250
 NucSpn=           0           1           0           1           0           1           0           1           0           1
 AtZEff=   0.0000000   0.0000000   0.0000000   0.0000000   0.0000000   0.0000000   0.0000000   0.0000000   0.0000000   0.0000000
 NQMom=    0.0000000   0.0000000   0.0000000   0.0000000   0.0000000   0.0000000   0.0000000   0.0000000   0.0000000   0.0000000
 NMagM=    0.0000000   2.7928460   0.0000000   2.7928460   0.0000000   2.7928460   0.0000000   2.7928460   0.0000000   2.7928460
 AtZNuc=   6.0000000   1.0000000   6.0000000   1.0000000   6.0000000   1.0000000   6.0000000   1.0000000   6.0000000   1.0000000

  Atom        11          12
 IAtWgt=          12           1
 AtmWgt=  12.0000000   1.0078250
 NucSpn=           0           1
 AtZEff=   0.0000000   0.0000000
 NQMom=    0.0000000   0.0000000
 NMagM=    0.0000000   2.7928460
 AtZNuc=   6.0000000   1.0000000
 Leave Link  101 at Fri Jul  9 19:21:40 2021, MaxMem=  4194304000 cpu:         1.3
 (Enter /home/minenky/programs//g09/l103.exe)

 GradGradGradGradGradGradGradGradGradGradGradGradGradGradGradGradGradGrad
 Berny optimization.
 Initialization pass.
                           ----------------------------
                           !    Initial Parameters    !
                           ! (Angstroms and Degrees)  !
 --------------------------                            --------------------------
 ! Name  Definition              Value          Derivative Info.                !
 --------------------------------------------------------------------------------
 ! R1    R(1,2)                  1.0826         estimate D2E/DX2                !
 ! R2    R(1,3)                  1.3905         estimate D2E/DX2                !
 ! R3    R(1,11)                 1.3905         estimate D2E/DX2                !
 ! R4    R(3,4)                  1.0826         estimate D2E/DX2                !
 ! R5    R(3,5)                  1.3905         estimate D2E/DX2                !
 ! R6    R(5,6)                  1.0826         estimate D2E/DX2                !
 ! R7    R(5,7)                  1.3905         estimate D2E/DX2                !
 ! R8    R(7,8)                  1.0826         estimate D2E/DX2                !
 ! R9    R(7,9)                  1.3905         estimate D2E/DX2                !
 ! R10   R(9,10)                 1.0826         estimate D2E/DX2                !
 ! R11   R(9,11)                 1.3905         estimate D2E/DX2                !
 ! R12   R(11,12)                1.0826         estimate D2E/DX2                !
 ! A1    A(2,1,3)              120.0            estimate D2E/DX2                !
 ! A2    A(2,1,11)             120.0            estimate D2E/DX2                !
 ! A3    A(3,1,11)             120.0            estimate D2E/DX2                !
 ! A4    A(1,3,4)              120.0            estimate D2E/DX2                !
 ! A5    A(1,3,5)              120.0            estimate D2E/DX2                !
 ! A6    A(4,3,5)              120.0            estimate D2E/DX2                !
 ! A7    A(3,5,6)              120.0            estimate D2E/DX2                !
 ! A8    A(3,5,7)              120.0            estimate D2E/DX2                !
 ! A9    A(6,5,7)              120.0            estimate D2E/DX2                !
 ! A10   A(5,7,8)              120.0            estimate D2E/DX2                !
 ! A11   A(5,7,9)              120.0            estimate D2E/DX2                !
 ! A12   A(8,7,9)              120.0            estimate D2E/DX2                !
 ! A13   A(7,9,10)             120.0            estimate D2E/DX2                !
 ! A14   A(7,9,11)             120.0            estimate D2E/DX2                !
 ! A15   A(10,9,11)            120.0            estimate D2E/DX2                !
 ! A16   A(1,11,9)             120.0            estimate D2E/DX2                !
 ! A17   A(1,11,12)            120.0            estimate D2E/DX2                !
 ! A18   A(9,11,12)            120.0            estimate D2E/DX2                !
 ! D1    D(2,1,3,4)              0.0            estimate D2E/DX2                !
 ! D2    D(2,1,3,5)            180.0            estimate D2E/DX2                !
 ! D3    D(11,1,3,4)           180.0            estimate D2E/DX2                !
 ! D4    D(11,1,3,5)             0.0            estimate D2E/DX2                !
 ! D5    D(2,1,11,9)           180.0            estimate D2E/DX2                !
 ! D6    D(2,1,11,12)            0.0            estimate D2E/DX2                !
 ! D7    D(3,1,11,9)             0.0            estimate D2E/DX2                !
 ! D8    D(3,1,11,12)          180.0            estimate D2E/DX2                !
 ! D9    D(1,3,5,6)            180.0            estimate D2E/DX2                !
 ! D10   D(1,3,5,7)              0.0            estimate D2E/DX2                !
 ! D11   D(4,3,5,6)              0.0            estimate D2E/DX2                !
 ! D12   D(4,3,5,7)            180.0            estimate D2E/DX2                !
 ! D13   D(3,5,7,8)            180.0            estimate D2E/DX2                !
 ! D14   D(3,5,7,9)              0.0            estimate D2E/DX2                !
 ! D15   D(6,5,7,8)              0.0            estimate D2E/DX2                !
 ! D16   D(6,5,7,9)            180.0            estimate D2E/DX2                !
 ! D17   D(5,7,9,10)           180.0            estimate D2E/DX2                !
 ! D18   D(5,7,9,11)             0.0            estimate D2E/DX2                !
 ! D19   D(8,7,9,10)             0.0            estimate D2E/DX2                !
 ! D20   D(8,7,9,11)           180.0            estimate D2E/DX2                !
 ! D21   D(7,9,11,1)             0.0            estimate D2E/DX2                !
 ! D22   D(7,9,11,12)          180.0            estimate D2E/DX2                !
 ! D23   D(10,9,11,1)          180.0            estimate D2E/DX2                !
 ! D24   D(10,9,11,12)           0.0            estimate D2E/DX2                !
 --------------------------------------------------------------------------------
 Trust Radius=3.00D-01 FncErr=1.00D-07 GrdErr=1.00D-06
 Number of steps in this run=     64 maximum allowed number of steps=    100.
 GradGradGradGradGradGradGradGradGradGradGradGradGradGradGradGradGradGrad

 Leave Link  103 at Fri Jul  9 19:21:40 2021, MaxMem=  4194304000 cpu:         0.0
 (Enter /home/minenky/programs//g09/l202.exe)
                          Input orientation:                          
 ---------------------------------------------------------------------
 Center     Atomic      Atomic             Coordinates (Angstroms)
 Number     Number       Type             X           Y           Z
 ---------------------------------------------------------------------
      1          6           0        0.000000    1.390481    0.000000
      2          1           0        0.000000    2.473049    0.000000
      3          6           0        1.204192    0.695240    0.000000
      4          1           0        2.141723    1.236524    0.000000
      5          6           0        1.204192   -0.695240    0.000000
      6          1           0        2.141723   -1.236524    0.000000
      7          6           0        0.000000   -1.390481    0.000000
      8          1           0        0.000000   -2.473049    0.000000
      9          6           0       -1.204192   -0.695240    0.000000
     10          1           0       -2.141723   -1.236524    0.000000
     11          6           0       -1.204192    0.695240    0.000000
     12          1           0       -2.141723    1.236524    0.000000
 ---------------------------------------------------------------------
                    Distance matrix (angstroms):
                    1          2          3          4          5
     1  C    0.000000
     2  H    1.082568   0.000000
     3  C    1.390481   2.147250   0.000000
     4  H    2.147249   2.473049   1.082568   0.000000
     5  C    2.408383   3.389415   1.390480   2.147249   0.000000
     6  H    3.389415   4.283446   2.147249   2.473048   1.082568
     7  C    2.780962   3.863530   2.408383   3.389415   1.390481
     8  H    3.863530   4.946098   3.389415   4.283446   2.147250
     9  C    2.408383   3.389415   2.780962   3.863529   2.408384
    10  H    3.389415   4.283446   3.863529   4.946097   3.389415
    11  C    1.390481   2.147250   2.408384   3.389415   2.780962
    12  H    2.147249   2.473049   3.389415   4.283446   3.863529
                    6          7          8          9         10
     6  H    0.000000
     7  C    2.147249   0.000000
     8  H    2.473049   1.082568   0.000000
     9  C    3.389415   1.390481   2.147250   0.000000
    10  H    4.283446   2.147249   2.473049   1.082568   0.000000
    11  C    3.863529   2.408383   3.389415   1.390480   2.147249
    12  H    4.946097   3.389415   4.283446   2.147249   2.473048
                   11         12
    11  C    0.000000
    12  H    1.082568   0.000000
 Stoichiometry    C6H6
 Framework group  D6H[3C2'(HC.CH)]
 Deg. of freedom     2
 Full point group                 D6H     NOp  24
 Largest Abelian subgroup         D2H     NOp   8
 Largest concise Abelian subgroup D2      NOp   4
                         Standard orientation:                         
 ---------------------------------------------------------------------
 Center     Atomic      Atomic             Coordinates (Angstroms)
 Number     Number       Type             X           Y           Z
 ---------------------------------------------------------------------
      1          6           0        0.000000    1.390481    0.000000
      2          1           0        0.000000    2.473049    0.000000
      3          6           0        1.204192    0.695240    0.000000
      4          1           0        2.141723    1.236524    0.000000
      5          6           0        1.204192   -0.695241    0.000000
      6          1           0        2.141723   -1.236525    0.000000
      7          6           0        0.000000   -1.390481    0.000000
      8          1           0        0.000000   -2.473049    0.000000
      9          6           0       -1.204192   -0.695240    0.000000
     10          1           0       -2.141723   -1.236525    0.000000
     11          6           0       -1.204192    0.695241    0.000000
     12          1           0       -2.141723    1.236525    0.000000
 ---------------------------------------------------------------------
 Rotational constants (GHZ):      5.7367349      5.7367349      2.8683675
 Leave Link  202 at Fri Jul  9 19:21:40 2021, MaxMem=  4194304000 cpu:         0.1
 (Enter /home/minenky/programs//g09/l301.exe)
 Standard basis: def2TZVP (5D, 7F)
 ======================================================================================================
                                       Pseudopotential Parameters
 ======================================================================================================
  Center     Atomic      Valence      Angular      Power
  Number     Number     Electrons     Momentum     of R      Exponent        Coefficient   SO-Coeffient
 ======================================================================================================
    1          6
                                   No pseudopotential on this center.
    2          1
                                   No pseudopotential on this center.
    3          6
                                   No pseudopotential on this center.
    4          1
                                   No pseudopotential on this center.
    5          6
                                   No pseudopotential on this center.
    6          1
                                   No pseudopotential on this center.
    7          6
                                   No pseudopotential on this center.
    8          1
                                   No pseudopotential on this center.
    9          6
                                   No pseudopotential on this center.
   10          1
                                   No pseudopotential on this center.
   11          6
                                   No pseudopotential on this center.
   12          1
                                   No pseudopotential on this center.
 ======================================================================================================
 Ernie: Thresh=  0.10000D-02 Tol=  0.10000D-05 Strict=F.
 AO basis set (Overlap normalization):
 Atom C1       Shell     1 S   6     bf    1 -     1          0.000000000000          2.627628282981          0.000000000000
      0.1357534968D+05  0.6064550360D-03
      0.2035233368D+04  0.4697908888D-02
      0.4632256236D+03  0.2433247765D-01
      0.1312001960D+03  0.9739996831D-01
      0.4285301589D+02  0.3019558425D+00
      0.1558418577D+02  0.6623360914D+00
 Atom C1       Shell     2 S   2     bf    2 -     2          0.000000000000          2.627628282981          0.000000000000
      0.6206713851D+01  0.6559530854D+00
      0.2576489653D+01  0.3758563329D+00
 Atom C1       Shell     3 S   1     bf    3 -     3          0.000000000000          2.627628282981          0.000000000000
      0.5769633942D+00  0.1000000000D+01
 Atom C1       Shell     4 S   1     bf    4 -     4          0.000000000000          2.627628282981          0.000000000000
      0.2297283136D+00  0.1000000000D+01
 Atom C1       Shell     5 S   1     bf    5 -     5          0.000000000000          2.627628282981          0.000000000000
      0.9516444003D-01  0.1000000000D+01
 Atom C1       Shell     6 P   4     bf    6 -     8          0.000000000000          2.627628282981          0.000000000000
      0.3469723224D+02  0.1132722000D-01
      0.7958262283D+01  0.7616965920D-01
      0.2378082688D+01  0.3019225220D+00
      0.8143320818D+00  0.7278502735D+00
 Atom C1       Shell     7 P   1     bf    9 -    11          0.000000000000          2.627628282981          0.000000000000
      0.2888754725D+00  0.1000000000D+01
 Atom C1       Shell     8 P   1     bf   12 -    14          0.000000000000          2.627628282981          0.000000000000
      0.1005682367D+00  0.1000000000D+01
 Atom C1       Shell     9 D   1     bf   15 -    19          0.000000000000          2.627628282981          0.000000000000
      0.1097000000D+01  0.1000000000D+01
 Atom C1       Shell    10 D   1     bf   20 -    24          0.000000000000          2.627628282981          0.000000000000
      0.3180000000D+00  0.1000000000D+01
 Atom C1       Shell    11 F   1     bf   25 -    31          0.000000000000          2.627628282981          0.000000000000
      0.7610000000D+00  0.1000000000D+01
 Atom H2       Shell    12 S   3     bf   32 -    32          0.000000000000          4.673385323207          0.000000000000
      0.3406134100D+02  0.2543930721D-01
      0.5123574600D+01  0.1900859489D+00
      0.1164662600D+01  0.8524411301D+00
 Atom H2       Shell    13 S   1     bf   33 -    33          0.000000000000          4.673385323207          0.000000000000
      0.3272304100D+00  0.1000000000D+01
 Atom H2       Shell    14 S   1     bf   34 -    34          0.000000000000          4.673385323207          0.000000000000
      0.1030724100D+00  0.1000000000D+01
 Atom H2       Shell    15 P   1     bf   35 -    37          0.000000000000          4.673385323207          0.000000000000
      0.8000000000D+00  0.1000000000D+01
 Atom C3       Shell    16 S   6     bf   38 -    38          2.275592844764          1.313814141490          0.000000000000
      0.1357534968D+05  0.6064550360D-03
      0.2035233368D+04  0.4697908888D-02
      0.4632256236D+03  0.2433247765D-01
      0.1312001960D+03  0.9739996831D-01
      0.4285301589D+02  0.3019558425D+00
      0.1558418577D+02  0.6623360914D+00
 Atom C3       Shell    17 S   2     bf   39 -    39          2.275592844764          1.313814141490          0.000000000000
      0.6206713851D+01  0.6559530854D+00
      0.2576489653D+01  0.3758563329D+00
 Atom C3       Shell    18 S   1     bf   40 -    40          2.275592844764          1.313814141490          0.000000000000
      0.5769633942D+00  0.1000000000D+01
 Atom C3       Shell    19 S   1     bf   41 -    41          2.275592844764          1.313814141490          0.000000000000
      0.2297283136D+00  0.1000000000D+01
 Atom C3       Shell    20 S   1     bf   42 -    42          2.275592844764          1.313814141490          0.000000000000
      0.9516444003D-01  0.1000000000D+01
 Atom C3       Shell    21 P   4     bf   43 -    45          2.275592844764          1.313814141490          0.000000000000
      0.3469723224D+02  0.1132722000D-01
      0.7958262283D+01  0.7616965920D-01
      0.2378082688D+01  0.3019225220D+00
      0.8143320818D+00  0.7278502735D+00
 Atom C3       Shell    22 P   1     bf   46 -    48          2.275592844764          1.313814141490          0.000000000000
      0.2888754725D+00  0.1000000000D+01
 Atom C3       Shell    23 P   1     bf   49 -    51          2.275592844764          1.313814141490          0.000000000000
      0.1005682367D+00  0.1000000000D+01
 Atom C3       Shell    24 D   1     bf   52 -    56          2.275592844764          1.313814141490          0.000000000000
      0.1097000000D+01  0.1000000000D+01
 Atom C3       Shell    25 D   1     bf   57 -    61          2.275592844764          1.313814141490          0.000000000000
      0.3180000000D+00  0.1000000000D+01
 Atom C3       Shell    26 F   1     bf   62 -    68          2.275592844764          1.313814141490          0.000000000000
      0.7610000000D+00  0.1000000000D+01
 Atom H4       Shell    27 S   3     bf   69 -    69          4.047270411570          2.336692661603          0.000000000000
      0.3406134100D+02  0.2543930721D-01
      0.5123574600D+01  0.1900859489D+00
      0.1164662600D+01  0.8524411301D+00
 Atom H4       Shell    28 S   1     bf   70 -    70          4.047270411570          2.336692661603          0.000000000000
      0.3272304100D+00  0.1000000000D+01
 Atom H4       Shell    29 S   1     bf   71 -    71          4.047270411570          2.336692661603          0.000000000000
      0.1030724100D+00  0.1000000000D+01
 Atom H4       Shell    30 P   1     bf   72 -    74          4.047270411570          2.336692661603          0.000000000000
      0.8000000000D+00  0.1000000000D+01
 Atom C5       Shell    31 S   6     bf   75 -    75          2.275592844764         -1.313814141490          0.000000000000
      0.1357534968D+05  0.6064550360D-03
      0.2035233368D+04  0.4697908888D-02
      0.4632256236D+03  0.2433247765D-01
      0.1312001960D+03  0.9739996831D-01
      0.4285301589D+02  0.3019558425D+00
      0.1558418577D+02  0.6623360914D+00
 Atom C5       Shell    32 S   2     bf   76 -    76          2.275592844764         -1.313814141490          0.000000000000
      0.6206713851D+01  0.6559530854D+00
      0.2576489653D+01  0.3758563329D+00
 Atom C5       Shell    33 S   1     bf   77 -    77          2.275592844764         -1.313814141490          0.000000000000
      0.5769633942D+00  0.1000000000D+01
 Atom C5       Shell    34 S   1     bf   78 -    78          2.275592844764         -1.313814141490          0.000000000000
      0.2297283136D+00  0.1000000000D+01
 Atom C5       Shell    35 S   1     bf   79 -    79          2.275592844764         -1.313814141490          0.000000000000
      0.9516444003D-01  0.1000000000D+01
 Atom C5       Shell    36 P   4     bf   80 -    82          2.275592844764         -1.313814141490          0.000000000000
      0.3469723224D+02  0.1132722000D-01
      0.7958262283D+01  0.7616965920D-01
      0.2378082688D+01  0.3019225220D+00
      0.8143320818D+00  0.7278502735D+00
 Atom C5       Shell    37 P   1     bf   83 -    85          2.275592844764         -1.313814141490          0.000000000000
      0.2888754725D+00  0.1000000000D+01
 Atom C5       Shell    38 P   1     bf   86 -    88          2.275592844764         -1.313814141490          0.000000000000
      0.1005682367D+00  0.1000000000D+01
 Atom C5       Shell    39 D   1     bf   89 -    93          2.275592844764         -1.313814141490          0.000000000000
      0.1097000000D+01  0.1000000000D+01
 Atom C5       Shell    40 D   1     bf   94 -    98          2.275592844764         -1.313814141490          0.000000000000
      0.3180000000D+00  0.1000000000D+01
 Atom C5       Shell    41 F   1     bf   99 -   105          2.275592844764         -1.313814141490          0.000000000000
      0.7610000000D+00  0.1000000000D+01
 Atom H6       Shell    42 S   3     bf  106 -   106          4.047270411570         -2.336692661603          0.000000000000
      0.3406134100D+02  0.2543930721D-01
      0.5123574600D+01  0.1900859489D+00
      0.1164662600D+01  0.8524411301D+00
 Atom H6       Shell    43 S   1     bf  107 -   107          4.047270411570         -2.336692661603          0.000000000000
      0.3272304100D+00  0.1000000000D+01
 Atom H6       Shell    44 S   1     bf  108 -   108          4.047270411570         -2.336692661603          0.000000000000
      0.1030724100D+00  0.1000000000D+01
 Atom H6       Shell    45 P   1     bf  109 -   111          4.047270411570         -2.336692661603          0.000000000000
      0.8000000000D+00  0.1000000000D+01
 Atom C7       Shell    46 S   6     bf  112 -   112          0.000000000000         -2.627628282981          0.000000000000
      0.1357534968D+05  0.6064550360D-03
      0.2035233368D+04  0.4697908888D-02
      0.4632256236D+03  0.2433247765D-01
      0.1312001960D+03  0.9739996831D-01
      0.4285301589D+02  0.3019558425D+00
      0.1558418577D+02  0.6623360914D+00
 Atom C7       Shell    47 S   2     bf  113 -   113          0.000000000000         -2.627628282981          0.000000000000
      0.6206713851D+01  0.6559530854D+00
      0.2576489653D+01  0.3758563329D+00
 Atom C7       Shell    48 S   1     bf  114 -   114          0.000000000000         -2.627628282981          0.000000000000
      0.5769633942D+00  0.1000000000D+01
 Atom C7       Shell    49 S   1     bf  115 -   115          0.000000000000         -2.627628282981          0.000000000000
      0.2297283136D+00  0.1000000000D+01
 Atom C7       Shell    50 S   1     bf  116 -   116          0.000000000000         -2.627628282981          0.000000000000
      0.9516444003D-01  0.1000000000D+01
 Atom C7       Shell    51 P   4     bf  117 -   119          0.000000000000         -2.627628282981          0.000000000000
      0.3469723224D+02  0.1132722000D-01
      0.7958262283D+01  0.7616965920D-01
      0.2378082688D+01  0.3019225220D+00
      0.8143320818D+00  0.7278502735D+00
 Atom C7       Shell    52 P   1     bf  120 -   122          0.000000000000         -2.627628282981          0.000000000000
      0.2888754725D+00  0.1000000000D+01
 Atom C7       Shell    53 P   1     bf  123 -   125          0.000000000000         -2.627628282981          0.000000000000
      0.1005682367D+00  0.1000000000D+01
 Atom C7       Shell    54 D   1     bf  126 -   130          0.000000000000         -2.627628282981          0.000000000000
      0.1097000000D+01  0.1000000000D+01
 Atom C7       Shell    55 D   1     bf  131 -   135          0.000000000000         -2.627628282981          0.000000000000
      0.3180000000D+00  0.1000000000D+01
 Atom C7       Shell    56 F   1     bf  136 -   142          0.000000000000         -2.627628282981          0.000000000000
      0.7610000000D+00  0.1000000000D+01
 Atom H8       Shell    57 S   3     bf  143 -   143          0.000000000000         -4.673385323207          0.000000000000
      0.3406134100D+02  0.2543930721D-01
      0.5123574600D+01  0.1900859489D+00
      0.1164662600D+01  0.8524411301D+00
 Atom H8       Shell    58 S   1     bf  144 -   144          0.000000000000         -4.673385323207          0.000000000000
      0.3272304100D+00  0.1000000000D+01
 Atom H8       Shell    59 S   1     bf  145 -   145          0.000000000000         -4.673385323207          0.000000000000
      0.1030724100D+00  0.1000000000D+01
 Atom H8       Shell    60 P   1     bf  146 -   148          0.000000000000         -4.673385323207          0.000000000000
      0.8000000000D+00  0.1000000000D+01
 Atom C9       Shell    61 S   6     bf  149 -   149         -2.275592844764         -1.313814141490          0.000000000000
      0.1357534968D+05  0.6064550360D-03
      0.2035233368D+04  0.4697908888D-02
      0.4632256236D+03  0.2433247765D-01
      0.1312001960D+03  0.9739996831D-01
      0.4285301589D+02  0.3019558425D+00
      0.1558418577D+02  0.6623360914D+00
 Atom C9       Shell    62 S   2     bf  150 -   150         -2.275592844764         -1.313814141490          0.000000000000
      0.6206713851D+01  0.6559530854D+00
      0.2576489653D+01  0.3758563329D+00
 Atom C9       Shell    63 S   1     bf  151 -   151         -2.275592844764         -1.313814141490          0.000000000000
      0.5769633942D+00  0.1000000000D+01
 Atom C9       Shell    64 S   1     bf  152 -   152         -2.275592844764         -1.313814141490          0.000000000000
      0.2297283136D+00  0.1000000000D+01
 Atom C9       Shell    65 S   1     bf  153 -   153         -2.275592844764         -1.313814141490          0.000000000000
      0.9516444003D-01  0.1000000000D+01
 Atom C9       Shell    66 P   4     bf  154 -   156         -2.275592844764         -1.313814141490          0.000000000000
      0.3469723224D+02  0.1132722000D-01
      0.7958262283D+01  0.7616965920D-01
      0.2378082688D+01  0.3019225220D+00
      0.8143320818D+00  0.7278502735D+00
 Atom C9       Shell    67 P   1     bf  157 -   159         -2.275592844764         -1.313814141490          0.000000000000
      0.2888754725D+00  0.1000000000D+01
 Atom C9       Shell    68 P   1     bf  160 -   162         -2.275592844764         -1.313814141490          0.000000000000
      0.1005682367D+00  0.1000000000D+01
 Atom C9       Shell    69 D   1     bf  163 -   167         -2.275592844764         -1.313814141490          0.000000000000
      0.1097000000D+01  0.1000000000D+01
 Atom C9       Shell    70 D   1     bf  168 -   172         -2.275592844764         -1.313814141490          0.000000000000
      0.3180000000D+00  0.1000000000D+01
 Atom C9       Shell    71 F   1     bf  173 -   179         -2.275592844764         -1.313814141490          0.000000000000
      0.7610000000D+00  0.1000000000D+01
 Atom H10      Shell    72 S   3     bf  180 -   180         -4.047270411570         -2.336692661603          0.000000000000
      0.3406134100D+02  0.2543930721D-01
      0.5123574600D+01  0.1900859489D+00
      0.1164662600D+01  0.8524411301D+00
 Atom H10      Shell    73 S   1     bf  181 -   181         -4.047270411570         -2.336692661603          0.000000000000
      0.3272304100D+00  0.1000000000D+01
 Atom H10      Shell    74 S   1     bf  182 -   182         -4.047270411570         -2.336692661603          0.000000000000
      0.1030724100D+00  0.1000000000D+01
 Atom H10      Shell    75 P   1     bf  183 -   185         -4.047270411570         -2.336692661603          0.000000000000
      0.8000000000D+00  0.1000000000D+01
 Atom C11      Shell    76 S   6     bf  186 -   186         -2.275592844764          1.313814141490          0.000000000000
      0.1357534968D+05  0.6064550360D-03
      0.2035233368D+04  0.4697908888D-02
      0.4632256236D+03  0.2433247765D-01
      0.1312001960D+03  0.9739996831D-01
      0.4285301589D+02  0.3019558425D+00
      0.1558418577D+02  0.6623360914D+00
 Atom C11      Shell    77 S   2     bf  187 -   187         -2.275592844764          1.313814141490          0.000000000000
      0.6206713851D+01  0.6559530854D+00
      0.2576489653D+01  0.3758563329D+00
 Atom C11      Shell    78 S   1     bf  188 -   188         -2.275592844764          1.313814141490          0.000000000000
      0.5769633942D+00  0.1000000000D+01
 Atom C11      Shell    79 S   1     bf  189 -   189         -2.275592844764          1.313814141490          0.000000000000
      0.2297283136D+00  0.1000000000D+01
 Atom C11      Shell    80 S   1     bf  190 -   190         -2.275592844764          1.313814141490          0.000000000000
      0.9516444003D-01  0.1000000000D+01
 Atom C11      Shell    81 P   4     bf  191 -   193         -2.275592844764          1.313814141490          0.000000000000
      0.3469723224D+02  0.1132722000D-01
      0.7958262283D+01  0.7616965920D-01
      0.2378082688D+01  0.3019225220D+00
      0.8143320818D+00  0.7278502735D+00
 Atom C11      Shell    82 P   1     bf  194 -   196         -2.275592844764          1.313814141490          0.000000000000
      0.2888754725D+00  0.1000000000D+01
 Atom C11      Shell    83 P   1     bf  197 -   199         -2.275592844764          1.313814141490          0.000000000000
      0.1005682367D+00  0.1000000000D+01
 Atom C11      Shell    84 D   1     bf  200 -   204         -2.275592844764          1.313814141490          0.000000000000
      0.1097000000D+01  0.1000000000D+01
 Atom C11      Shell    85 D   1     bf  205 -   209         -2.275592844764          1.313814141490          0.000000000000
      0.3180000000D+00  0.1000000000D+01
 Atom C11      Shell    86 F   1     bf  210 -   216         -2.275592844764          1.313814141490          0.000000000000
      0.7610000000D+00  0.1000000000D+01
 Atom H12      Shell    87 S   3     bf  217 -   217         -4.047270411570          2.336692661603          0.000000000000
      0.3406134100D+02  0.2543930721D-01
      0.5123574600D+01  0.1900859489D+00
      0.1164662600D+01  0.8524411301D+00
 Atom H12      Shell    88 S   1     bf  218 -   218         -4.047270411570          2.336692661603          0.000000000000
      0.3272304100D+00  0.1000000000D+01
 Atom H12      Shell    89 S   1     bf  219 -   219         -4.047270411570          2.336692661603          0.000000000000
      0.1030724100D+00  0.1000000000D+01
 Atom H12      Shell    90 P   1     bf  220 -   222         -4.047270411570          2.336692661603          0.000000000000
      0.8000000000D+00  0.1000000000D+01
 There are    51 symmetry adapted cartesian basis functions of AG  symmetry.
 There are    39 symmetry adapted cartesian basis functions of B1G symmetry.
 There are    15 symmetry adapted cartesian basis functions of B2G symmetry.
 There are    21 symmetry adapted cartesian basis functions of B3G symmetry.
 There are    15 symmetry adapted cartesian basis functions of AU  symmetry.
 There are    21 symmetry adapted cartesian basis functions of B1U symmetry.
 There are    51 symmetry adapted cartesian basis functions of B2U symmetry.
 There are    39 symmetry adapted cartesian basis functions of B3U symmetry.
 There are    44 symmetry adapted basis functions of AG  symmetry.
 There are    34 symmetry adapted basis functions of B1G symmetry.
 There are    14 symmetry adapted basis functions of B2G symmetry.
 There are    19 symmetry adapted basis functions of B3G symmetry.
 There are    14 symmetry adapted basis functions of AU  symmetry.
 There are    19 symmetry adapted basis functions of B1U symmetry.
 There are    44 symmetry adapted basis functions of B2U symmetry.
 There are    34 symmetry adapted basis functions of B3U symmetry.
   222 basis functions,   354 primitive gaussians,   252 cartesian basis functions
    21 alpha electrons       21 beta electrons
       nuclear repulsion energy       204.0737947825 Hartrees.
 IExCor= 4639 DFT=T Ex+Corr=wB97XD ExCW=0 ScaHFX=  1.000000
 ScaDFX=  1.000000  1.000000  1.000000  1.000000 ScalE2=  1.000000  1.000000
 IRadAn=      5 IRanWt=     -1 IRanGd=            0 ICorTp=0 IEmpDi=121
  HFx wShort=  0.000000 wLong=  0.200000 cFull=  0.222036 cShort=  0.000000 cLong=  0.777964
  DFx wShort=  0.000000 wLong=  0.200000 cFull=  0.000000 cShort=  0.000000 cLong=  1.000000
 NAtoms=   12 NActive=   12 NUniq=    2 SFac= 4.00D+00 NAtFMM=   60 NAOKFM=F Big=F
 Integral buffers will be    131072 words long.
 Raffenetti 2 integral format.
 Two-electron integral symmetry is turned on.
 R6Disp:  Grimme-D2 Dispersion energy=       -0.0041881150 Hartrees.
 Nuclear repulsion after empirical dispersion term =      204.0696066675 Hartrees.
 Leave Link  301 at Fri Jul  9 19:21:41 2021, MaxMem=  4194304000 cpu:         0.3
 (Enter /home/minenky/programs//g09/l302.exe)
 NPDir=0 NMtPBC=     1 NCelOv=     1 NCel=       1 NClECP=     1 NCelD=      1
         NCelK=      1 NCelE2=     1 NClLst=     1 CellRange=     0.0.
 One-electron integrals computed using PRISM.
 One-electron integral symmetry used in STVInt
  24 Symmetry operations used in ECPInt.
 ECPInt:  NShTT=    4095 NPrTT=   12396 LenC2=    4075 LenP2D=   10419.
 LDataN:  DoStor=T MaxTD1= 6 Len=  172
 NBasis=   222 RedAO= T EigKep=  8.46D-06  NBF=    44    34    14    19    14    19    44    34
 NBsUse=   222 1.00D-06 EigRej= -1.00D+00 NBFU=    44    34    14    19    14    19    44    34
 Precomputing XC quadrature grid using
 IXCGrd= 4 IRadAn=           5 IRanWt=          -1 IRanGd=           0 AccXCQ= 0.00D+00.
 Generated NRdTot=       0 NPtTot=           0 NUsed=           0 NTot=          32
 NSgBfM=   251   251   251   251   251 MxSgAt=    12 MxSgA2=    12.
 Leave Link  302 at Fri Jul  9 19:21:57 2021, MaxMem=  4194304000 cpu:       232.5
 (Enter /home/minenky/programs//g09/l303.exe)
 DipDrv:  MaxL=1.
 Leave Link  303 at Fri Jul  9 19:21:57 2021, MaxMem=  4194304000 cpu:         2.5
 (Enter /home/minenky/programs//g09/l401.exe)
 ExpMin= 9.52D-02 ExpMax= 1.36D+04 ExpMxC= 4.63D+02 IAcc=3 IRadAn=         5 AccDes= 0.00D+00
 Harris functional with IExCor= 4639 and IRadAn=       5 diagonalized for initial guess.
 HarFok:  IExCor= 4639 AccDes= 0.00D+00 IRadAn=         5 IDoV= 1 UseB2=F ITyADJ=14
 ICtDFT=  3500011 ScaDFX=  1.000000  1.000000  1.000000  1.000000
 FoFCou: FMM=F IPFlag=           0 FMFlag=      100000 FMFlg1=           0
         NFxFlg=           0 DoJE=T BraDBF=F KetDBF=T FulRan=T
         wScrn=  0.000000 ICntrl=     500 IOpCl=  0 I1Cent=   200000004 NGrid=           0
         NMat0=    1 NMatS0=      1 NMatT0=    0 NMatD0=    1 NMtDS0=    0 NMtDT0=    0
 Petite list used in FoFCou.
 Harris En= -221.450756278417    
 JPrj=0 DoOrth=F DoCkMO=F.
 Initial guess orbital symmetries:
       Occupied  (A1G) (E1U) (E1U) (E2G) (E2G) (B1U) (A1G) (E1U)
                 (E1U) (E2G) (E2G) (A1G) (B2U) (B1U) (E1U) (E1U)
                 (A2U) (E2G) (E2G) (E1G) (E1G)
       Virtual   (E2U) (E2U) (A1G) (E1U) (E1U) (E2G) (E2G) (B2G)
                 (B1U) (A1G) (A2U) (B2U) (E2G) (E2G) (E1U) (E1U)
                 (E1G) (E1G) (E1U) (E1U) (A1G) (E2U) (E2U) (E2G)
                 (E2G) (B1U) (B2G) (E1U) (E1U) (A2U) (A1G) (E2G)
                 (E2G) (A2G) (E2G) (E2G) (E1U) (E1U) (B1U) (B1G)
                 (E1U) (E1U) (A2G) (B1U) (E1G) (E1G) (A1G) (E2G)
                 (E2G) (E2U) (E2U) (B2U) (A1G) (B1U) (E2G) (E2G)
                 (E1U) (E1U) (E2U) (E2U) (E1U) (E1U) (B2G) (E2G)
                 (E2G) (E1G) (E1G) (E1U) (E1U) (A1G) (A2G) (A2U)
                 (B1U) (E2G) (E2G) (E1G) (E1G) (E1U) (E1U) (A1U)
                 (B1U) (A1G) (E2U) (E2U) (A2U) (E1U) (E1U) (E2G)
                 (E2G) (B2U) (B2G) (E1G) (E1G) (E2U) (E2U) (E2G)
                 (E2G) (B1U) (B2U) (E2G) (E2G) (A1G) (E1U) (E1U)
                 (B1G) (B2G) (E1U) (E1U) (B2U) (A1G) (E2G) (E2G)
                 (A2U) (E1U) (E1U) (E2U) (E2U) (E2G) (E2G) (A2G)
                 (E1G) (E1G) (B1U) (A2U) (E2G) (E2G) (E1G) (E1G)
                 (A1G) (E1U) (E1U) (B1U) (A2U) (E2U) (E2U) (E1U)
                 (E1U) (E1G) (E1G) (E2G) (E2G) (A1G) (E2G) (E2G)
                 (B1G) (E1U) (E1U) (B2G) (A1U) (E2U) (E2U) (A2G)
                 (E1U) (E1U) (B2U) (B1U) (E1G) (E1G) (A2G) (E2G)
                 (E2G) (E2U) (E2U) (B1U) (B2U) (A1G) (E1U) (E1U)
                 (B2G) (E2G) (E2G) (B1U) (A1G) (E1G) (E1G) (E2U)
                 (E2U) (E2G) (E2G) (E1U) (E1U) (A1U) (E1U) (E1U)
                 (B2G) (E2G) (E2G) (E2G) (E2G) (E1U) (E1U) (A2G)
                 (B1U) (B1U) (A2G) (A1G) (E1U) (E1U) (E2G) (E2G)
                 (B1U)
 The electronic state of the initial guess is 1-A1G.
 Leave Link  401 at Fri Jul  9 19:22:16 2021, MaxMem=  4194304000 cpu:       287.5
 (Enter /home/minenky/programs//g09/l502.exe)
 Closed shell SCF:
 Using DIIS extrapolation, IDIIS=  1040.
 Integral symmetry usage will be decided dynamically.
 Keep R1 ints in memory in symmetry-blocked form, NReq=691967740.
 IVT=      346982 IEndB=      346982 NGot=  4194304000 MDV=  4154485550
 LenX=  4154485550 LenY=  4154421605
 Requested convergence on RMS density matrix=1.00D-08 within 380 cycles.
 Requested convergence on MAX density matrix=1.00D-06.
 Requested convergence on             energy=1.00D-06.
 No special actions if energy rises.
 FoFCou: FMM=F IPFlag=           0 FMFlag=           0 FMFlg1=           0
         NFxFlg=           0 DoJE=F BraDBF=F KetDBF=F FulRan=T
         wScrn=  0.000000 ICntrl=     600 IOpCl=  0 I1Cent=           0 NGrid=           0
         NMat0=    1 NMatS0=  24753 NMatT0=    0 NMatD0=    1 NMtDS0=    0 NMtDT0=    0
 Petite list used in FoFCou.
 Integral accuracy reduced to 1.0D-05 until final iterations.

 Cycle   1  Pass 0  IDiag  1:
 E= -232.188864003481    
 DIIS: error= 6.86D-02 at cycle   1 NSaved=   1.
 NSaved= 1 IEnMin= 1 EnMin= -232.188864003481     IErMin= 1 ErrMin= 6.86D-02
 ErrMax= 6.86D-02  0.00D+00 EMaxC= 1.00D-01 BMatC= 4.91D-01 BMatP= 4.91D-01
 IDIUse=3 WtCom= 3.14D-01 WtEn= 6.86D-01
 Coeff-Com:  0.100D+01
 Coeff-En:   0.100D+01
 Coeff:      0.100D+01
 Gap=     0.387 Goal=   None    Shift=    0.000
 GapD=    0.387 DampG=1.000 DampE=0.500 DampFc=0.5000 IDamp=-1.
 Damping current iteration by 5.00D-01
 RMSDP=1.04D-03 MaxDP=2.04D-02              OVMax= 5.05D-02

 Cycle   2  Pass 0  IDiag  1:
 E= -232.218267542950     Delta-E=       -0.029403539469 Rises=F Damp=T
 DIIS: error= 3.28D-02 at cycle   2 NSaved=   2.
 NSaved= 2 IEnMin= 2 EnMin= -232.218267542950     IErMin= 2 ErrMin= 3.28D-02
 ErrMax= 3.28D-02  0.00D+00 EMaxC= 1.00D-01 BMatC= 1.11D-01 BMatP= 4.91D-01
 IDIUse=3 WtCom= 6.72D-01 WtEn= 3.28D-01
 Coeff-Com: -0.872D+00 0.187D+01
 Coeff-En:   0.000D+00 0.100D+01
 Coeff:     -0.585D+00 0.159D+01
 Gap=     0.393 Goal=   None    Shift=    0.000
 RMSDP=6.14D-04 MaxDP=1.39D-02 DE=-2.94D-02 OVMax= 2.20D-02

 Cycle   3  Pass 0  IDiag  1:
 E= -232.245117584207     Delta-E=       -0.026850041256 Rises=F Damp=F
 DIIS: error= 4.05D-03 at cycle   3 NSaved=   3.
 NSaved= 3 IEnMin= 3 EnMin= -232.245117584207     IErMin= 3 ErrMin= 4.05D-03
 ErrMax= 4.05D-03  0.00D+00 EMaxC= 1.00D-01 BMatC= 1.51D-03 BMatP= 1.11D-01
 IDIUse=3 WtCom= 9.60D-01 WtEn= 4.05D-02
 Coeff-Com: -0.293D+00 0.633D+00 0.660D+00
 Coeff-En:   0.000D+00 0.000D+00 0.100D+01
 Coeff:     -0.281D+00 0.607D+00 0.674D+00
 Gap=     0.390 Goal=   None    Shift=    0.000
 RMSDP=1.12D-04 MaxDP=2.10D-03 DE=-2.69D-02 OVMax= 7.90D-03

 Cycle   4  Pass 0  IDiag  1:
 E= -232.246466994341     Delta-E=       -0.001349410135 Rises=F Damp=F
 DIIS: error= 2.32D-04 at cycle   4 NSaved=   4.
 NSaved= 4 IEnMin= 4 EnMin= -232.246466994341     IErMin= 4 ErrMin= 2.32D-04
 ErrMax= 2.32D-04  0.00D+00 EMaxC= 1.00D-01 BMatC= 3.59D-06 BMatP= 1.51D-03
 IDIUse=3 WtCom= 9.98D-01 WtEn= 2.32D-03
 Coeff-Com:  0.437D-01-0.940D-01-0.564D-01 0.111D+01
 Coeff-En:   0.000D+00 0.000D+00 0.000D+00 0.100D+01
 Coeff:      0.436D-01-0.938D-01-0.563D-01 0.111D+01
 Gap=     0.390 Goal=   None    Shift=    0.000
 RMSDP=4.08D-05 MaxDP=6.70D-04 DE=-1.35D-03 OVMax= 5.37D-04

 Cycle   5  Pass 0  IDiag  1:
 E= -232.246472519146     Delta-E=       -0.000005524804 Rises=F Damp=F
 DIIS: error= 1.63D-05 at cycle   5 NSaved=   5.
 NSaved= 5 IEnMin= 5 EnMin= -232.246472519146     IErMin= 5 ErrMin= 1.63D-05
 ErrMax= 1.63D-05  0.00D+00 EMaxC= 1.00D-01 BMatC= 4.73D-08 BMatP= 3.59D-06
 IDIUse=1 WtCom= 1.00D+00 WtEn= 0.00D+00
 Coeff-Com:  0.354D-02-0.771D-02-0.703D-02-0.164D-03 0.101D+01
 Coeff:      0.354D-02-0.771D-02-0.703D-02-0.164D-03 0.101D+01
 Gap=     0.390 Goal=   None    Shift=    0.000
 RMSDP=5.93D-06 MaxDP=9.78D-05 DE=-5.52D-06 OVMax= 8.34D-05

 Initial convergence to 1.0D-05 achieved.  Increase integral accuracy.
 Cycle   6  Pass 1  IDiag  1:
 E= -232.246535599992     Delta-E=       -0.000063080846 Rises=F Damp=F
 DIIS: error= 3.07D-05 at cycle   1 NSaved=   1.
 NSaved= 1 IEnMin= 1 EnMin= -232.246535599992     IErMin= 1 ErrMin= 3.07D-05
 ErrMax= 3.07D-05  0.00D+00 EMaxC= 1.00D-01 BMatC= 1.54D-07 BMatP= 1.54D-07
 IDIUse=1 WtCom= 1.00D+00 WtEn= 0.00D+00
 Coeff-Com:  0.100D+01
 Coeff:      0.100D+01
 Gap=     0.390 Goal=   None    Shift=    0.000
 RMSDP=5.93D-06 MaxDP=9.78D-05 DE=-6.31D-05 OVMax= 7.10D-05

 Cycle   7  Pass 1  IDiag  1:
 E= -232.246535697408     Delta-E=       -0.000000097416 Rises=F Damp=F
 DIIS: error= 3.89D-06 at cycle   2 NSaved=   2.
 NSaved= 2 IEnMin= 2 EnMin= -232.246535697408     IErMin= 2 ErrMin= 3.89D-06
 ErrMax= 3.89D-06  0.00D+00 EMaxC= 1.00D-01 BMatC= 1.49D-09 BMatP= 1.54D-07
 IDIUse=1 WtCom= 1.00D+00 WtEn= 0.00D+00
 Coeff-Com: -0.540D-01 0.105D+01
 Coeff:     -0.540D-01 0.105D+01
 Gap=     0.390 Goal=   None    Shift=    0.000
 RMSDP=4.28D-07 MaxDP=6.09D-06 DE=-9.74D-08 OVMax= 1.21D-05

 Cycle   8  Pass 1  IDiag  1:
 E= -232.246535698875     Delta-E=       -0.000000001468 Rises=F Damp=F
 DIIS: error= 2.04D-06 at cycle   3 NSaved=   3.
 NSaved= 3 IEnMin= 3 EnMin= -232.246535698875     IErMin= 3 ErrMin= 2.04D-06
 ErrMax= 2.04D-06  0.00D+00 EMaxC= 1.00D-01 BMatC= 2.94D-10 BMatP= 1.49D-09
 IDIUse=1 WtCom= 1.00D+00 WtEn= 0.00D+00
 Coeff-Com: -0.216D-01 0.314D+00 0.707D+00
 Coeff:     -0.216D-01 0.314D+00 0.707D+00
 Gap=     0.390 Goal=   None    Shift=    0.000
 RMSDP=6.86D-08 MaxDP=1.40D-06 DE=-1.47D-09 OVMax= 5.34D-06

 Cycle   9  Pass 1  IDiag  1:
 E= -232.246535699150     Delta-E=       -0.000000000274 Rises=F Damp=F
 DIIS: error= 4.21D-07 at cycle   4 NSaved=   4.
 NSaved= 4 IEnMin= 4 EnMin= -232.246535699150     IErMin= 4 ErrMin= 4.21D-07
 ErrMax= 4.21D-07  0.00D+00 EMaxC= 1.00D-01 BMatC= 2.26D-11 BMatP= 2.94D-10
 IDIUse=1 WtCom= 1.00D+00 WtEn= 0.00D+00
 Coeff-Com:  0.137D-02-0.519D-01 0.160D+00 0.890D+00
 Coeff:      0.137D-02-0.519D-01 0.160D+00 0.890D+00
 Gap=     0.390 Goal=   None    Shift=    0.000
 RMSDP=3.82D-08 MaxDP=7.23D-07 DE=-2.74D-10 OVMax= 1.31D-06

 Cycle  10  Pass 1  IDiag  1:
 E= -232.246535699177     Delta-E=       -0.000000000027 Rises=F Damp=F
 DIIS: error= 5.54D-08 at cycle   5 NSaved=   5.
 NSaved= 5 IEnMin= 5 EnMin= -232.246535699177     IErMin= 5 ErrMin= 5.54D-08
 ErrMax= 5.54D-08  0.00D+00 EMaxC= 1.00D-01 BMatC= 3.80D-13 BMatP= 2.26D-11
 IDIUse=1 WtCom= 1.00D+00 WtEn= 0.00D+00
 Coeff-Com:  0.988D-03-0.171D-01-0.573D-02 0.104D+00 0.917D+00
 Coeff:      0.988D-03-0.171D-01-0.573D-02 0.104D+00 0.917D+00
 Gap=     0.390 Goal=   None    Shift=    0.000
 RMSDP=1.11D-08 MaxDP=2.50D-07 DE=-2.71D-11 OVMax= 2.94D-07

 Cycle  11  Pass 1  IDiag  1:
 E= -232.246535699183     Delta-E=       -0.000000000006 Rises=F Damp=F
 DIIS: error= 1.05D-08 at cycle   6 NSaved=   6.
 NSaved= 6 IEnMin= 6 EnMin= -232.246535699183     IErMin= 6 ErrMin= 1.05D-08
 ErrMax= 1.05D-08  0.00D+00 EMaxC= 1.00D-01 BMatC= 1.39D-14 BMatP= 3.80D-13
 IDIUse=1 WtCom= 1.00D+00 WtEn= 0.00D+00
 Coeff-Com:  0.513D-05 0.123D-02-0.819D-02-0.403D-01 0.386D-01 0.101D+01
 Coeff:      0.513D-05 0.123D-02-0.819D-02-0.403D-01 0.386D-01 0.101D+01
 Gap=     0.390 Goal=   None    Shift=    0.000
 RMSDP=3.32D-09 MaxDP=7.37D-08 DE=-6.14D-12 OVMax= 4.81D-08

 SCF Done:  E(RwB97XD) =  -232.246535699     A.U. after   11 cycles
            NFock= 11  Conv=0.33D-08     -V/T= 2.0052
 KE= 2.310433302197D+02 PE=-9.465802781626D+02 EE= 2.792208055761D+02
 Leave Link  502 at Fri Jul  9 19:23:07 2021, MaxMem=  4194304000 cpu:       738.5
 (Enter /home/minenky/programs//g09/l601.exe)
 Copying SCF densities to generalized density rwf, IOpCl= 0 IROHF=0.

 **********************************************************************

            Population analysis using the SCF density.

 **********************************************************************

 Orbital symmetries:
       Occupied  (A1G) (E1U) (E1U) (E2G) (E2G) (B1U) (A1G) (E1U)
                 (E1U) (E2G) (E2G) (A1G) (B1U) (B2U) (E1U) (E1U)
                 (A2U) (E2G) (E2G) (E1G) (E1G)
       Virtual   (E2U) (E2U) (A1G) (E1U) (E1U) (E2G) (E2G) (B1U)
                 (A1G) (B2G) (A2U) (B2U) (E2G) (E2G) (E1U) (E1U)
                 (E1G) (E1G) (E1U) (E1U) (A1G) (E2U) (E2U) (E2G)
                 (E2G) (B1U) (E1U) (E1U) (B2G) (A1G) (E2G) (E2G)
                 (A2U) (A2G) (B1U) (E2G) (E2G) (E1U) (E1U) (E1U)
                 (E1U) (B1G) (A2G) (B1U) (E1G) (E1G) (E2G) (E2G)
                 (A1G) (E2U) (E2U) (B2U) (A1G) (B1U) (E2G) (E2G)
                 (E1U) (E1U) (E2U) (E2U) (B2G) (E1U) (E1U) (E2G)
                 (E2G) (E1G) (E1G) (E1U) (E1U) (A1G) (B1U) (A2G)
                 (A2U) (E2G) (E2G) (E1U) (E1U) (E1G) (E1G) (A1U)
                 (B1U) (A1G) (E2U) (E2U) (A2U) (E2G) (E2G) (E1U)
                 (E1U) (B2U) (B2G) (E1G) (E1G) (E2U) (E2U) (B1U)
                 (E2G) (E2G) (B2U) (E2G) (E2G) (A1G) (E1U) (E1U)
                 (B1G) (B2G) (E1U) (E1U) (A1G) (E2G) (E2G) (B2U)
                 (A2U) (E1U) (E1U) (E2U) (E2U) (A2G) (E2G) (E2G)
                 (B1U) (E1G) (E1G) (A2U) (E2G) (E2G) (E1G) (E1G)
                 (A1G) (E1U) (E1U) (B1U) (A2U) (E2U) (E2U) (E1U)
                 (E1U) (E1G) (E1G) (E2G) (E2G) (A1G) (E2G) (E2G)
                 (B1G) (E1U) (E1U) (B2G) (A1U) (E2U) (E2U) (A2G)
                 (E1U) (E1U) (B2U) (B1U) (E1G) (E1G) (A2G) (E2G)
                 (E2G) (E2U) (E2U) (B1U) (B2U) (A1G) (E1U) (E1U)
                 (B2G) (E2G) (E2G) (B1U) (A1G) (E1G) (E1G) (E2U)
                 (E2U) (E2G) (E2G) (E1U) (E1U) (A1U) (E1U) (E1U)
                 (B2G) (E2G) (E2G) (E2G) (E2G) (E1U) (E1U) (B1U)
                 (A2G) (B1U) (A2G) (A1G) (E1U) (E1U) (E2G) (E2G)
                 (B1U)
 The electronic state is 1-A1G.
 Alpha  occ. eigenvalues --  -10.28852 -10.28828 -10.28828 -10.28767 -10.28767
 Alpha  occ. eigenvalues --  -10.28738  -0.95829  -0.84680  -0.84680  -0.69792
 Alpha  occ. eigenvalues --   -0.69792  -0.61749  -0.55017  -0.53531  -0.50818
 Alpha  occ. eigenvalues --   -0.50818  -0.46079  -0.42625  -0.42625  -0.33262
 Alpha  occ. eigenvalues --   -0.33262
 Alpha virt. eigenvalues --    0.05728   0.05728   0.12506   0.15737   0.15737
 Alpha virt. eigenvalues --    0.18378   0.18378   0.20367   0.22367   0.22512
 Alpha virt. eigenvalues --    0.28505   0.29162   0.29446   0.29446   0.30930
 Alpha virt. eigenvalues --    0.30930   0.32762   0.32762   0.34765   0.34765
 Alpha virt. eigenvalues --    0.40573   0.41040   0.41040   0.43832   0.43832
 Alpha virt. eigenvalues --    0.45675   0.48899   0.48899   0.48994   0.51494
 Alpha virt. eigenvalues --    0.51548   0.51548   0.53891   0.54799   0.57282
 Alpha virt. eigenvalues --    0.57307   0.57307   0.59281   0.59281   0.72735
 Alpha virt. eigenvalues --    0.72735   0.73158   0.77197   0.77625   0.82663
 Alpha virt. eigenvalues --    0.82663   0.83829   0.83829   0.88605   0.92633
 Alpha virt. eigenvalues --    0.92633   0.93652   0.97018   0.97875   1.08929
 Alpha virt. eigenvalues --    1.08929   1.09490   1.09490   1.13550   1.13550
 Alpha virt. eigenvalues --    1.25406   1.26285   1.26285   1.28996   1.28996
 Alpha virt. eigenvalues --    1.30683   1.30683   1.33346   1.33346   1.37539
 Alpha virt. eigenvalues --    1.46419   1.46724   1.48859   1.53903   1.53903
 Alpha virt. eigenvalues --    1.57364   1.57364   1.58023   1.58023   1.67860
 Alpha virt. eigenvalues --    1.69747   1.74288   1.76477   1.76477   1.76640
 Alpha virt. eigenvalues --    1.77901   1.77901   1.79923   1.79923   1.85405
 Alpha virt. eigenvalues --    1.93657   1.99132   1.99132   2.12226   2.12226
 Alpha virt. eigenvalues --    2.15188   2.16449   2.16449   2.17361   2.24861
 Alpha virt. eigenvalues --    2.24861   2.30880   2.32489   2.32489   2.41046
 Alpha virt. eigenvalues --    2.55135   2.56847   2.56847   2.64268   2.64940
 Alpha virt. eigenvalues --    2.64940   2.65185   2.67235   2.74590   2.74590
 Alpha virt. eigenvalues --    2.75970   2.75970   2.76060   2.76843   2.76843
 Alpha virt. eigenvalues --    2.83062   2.83511   2.83511   2.88427   2.89311
 Alpha virt. eigenvalues --    2.89311   2.92561   2.92561   2.92586   2.94152
 Alpha virt. eigenvalues --    2.94152   2.98905   3.09655   3.17464   3.17464
 Alpha virt. eigenvalues --    3.17838   3.17838   3.22086   3.22086   3.22483
 Alpha virt. eigenvalues --    3.22483   3.27913   3.30694   3.30694   3.32611
 Alpha virt. eigenvalues --    3.34277   3.34277   3.39206   3.43195   3.46016
 Alpha virt. eigenvalues --    3.46016   3.46319   3.53531   3.53531   3.57016
 Alpha virt. eigenvalues --    3.58308   3.60877   3.60877   3.69280   3.72738
 Alpha virt. eigenvalues --    3.72738   3.84055   3.84055   3.84609   3.88144
 Alpha virt. eigenvalues --    3.95802   4.08953   4.08953   4.15034   4.16187
 Alpha virt. eigenvalues --    4.16187   4.20601   4.29103   4.29147   4.29147
 Alpha virt. eigenvalues --    4.31116   4.31116   4.37533   4.37533   4.38891
 Alpha virt. eigenvalues --    4.38891   4.71874   4.73183   4.73183   4.74230
 Alpha virt. eigenvalues --    4.92602   4.92602   4.98052   4.98052   5.30036
 Alpha virt. eigenvalues --    5.30036   5.37028   5.38433   5.51064   5.70565
 Alpha virt. eigenvalues --   21.98099  22.66014  22.66014  22.76055  22.76055
 Alpha virt. eigenvalues --   23.18836
          Condensed to atoms (all electrons):
               1          2          3          4          5          6
     1  C    4.897302   0.439061   0.467036  -0.052278  -0.004387   0.009500
     2  H    0.439061   0.542916  -0.052278  -0.006745   0.009500  -0.000122
     3  C    0.467036  -0.052278   4.897302   0.439061   0.467036  -0.052278
     4  H   -0.052278  -0.006745   0.439061   0.542916  -0.052278  -0.006745
     5  C   -0.004387   0.009500   0.467036  -0.052278   4.897302   0.439061
     6  H    0.009500  -0.000122  -0.052278  -0.006745   0.439061   0.542916
     7  C   -0.052788  -0.003026  -0.004387   0.009500   0.467036  -0.052278
     8  H   -0.003026   0.000046   0.009500  -0.000122  -0.052278  -0.006745
     9  C   -0.004387   0.009500  -0.052788  -0.003026  -0.004387   0.009500
    10  H    0.009500  -0.000122  -0.003026   0.000046   0.009500  -0.000122
    11  C    0.467036  -0.052278  -0.004387   0.009500  -0.052788  -0.003026
    12  H   -0.052278  -0.006745   0.009500  -0.000122  -0.003026   0.000046
               7          8          9         10         11         12
     1  C   -0.052788  -0.003026  -0.004387   0.009500   0.467036  -0.052278
     2  H   -0.003026   0.000046   0.009500  -0.000122  -0.052278  -0.006745
     3  C   -0.004387   0.009500  -0.052788  -0.003026  -0.004387   0.009500
     4  H    0.009500  -0.000122  -0.003026   0.000046   0.009500  -0.000122
     5  C    0.467036  -0.052278  -0.004387   0.009500  -0.052788  -0.003026
     6  H   -0.052278  -0.006745   0.009500  -0.000122  -0.003026   0.000046
     7  C    4.897302   0.439061   0.467036  -0.052278  -0.004387   0.009500
     8  H    0.439061   0.542916  -0.052278  -0.006745   0.009500  -0.000122
     9  C    0.467036  -0.052278   4.897302   0.439061   0.467036  -0.052278
    10  H   -0.052278  -0.006745   0.439061   0.542916  -0.052278  -0.006745
    11  C   -0.004387   0.009500   0.467036  -0.052278   4.897302   0.439061
    12  H    0.009500  -0.000122  -0.052278  -0.006745   0.439061   0.542916
 Mulliken charges:
               1
     1  C   -0.120293
     2  H    0.120293
     3  C   -0.120293
     4  H    0.120293
     5  C   -0.120293
     6  H    0.120293
     7  C   -0.120293
     8  H    0.120293
     9  C   -0.120293
    10  H    0.120293
    11  C   -0.120293
    12  H    0.120293
 Sum of Mulliken charges =   0.00000
 Mulliken charges with hydrogens summed into heavy atoms:
               1
     1  C    0.000000
     3  C    0.000000
     5  C    0.000000
     7  C    0.000000
     9  C    0.000000
    11  C    0.000000
 Electronic spatial extent (au):  <R**2>=            455.9902
 Charge=              0.0000 electrons
 Dipole moment (field-independent basis, Debye):
    X=              0.0000    Y=              0.0000    Z=              0.0000  Tot=              0.0000
 Quadrupole moment (field-independent basis, Debye-Ang):
   XX=            -31.5261   YY=            -31.5261   ZZ=            -39.6916
   XY=              0.0000   XZ=              0.0000   YZ=              0.0000
 Traceless Quadrupole moment (field-independent basis, Debye-Ang):
   XX=              2.7218   YY=              2.7218   ZZ=             -5.4436
   XY=              0.0000   XZ=              0.0000   YZ=              0.0000
 Octapole moment (field-independent basis, Debye-Ang**2):
  XXX=              0.0000  YYY=              0.0000  ZZZ=              0.0000  XYY=              0.0000
  XXY=              0.0000  XXZ=              0.0000  XZZ=              0.0000  YZZ=              0.0000
  YYZ=              0.0000  XYZ=              0.0000
 Hexadecapole moment (field-independent basis, Debye-Ang**3):
 XXXX=           -267.6906 YYYY=           -267.6906 ZZZZ=            -46.9121 XXXY=              0.0000
 XXXZ=              0.0000 YYYX=              0.0000 YYYZ=              0.0000 ZZZX=              0.0000
 ZZZY=              0.0000 XXYY=            -89.2302 XXZZ=            -63.0321 YYZZ=            -63.0321
 XXYZ=              0.0000 YYXZ=              0.0000 ZZXY=              0.0000
 N-N= 2.040696066675D+02 E-N=-9.465802789896D+02  KE= 2.310433302197D+02
 Symmetry AG   KE= 7.444331385872D+01
 Symmetry B1G  KE= 3.768614034316D+01
 Symmetry B2G  KE= 2.220072603243D+00
 Symmetry B3G  KE= 2.220072603243D+00
 Symmetry AU   KE= 5.753941711111D-17
 Symmetry B1U  KE= 1.862857221546D+00
 Symmetry B2U  KE= 7.208360400874D+01
 Symmetry B3U  KE= 4.052726958108D+01
 No NMR shielding tensors so no spin-rotation constants.
 Leave Link  601 at Fri Jul  9 19:23:09 2021, MaxMem=  4194304000 cpu:        25.9
 (Enter /home/minenky/programs//g09/l701.exe)
 Compute integral first derivatives.
 ... and contract with generalized density number  0.
 R6Disp: Adding Grimme-D2 dispersion energy 1st derivatives to the gradient.
  24 Symmetry operations used in ECPInt.
 ECPInt:  NShTT=    4095 NPrTT=   12396 LenC2=    4075 LenP2D=   10419.
 LDataN:  DoStor=T MaxTD1= 7 Len=  274
 Leave Link  701 at Fri Jul  9 19:23:16 2021, MaxMem=  4194304000 cpu:       114.1
 (Enter /home/minenky/programs//g09/l702.exe)
 L702 exits ... SP integral derivatives will be done elsewhere.
 Leave Link  702 at Fri Jul  9 19:23:17 2021, MaxMem=  4194304000 cpu:         0.1
 (Enter /home/minenky/programs//g09/l703.exe)
 Compute integral first derivatives, UseDBF=F ICtDFT=           0.
 Integral derivatives from FoFJK, PRISM(SPDF).
 Calling FoFJK, ICntrl=      2127 FMM=F ISym2X=1 I1Cent= 0 IOpClX= 0 NMat=1 NMatS=1 NMatT=0.
 FoFJK:  IHMeth= 1 ICntrl=    2127 DoSepK=T KAlg= 0 I1Cent=   0 FoldK=F
 IRaf=         1 NMat=   1 IRICut=       1 DoRegI=T DoRafI=F ISym2E= 1.
 FoFCou: FMM=F IPFlag=           0 FMFlag=      100000 FMFlg1=         800
         NFxFlg=           0 DoJE=F BraDBF=F KetDBF=F FulRan=T
         wScrn=  0.000000 ICntrl=    2527 IOpCl=  0 I1Cent=           0 NGrid=           0
         NMat0=    1 NMatS0=      1 NMatT0=    0 NMatD0=    1 NMtDS0=    0 NMtDT0=    0
 Petite list used in FoFCou.
 Leave Link  703 at Fri Jul  9 19:23:29 2021, MaxMem=  4194304000 cpu:       175.7
 (Enter /home/minenky/programs//g09/l716.exe)
 Dipole        =-5.32907052D-15 1.33226763D-15-9.13564822D-33
 ***** Axes restored to original set *****
 -------------------------------------------------------------------
 Center     Atomic                   Forces (Hartrees/Bohr)
 Number     Number              X              Y              Z
 -------------------------------------------------------------------
      1        6           0.000000000   -0.003270823    0.000000000
      2        1           0.000000000    0.000144492    0.000000000
      3        6          -0.002832616   -0.001635411    0.000000000
      4        1           0.000125133    0.000072246    0.000000000
      5        6          -0.002832616    0.001635411    0.000000000
      6        1           0.000125133   -0.000072246    0.000000000
      7        6           0.000000000    0.003270823    0.000000000
      8        1           0.000000000   -0.000144492    0.000000000
      9        6           0.002832616    0.001635411    0.000000000
     10        1          -0.000125133   -0.000072246    0.000000000
     11        6           0.002832616   -0.001635411    0.000000000
     12        1          -0.000125133    0.000072246    0.000000000
 -------------------------------------------------------------------
 Cartesian Forces:  Max     0.003270823 RMS     0.001336610
 Leave Link  716 at Fri Jul  9 19:23:29 2021, MaxMem=  4194304000 cpu:         0.2
 (Enter /home/minenky/programs//g09/l103.exe)

 GradGradGradGradGradGradGradGradGradGradGradGradGradGradGradGradGradGrad
 Berny optimization.
 FormGI is forming the generalized inverse of G from B-inverse, IUseBI=4.
 Internal  Forces:  Max     0.003126331 RMS     0.001043223
 Search for a local minimum.
 Step number   1 out of a maximum of   64
 All quantities printed in internal units (Hartrees-Bohrs-Radians)
 RMS Force = .10432D-02 SwitMx=.10000D-02 MixMth= 1
 Mixed Optimization -- RFO/linear search
 Second derivative matrix not updated -- first step.
 ITU=  0
     Eigenvalues ---    0.02215   0.02215   0.02215   0.02215   0.02215
     Eigenvalues ---    0.02215   0.02215   0.02215   0.02215   0.16000
     Eigenvalues ---    0.16000   0.16000   0.16000   0.16000   0.16000
     Eigenvalues ---    0.22000   0.22000   0.22000   0.35686   0.35686
     Eigenvalues ---    0.35686   0.35686   0.35686   0.35686   0.42731
     Eigenvalues ---    0.42731   0.47235   0.47235   0.47235   0.47235
 RFO step:  Lambda=-1.24470829D-04 EMin= 2.21467385D-02
 Linear search not attempted -- first point.
 Iteration  1 RMS(Cart)=  0.00302534 RMS(Int)=  0.00000000
 Iteration  2 RMS(Cart)=  0.00000000 RMS(Int)=  0.00000000
 ITry= 1 IFail=0 DXMaxC= 6.62D-03 DCOld= 1.00D+10 DXMaxT= 3.00D-01 DXLimC= 3.00D+00 Rises=F
 ClnCor:  largest displacement from symmetrization is 5.10D-12 for atom     6.
 Variable       Old X    -DE/DX   Delta X   Delta X   Delta X     New X
                                 (Linear)    (Quad)   (Total)
    R1        2.04576   0.00014   0.00000   0.00040   0.00040   2.04616
    R2        2.62763  -0.00313   0.00000  -0.00662  -0.00662   2.62101
    R3        2.62763  -0.00313   0.00000  -0.00662  -0.00662   2.62101
    R4        2.04576   0.00014   0.00000   0.00040   0.00040   2.04616
    R5        2.62763  -0.00313   0.00000  -0.00662  -0.00662   2.62101
    R6        2.04576   0.00014   0.00000   0.00040   0.00040   2.04616
    R7        2.62763  -0.00313   0.00000  -0.00662  -0.00662   2.62101
    R8        2.04576   0.00014   0.00000   0.00040   0.00040   2.04616
    R9        2.62763  -0.00313   0.00000  -0.00662  -0.00662   2.62101
   R10        2.04576   0.00014   0.00000   0.00040   0.00040   2.04616
   R11        2.62763  -0.00313   0.00000  -0.00662  -0.00662   2.62101
   R12        2.04576   0.00014   0.00000   0.00040   0.00040   2.04616
    A1        2.09440   0.00000   0.00000   0.00000   0.00000   2.09440
    A2        2.09440   0.00000   0.00000   0.00000   0.00000   2.09440
    A3        2.09440   0.00000   0.00000   0.00000   0.00000   2.09440
    A4        2.09440   0.00000   0.00000   0.00000   0.00000   2.09440
    A5        2.09440   0.00000   0.00000   0.00000   0.00000   2.09440
    A6        2.09440   0.00000   0.00000   0.00000   0.00000   2.09440
    A7        2.09440   0.00000   0.00000   0.00000   0.00000   2.09440
    A8        2.09440   0.00000   0.00000   0.00000   0.00000   2.09440
    A9        2.09440   0.00000   0.00000   0.00000   0.00000   2.09440
   A10        2.09440   0.00000   0.00000   0.00000   0.00000   2.09440
   A11        2.09440   0.00000   0.00000   0.00000   0.00000   2.09440
   A12        2.09440   0.00000   0.00000   0.00000   0.00000   2.09440
   A13        2.09440   0.00000   0.00000   0.00000   0.00000   2.09440
   A14        2.09440   0.00000   0.00000   0.00000   0.00000   2.09440
   A15        2.09440   0.00000   0.00000   0.00000   0.00000   2.09440
   A16        2.09440   0.00000   0.00000   0.00000   0.00000   2.09440
   A17        2.09440   0.00000   0.00000   0.00000   0.00000   2.09440
   A18        2.09440   0.00000   0.00000   0.00000   0.00000   2.09440
    D1        0.00000   0.00000   0.00000   0.00000   0.00000   0.00000
    D2        3.14159   0.00000   0.00000   0.00000   0.00000   3.14159
    D3        3.14159   0.00000   0.00000   0.00000   0.00000   3.14159
    D4        0.00000   0.00000   0.00000   0.00000   0.00000   0.00000
    D5        3.14159   0.00000   0.00000   0.00000   0.00000   3.14159
    D6        0.00000   0.00000   0.00000   0.00000   0.00000   0.00000
    D7        0.00000   0.00000   0.00000   0.00000   0.00000   0.00000
    D8        3.14159   0.00000   0.00000   0.00000   0.00000   3.14159
    D9        3.14159   0.00000   0.00000   0.00000   0.00000   3.14159
   D10        0.00000   0.00000   0.00000   0.00000   0.00000   0.00000
   D11        0.00000   0.00000   0.00000   0.00000   0.00000   0.00000
   D12        3.14159   0.00000   0.00000   0.00000   0.00000   3.14159
   D13        3.14159   0.00000   0.00000   0.00000   0.00000   3.14159
   D14        0.00000   0.00000   0.00000   0.00000   0.00000   0.00000
   D15        0.00000   0.00000   0.00000   0.00000   0.00000   0.00000
   D16        3.14159   0.00000   0.00000   0.00000   0.00000   3.14159
   D17        3.14159   0.00000   0.00000   0.00000   0.00000   3.14159
   D18        0.00000   0.00000   0.00000   0.00000   0.00000   0.00000
   D19        0.00000   0.00000   0.00000   0.00000   0.00000   0.00000
   D20        3.14159   0.00000   0.00000   0.00000   0.00000   3.14159
   D21        0.00000   0.00000   0.00000   0.00000   0.00000   0.00000
   D22        3.14159   0.00000   0.00000   0.00000   0.00000   3.14159
   D23        3.14159   0.00000   0.00000   0.00000   0.00000   3.14159
   D24        0.00000   0.00000   0.00000   0.00000   0.00000   0.00000
         Item               Value     Threshold  Converged?
 Maximum Force            0.003126     0.000015     NO 
 RMS     Force            0.001043     0.000010     NO 
 Maximum Displacement     0.006617     0.000060     NO 
 RMS     Displacement     0.003025     0.000040     NO 
 Predicted change in Energy=-6.225183D-05
 Lowest energy point so far.  Saving SCF results.
 GradGradGradGradGradGradGradGradGradGradGradGradGradGradGradGradGradGrad

 Leave Link  103 at Fri Jul  9 19:23:30 2021, MaxMem=  4194304000 cpu:        12.9
 (Enter /home/minenky/programs//g09/l202.exe)
                          Input orientation:                          
 ---------------------------------------------------------------------
 Center     Atomic      Atomic             Coordinates (Angstroms)
 Number     Number       Type             X           Y           Z
 ---------------------------------------------------------------------
      1          6           0        0.000000    1.386979    0.000000
      2          1           0        0.000000    2.469762    0.000000
      3          6           0        1.201159    0.693490    0.000000
      4          1           0        2.138876    1.234881    0.000000
      5          6           0        1.201159   -0.693490    0.000000
      6          1           0        2.138876   -1.234881    0.000000
      7          6           0        0.000000   -1.386979    0.000000
      8          1           0        0.000000   -2.469762    0.000000
      9          6           0       -1.201159   -0.693490    0.000000
     10          1           0       -2.138876   -1.234881    0.000000
     11          6           0       -1.201159    0.693490    0.000000
     12          1           0       -2.138876    1.234881    0.000000
 ---------------------------------------------------------------------
                    Distance matrix (angstroms):
                    1          2          3          4          5
     1  C    0.000000
     2  H    1.082782   0.000000
     3  C    1.386979   2.144278   0.000000
     4  H    2.144278   2.469762   1.082782   0.000000
     5  C    2.402319   3.383629   1.386979   2.144278   0.000000
     6  H    3.383629   4.277753   2.144278   2.469762   1.082782
     7  C    2.773959   3.856741   2.402319   3.383629   1.386979
     8  H    3.856741   4.939523   3.383629   4.277753   2.144278
     9  C    2.402319   3.383629   2.773959   3.856741   2.402319
    10  H    3.383629   4.277753   3.856741   4.939523   3.383629
    11  C    1.386979   2.144278   2.402319   3.383629   2.773959
    12  H    2.144278   2.469762   3.383629   4.277753   3.856741
                    6          7          8          9         10
     6  H    0.000000
     7  C    2.144278   0.000000
     8  H    2.469762   1.082782   0.000000
     9  C    3.383629   1.386979   2.144278   0.000000
    10  H    4.277753   2.144278   2.469762   1.082782   0.000000
    11  C    3.856741   2.402319   3.383629   1.386979   2.144278
    12  H    4.939523   3.383629   4.277753   2.144278   2.469762
                   11         12
    11  C    0.000000
    12  H    1.082782   0.000000
 Stoichiometry    C6H6
 Framework group  D6H[3C2'(HC.CH)]
 Deg. of freedom     2
 Full point group                 D6H     NOp  24
 RotChk:  IX=0 Diff= 4.71D-16
 Largest Abelian subgroup         D2H     NOp   8
 Largest concise Abelian subgroup D2      NOp   4
                         Standard orientation:                         
 ---------------------------------------------------------------------
 Center     Atomic      Atomic             Coordinates (Angstroms)
 Number     Number       Type             X           Y           Z
 ---------------------------------------------------------------------
      1          6           0        0.000000    1.386979    0.000000
      2          1           0        0.000000    2.469762    0.000000
      3          6           0        1.201159    0.693490    0.000000
      4          1           0        2.138876    1.234881    0.000000
      5          6           0        1.201159   -0.693490    0.000000
      6          1           0        2.138876   -1.234881    0.000000
      7          6           0        0.000000   -1.386979    0.000000
      8          1           0        0.000000   -2.469762    0.000000
      9          6           0       -1.201159   -0.693490    0.000000
     10          1           0       -2.138876   -1.234881    0.000000
     11          6           0       -1.201159    0.693490    0.000000
     12          1           0       -2.138876    1.234881    0.000000
 ---------------------------------------------------------------------
 Rotational constants (GHZ):      5.7628516      5.7628516      2.8814258
 Leave Link  202 at Fri Jul  9 19:23:30 2021, MaxMem=  4194304000 cpu:         1.8
 (Enter /home/minenky/programs//g09/l301.exe)
 Standard basis: def2TZVP (5D, 7F)
 Ernie: Thresh=  0.10000D-02 Tol=  0.10000D-05 Strict=F.
 There are    51 symmetry adapted cartesian basis functions of AG  symmetry.
 There are    39 symmetry adapted cartesian basis functions of B1G symmetry.
 There are    15 symmetry adapted cartesian basis functions of B2G symmetry.
 There are    21 symmetry adapted cartesian basis functions of B3G symmetry.
 There are    15 symmetry adapted cartesian basis functions of AU  symmetry.
 There are    21 symmetry adapted cartesian basis functions of B1U symmetry.
 There are    51 symmetry adapted cartesian basis functions of B2U symmetry.
 There are    39 symmetry adapted cartesian basis functions of B3U symmetry.
 There are    44 symmetry adapted basis functions of AG  symmetry.
 There are    34 symmetry adapted basis functions of B1G symmetry.
 There are    14 symmetry adapted basis functions of B2G symmetry.
 There are    19 symmetry adapted basis functions of B3G symmetry.
 There are    14 symmetry adapted basis functions of AU  symmetry.
 There are    19 symmetry adapted basis functions of B1U symmetry.
 There are    44 symmetry adapted basis functions of B2U symmetry.
 There are    34 symmetry adapted basis functions of B3U symmetry.
   222 basis functions,   354 primitive gaussians,   252 cartesian basis functions
    21 alpha electrons       21 beta electrons
       nuclear repulsion energy       204.5051608839 Hartrees.
 IExCor= 4639 DFT=T Ex+Corr=wB97XD ExCW=0 ScaHFX=  1.000000
 ScaDFX=  1.000000  1.000000  1.000000  1.000000 ScalE2=  1.000000  1.000000
 IRadAn=      5 IRanWt=     -1 IRanGd=            0 ICorTp=0 IEmpDi=121
  HFx wShort=  0.000000 wLong=  0.200000 cFull=  0.222036 cShort=  0.000000 cLong=  0.777964
  DFx wShort=  0.000000 wLong=  0.200000 cFull=  0.000000 cShort=  0.000000 cLong=  1.000000
 NAtoms=   12 NActive=   12 NUniq=    2 SFac= 4.00D+00 NAtFMM=   60 NAOKFM=F Big=F
 Integral buffers will be    131072 words long.
 Raffenetti 2 integral format.
 Two-electron integral symmetry is turned on.
 R6Disp:  Grimme-D2 Dispersion energy=       -0.0041892503 Hartrees.
 Nuclear repulsion after empirical dispersion term =      204.5009716336 Hartrees.
 Leave Link  301 at Fri Jul  9 19:23:30 2021, MaxMem=  4194304000 cpu:         0.3
 (Enter /home/minenky/programs//g09/l302.exe)
 NPDir=0 NMtPBC=     1 NCelOv=     1 NCel=       1 NClECP=     1 NCelD=      1
         NCelK=      1 NCelE2=     1 NClLst=     1 CellRange=     0.0.
 One-electron integrals computed using PRISM.
 One-electron integral symmetry used in STVInt
  24 Symmetry operations used in ECPInt.
 ECPInt:  NShTT=    4095 NPrTT=   12396 LenC2=    4075 LenP2D=   10437.
 LDataN:  DoStor=T MaxTD1= 6 Len=  172
 NBasis=   222 RedAO= T EigKep=  8.24D-06  NBF=    44    34    14    19    14    19    44    34
 NBsUse=   222 1.00D-06 EigRej= -1.00D+00 NBFU=    44    34    14    19    14    19    44    34
 Precomputing XC quadrature grid using
 IXCGrd= 4 IRadAn=           5 IRanWt=          -1 IRanGd=           0 AccXCQ= 0.00D+00.
 Generated NRdTot=       0 NPtTot=           0 NUsed=           0 NTot=          32
 NSgBfM=   251   251   251   251   251 MxSgAt=    12 MxSgA2=    12.
 Leave Link  302 at Fri Jul  9 19:23:46 2021, MaxMem=  4194304000 cpu:       195.6
 (Enter /home/minenky/programs//g09/l303.exe)
 DipDrv:  MaxL=1.
 Leave Link  303 at Fri Jul  9 19:23:46 2021, MaxMem=  4194304000 cpu:         2.6
 (Enter /home/minenky/programs//g09/l401.exe)
 Initial guess from the checkpoint file:  "m1_00_C6H6_wB97XD.chk"
 B after Tr=     0.000000    0.000000    0.000000
         Rot=    1.000000    0.000000    0.000000    0.000000 Ang=   0.00 deg.
 Guess basis will be translated and rotated to current coordinates.
 JPrj=2 DoOrth=T DoCkMO=T.
 Initial guess orbital symmetries:
       Occupied  (A1G) (E1U) (E1U) (E2G) (E2G) (B1U) (A1G) (E1U)
                 (E1U) (E2G) (E2G) (A1G) (B1U) (B2U) (E1U) (E1U)
                 (A2U) (E2G) (E2G) (E1G) (E1G)
       Virtual   (B2G) (B2G) (B2G) (B2G) (B2G) (B2G) (B2G) (B2G)
                 (B2G) (B2G) (B2G) (B2G) (B2G) (B2G) (B2G) (B2G)
                 (B2G) (B2G) (B2G) (B2G) (B2G) (B2G) (B2G) (B2G)
                 (B2G) (B2G) (B2G) (B2G) (B2G) (B2G) (B2G) (B2G)
                 (B2G) (B2G) (B2G) (B2G) (B2G) (B2G) (B2G) (B2G)
                 (B2G) (B2G) (B2G) (B2G) (B2G) (B2G) (B2G) (B2G)
                 (B2G) (B2G) (B2G) (B2G) (B2G) (B2G) (B2G) (B2G)
                 (B2G) (B2G) (B2G) (B2G) (B2G) (B2G) (B2G) (B2G)
                 (B2G) (B2G) (B2G) (B2G) (B2G) (?A) (?A) (?A) (?A)
                 (?A) (?A) (?A) (?A) (?A) (?A) (?A) (?A) (?A) (?A)
                 (?A) (?A) (?A) (?A) (?A) (?A) (?A) (?A) (?A) (?A)
                 (?A) (?A) (?A) (?A) (?A) (?A) (?A) (?B) (?B) (?B)
                 (?B) (?B) (?B) (?B) (?B) (?B) (?B) (?B) (?B) (?B)
                 (?B) (?B) (?B) (?B) (?B) (?B) (?B) (?B) (?B) (?B)
                 (?B) (?B) (?B) (?B) (?B) (?B) (?B) (?B) (?B) (?C)
                 (?C) (?C) (?C) (?C) (?C) (?C) (?C) (?C) (?C) (?C)
                 (?C) (?C) (?C) (?C) (?C) (?C) (?C) (?C) (?C) (?C)
                 (?C) (?C) (?C) (?C) (?C) (?C) (?C) (?C) (?C) (?C)
                 (?C) (?C) (?C) (?C) (?C) (?C) (?C) (?C) (?C) (?C)
                 (?C) (?C) (?C) (?C) (?C) (?C) (?C) (?C) (?C) (?C)
                 (?C) (?C) (?C) (?C) (?C) (?C) (?C) (?C) (?C) (?C)
                 (?C) (?C) (?C) (?C) (?C) (?C) (?C) (?C)
 The electronic state of the initial guess is 1-A1G.
 Leave Link  401 at Fri Jul  9 19:23:47 2021, MaxMem=  4194304000 cpu:        11.3
 (Enter /home/minenky/programs//g09/l502.exe)
 Closed shell SCF:
 Using DIIS extrapolation, IDIIS=  1040.
 Integral symmetry usage will be decided dynamically.
 Keep R1 ints in memory in symmetry-blocked form, NReq=691967740.
 IVT=      346982 IEndB=      346982 NGot=  4194304000 MDV=  4154485550
 LenX=  4154485550 LenY=  4154421605
 Requested convergence on RMS density matrix=1.00D-08 within 380 cycles.
 Requested convergence on MAX density matrix=1.00D-06.
 Requested convergence on             energy=1.00D-06.
 No special actions if energy rises.
 FoFCou: FMM=F IPFlag=           0 FMFlag=           0 FMFlg1=           0
         NFxFlg=           0 DoJE=F BraDBF=F KetDBF=F FulRan=T
         wScrn=  0.000000 ICntrl=     600 IOpCl=  0 I1Cent=           0 NGrid=           0
         NMat0=    1 NMatS0=  24753 NMatT0=    0 NMatD0=    1 NMtDS0=    0 NMtDT0=    0
 Petite list used in FoFCou.

 Cycle   1  Pass 1  IDiag  1:
 E= -232.246575234289    
 DIIS: error= 3.16D-04 at cycle   1 NSaved=   1.
[...]
     31  0.000000D+00 -0.453000D-02  0.323221D-02  0.000000D+00 -0.134327D+00
     32  0.000000D+00  0.261241D-02  0.583066D-03  0.000000D+00 -0.365460D-01
     33  0.687039D-02  0.000000D+00  0.000000D+00  0.781779D-02  0.000000D+00
     34  0.000000D+00  0.346849D-04 -0.170180D-03  0.000000D+00  0.375890D-02
     35  0.000000D+00  0.139393D-02 -0.671846D-03  0.000000D+00  0.293655D-01
     36  0.781779D-02  0.000000D+00  0.000000D+00  0.107742D-03  0.000000D+00
               26            27            28            29            30 
     26  0.695972D+00
     27  0.000000D+00  0.137228D+00
     28 -0.121595D+00  0.000000D+00  0.286336D+00
     29 -0.130907D+00  0.000000D+00  0.131202D+00  0.134837D+00
     30  0.000000D+00 -0.373948D-01  0.000000D+00  0.000000D+00  0.261284D-01
     31  0.365460D-01  0.000000D+00  0.375890D-02 -0.293655D-01  0.000000D+00
     32 -0.342811D+00  0.000000D+00  0.242724D-02 -0.998704D-02  0.000000D+00
     33  0.000000D+00 -0.635153D-01  0.000000D+00  0.000000D+00  0.281946D-02
     34 -0.242724D-02  0.000000D+00  0.752260D-03  0.419050D-03  0.000000D+00
     35 -0.998704D-02  0.000000D+00 -0.419050D-03  0.892343D-03  0.000000D+00
     36  0.000000D+00  0.281946D-02  0.000000D+00  0.000000D+00 -0.399364D-02
               31            32            33            34            35 
     31  0.735826D+00
     32 -0.345154D-01  0.695972D+00
     33  0.000000D+00  0.000000D+00  0.137228D+00
     34 -0.271313D+00  0.121595D+00  0.000000D+00  0.286336D+00
     35  0.121595D+00 -0.130907D+00  0.000000D+00 -0.131202D+00  0.134837D+00
     36  0.000000D+00  0.000000D+00 -0.373948D-01  0.000000D+00  0.000000D+00
               36 
     36  0.261284D-01
 FormGI is forming the generalized inverse of G from B-inverse, IUseBI=4.
 Leave Link  716 at Fri Jul  9 19:31:23 2021, MaxMem=  4194304000 cpu:        19.7
 (Enter /home/minenky/programs//g09/l103.exe)

 GradGradGradGradGradGradGradGradGradGradGradGradGradGradGradGradGradGrad
 Berny optimization.
 Red2BG is reusing G-inverse.
 Internal  Forces:  Max     0.000001735 RMS     0.000000580
 Search for a local minimum.
 Step number   1 out of a maximum of    2
 All quantities printed in internal units (Hartrees-Bohrs-Radians)
 Second derivative matrix not updated -- analytic derivatives used.
 ITU=  0
     Eigenvalues ---    0.01736   0.01736   0.01817   0.02434   0.02434
     Eigenvalues ---    0.02685   0.02893   0.02893   0.02918   0.10927
     Eigenvalues ---    0.11385   0.11385   0.12173   0.12704   0.12704
     Eigenvalues ---    0.19571   0.19644   0.19644   0.27608   0.36039
     Eigenvalues ---    0.36039   0.36322   0.36322   0.36335   0.36510
     Eigenvalues ---    0.42427   0.42427   0.48380   0.48380   0.52550
 Angle between quadratic step and forces=   2.51 degrees.
 Linear search not attempted -- first point.
 Iteration  1 RMS(Cart)=  0.00000165 RMS(Int)=  0.00000000
 Iteration  2 RMS(Cart)=  0.00000000 RMS(Int)=  0.00000000
 ITry= 1 IFail=0 DXMaxC= 4.95D-06 DCOld= 1.00D+10 DXMaxT= 3.00D-01 DXLimC= 3.00D+00 Rises=F
 ClnCor:  largest displacement from symmetrization is 6.70D-12 for atom    12.
 Variable       Old X    -DE/DX   Delta X   Delta X   Delta X     New X
                                 (Linear)    (Quad)   (Total)
    R1        2.04632   0.00000   0.00000   0.00000   0.00000   2.04631
    R2        2.62161   0.00000   0.00000   0.00000   0.00000   2.62161
    R3        2.62161   0.00000   0.00000   0.00000   0.00000   2.62161
    R4        2.04632   0.00000   0.00000   0.00000   0.00000   2.04631
    R5        2.62161   0.00000   0.00000   0.00000   0.00000   2.62161
    R6        2.04632   0.00000   0.00000   0.00000   0.00000   2.04631
    R7        2.62161   0.00000   0.00000   0.00000   0.00000   2.62161
    R8        2.04632   0.00000   0.00000   0.00000   0.00000   2.04631
    R9        2.62161   0.00000   0.00000   0.00000   0.00000   2.62161
   R10        2.04632   0.00000   0.00000   0.00000   0.00000   2.04631
   R11        2.62161   0.00000   0.00000   0.00000   0.00000   2.62161
   R12        2.04632   0.00000   0.00000   0.00000   0.00000   2.04631
    A1        2.09440   0.00000   0.00000   0.00000   0.00000   2.09440
    A2        2.09440   0.00000   0.00000   0.00000   0.00000   2.09440
    A3        2.09440   0.00000   0.00000   0.00000   0.00000   2.09440
    A4        2.09440   0.00000   0.00000   0.00000   0.00000   2.09440
    A5        2.09440   0.00000   0.00000   0.00000   0.00000   2.09440
    A6        2.09440   0.00000   0.00000   0.00000   0.00000   2.09440
    A7        2.09440   0.00000   0.00000   0.00000   0.00000   2.09440
    A8        2.09440   0.00000   0.00000   0.00000   0.00000   2.09440
    A9        2.09440   0.00000   0.00000   0.00000   0.00000   2.09440
   A10        2.09440   0.00000   0.00000   0.00000   0.00000   2.09440
   A11        2.09440   0.00000   0.00000   0.00000   0.00000   2.09440
   A12        2.09440   0.00000   0.00000   0.00000   0.00000   2.09440
   A13        2.09440   0.00000   0.00000   0.00000   0.00000   2.09440
   A14        2.09440   0.00000   0.00000   0.00000   0.00000   2.09440
   A15        2.09440   0.00000   0.00000   0.00000   0.00000   2.09440
   A16        2.09440   0.00000   0.00000   0.00000   0.00000   2.09440
   A17        2.09440   0.00000   0.00000   0.00000   0.00000   2.09440
   A18        2.09440   0.00000   0.00000   0.00000   0.00000   2.09440
    D1        0.00000   0.00000   0.00000   0.00000   0.00000   0.00000
    D2        3.14159   0.00000   0.00000   0.00000   0.00000   3.14159
    D3        3.14159   0.00000   0.00000   0.00000   0.00000   3.14159
    D4        0.00000   0.00000   0.00000   0.00000   0.00000   0.00000
    D5        3.14159   0.00000   0.00000   0.00000   0.00000   3.14159
    D6        0.00000   0.00000   0.00000   0.00000   0.00000   0.00000
    D7        0.00000   0.00000   0.00000   0.00000   0.00000   0.00000
    D8        3.14159   0.00000   0.00000   0.00000   0.00000   3.14159
    D9        3.14159   0.00000   0.00000   0.00000   0.00000   3.14159
   D10        0.00000   0.00000   0.00000   0.00000   0.00000   0.00000
   D11        0.00000   0.00000   0.00000   0.00000   0.00000   0.00000
   D12        3.14159   0.00000   0.00000   0.00000   0.00000   3.14159
   D13        3.14159   0.00000   0.00000   0.00000   0.00000   3.14159
   D14        0.00000   0.00000   0.00000   0.00000   0.00000   0.00000
   D15        0.00000   0.00000   0.00000   0.00000   0.00000   0.00000
   D16        3.14159   0.00000   0.00000   0.00000   0.00000   3.14159
   D17        3.14159   0.00000   0.00000   0.00000   0.00000   3.14159
   D18        0.00000   0.00000   0.00000   0.00000   0.00000   0.00000
   D19        0.00000   0.00000   0.00000   0.00000   0.00000   0.00000
   D20        3.14159   0.00000   0.00000   0.00000   0.00000   3.14159
   D21        0.00000   0.00000   0.00000   0.00000   0.00000   0.00000
   D22        3.14159   0.00000   0.00000   0.00000   0.00000   3.14159
   D23        3.14159   0.00000   0.00000   0.00000   0.00000   3.14159
   D24        0.00000   0.00000   0.00000   0.00000   0.00000   0.00000
         Item               Value     Threshold  Converged?
 Maximum Force            0.000002     0.000015     YES
 RMS     Force            0.000001     0.000010     YES
 Maximum Displacement     0.000005     0.000060     YES
 RMS     Displacement     0.000002     0.000040     YES
 Predicted change in Energy=-2.486633D-11
 Optimization completed.
    -- Stationary point found.
                           ----------------------------
                           !   Optimized Parameters   !
                           ! (Angstroms and Degrees)  !
 --------------------------                            --------------------------
 ! Name  Definition              Value          Derivative Info.                !
 --------------------------------------------------------------------------------
 ! R1    R(1,2)                  1.0829         -DE/DX =    0.0                 !
 ! R2    R(1,3)                  1.3873         -DE/DX =    0.0                 !
 ! R3    R(1,11)                 1.3873         -DE/DX =    0.0                 !
 ! R4    R(3,4)                  1.0829         -DE/DX =    0.0                 !
 ! R5    R(3,5)                  1.3873         -DE/DX =    0.0                 !
 ! R6    R(5,6)                  1.0829         -DE/DX =    0.0                 !
 ! R7    R(5,7)                  1.3873         -DE/DX =    0.0                 !
 ! R8    R(7,8)                  1.0829         -DE/DX =    0.0                 !
 ! R9    R(7,9)                  1.3873         -DE/DX =    0.0                 !
 ! R10   R(9,10)                 1.0829         -DE/DX =    0.0                 !
 ! R11   R(9,11)                 1.3873         -DE/DX =    0.0                 !
 ! R12   R(11,12)                1.0829         -DE/DX =    0.0                 !
 ! A1    A(2,1,3)              120.0            -DE/DX =    0.0                 !
 ! A2    A(2,1,11)             120.0            -DE/DX =    0.0                 !
 ! A3    A(3,1,11)             120.0            -DE/DX =    0.0                 !
 ! A4    A(1,3,4)              120.0            -DE/DX =    0.0                 !
 ! A5    A(1,3,5)              120.0            -DE/DX =    0.0                 !
 ! A6    A(4,3,5)              120.0            -DE/DX =    0.0                 !
 ! A7    A(3,5,6)              120.0            -DE/DX =    0.0                 !
 ! A8    A(3,5,7)              120.0            -DE/DX =    0.0                 !
 ! A9    A(6,5,7)              120.0            -DE/DX =    0.0                 !
 ! A10   A(5,7,8)              120.0            -DE/DX =    0.0                 !
 ! A11   A(5,7,9)              120.0            -DE/DX =    0.0                 !
 ! A12   A(8,7,9)              120.0            -DE/DX =    0.0                 !
 ! A13   A(7,9,10)             120.0            -DE/DX =    0.0                 !
 ! A14   A(7,9,11)             120.0            -DE/DX =    0.0                 !
 ! A15   A(10,9,11)            120.0            -DE/DX =    0.0                 !
 ! A16   A(1,11,9)             120.0            -DE/DX =    0.0                 !
 ! A17   A(1,11,12)            120.0            -DE/DX =    0.0                 !
 ! A18   A(9,11,12)            120.0            -DE/DX =    0.0                 !
 ! D1    D(2,1,3,4)              0.0            -DE/DX =    0.0                 !
 ! D2    D(2,1,3,5)            180.0            -DE/DX =    0.0                 !
 ! D3    D(11,1,3,4)           180.0            -DE/DX =    0.0                 !
 ! D4    D(11,1,3,5)             0.0            -DE/DX =    0.0                 !
 ! D5    D(2,1,11,9)           180.0            -DE/DX =    0.0                 !
 ! D6    D(2,1,11,12)            0.0            -DE/DX =    0.0                 !
 ! D7    D(3,1,11,9)             0.0            -DE/DX =    0.0                 !
 ! D8    D(3,1,11,12)          180.0            -DE/DX =    0.0                 !
 ! D9    D(1,3,5,6)            180.0            -DE/DX =    0.0                 !
 ! D10   D(1,3,5,7)              0.0            -DE/DX =    0.0                 !
 ! D11   D(4,3,5,6)              0.0            -DE/DX =    0.0                 !
 ! D12   D(4,3,5,7)            180.0            -DE/DX =    0.0                 !
 ! D13   D(3,5,7,8)            180.0            -DE/DX =    0.0                 !
 ! D14   D(3,5,7,9)              0.0            -DE/DX =    0.0                 !
 ! D15   D(6,5,7,8)              0.0            -DE/DX =    0.0                 !
 ! D16   D(6,5,7,9)            180.0            -DE/DX =    0.0                 !
 ! D17   D(5,7,9,10)           180.0            -DE/DX =    0.0                 !
 ! D18   D(5,7,9,11)             0.0            -DE/DX =    0.0                 !
 ! D19   D(8,7,9,10)             0.0            -DE/DX =    0.0                 !
 ! D20   D(8,7,9,11)           180.0            -DE/DX =    0.0                 !
 ! D21   D(7,9,11,1)             0.0            -DE/DX =    0.0                 !
 ! D22   D(7,9,11,12)          180.0            -DE/DX =    0.0                 !
 ! D23   D(10,9,11,1)          180.0            -DE/DX =    0.0                 !
 ! D24   D(10,9,11,12)           0.0            -DE/DX =    0.0                 !
 --------------------------------------------------------------------------------
 GradGradGradGradGradGradGradGradGradGradGradGradGradGradGradGradGradGrad

 Leave Link  103 at Fri Jul  9 19:31:29 2021, MaxMem=  4194304000 cpu:        57.1
 (Enter /home/minenky/programs//g09/l9999.exe)
 1\1\GINC-CN506-07-R\Freq\RwB97XD\def2TZVP\C6H6\MINENKY\09-Jul-2021\0\\
 #P Geom=AllCheck Guess=TCheck SCRF=Check GenChk RwB97XD/def2TZVP Freq\
 \The PBEPBE optimization and frequencies\\0,1\C,0.,1.3872982197,0.\H,0
 .,2.4701634778,0.\C,1.2014355009,0.6936491099,0.\H,2.1392243233,1.2350
 817389,0.\C,1.2014355009,-0.6936491099,0.\H,2.1392243233,-1.2350817389
 ,0.\C,0.,-1.3872982197,0.\H,0.,-2.4701634778,0.\C,-1.2014355009,-0.693
 6491099,0.\H,-2.1392243233,-1.2350817389,0.\C,-1.2014355009,0.69364910
 99,0.\H,-2.1392243233,1.2350817389,0.\\Version=AM64L-G09RevD.01\State=
 1-A1G\HF=-232.2465925\RMSD=4.329e-10\RMSF=9.610e-07\ZeroPoint=0.101251
 8\Thermal=0.1056082\Dipole=0.,0.,0.\DipoleDeriv=-0.066453,0.,0.,0.,0.0
 947196,0.,0.,0.,-0.1375674,0.0689289,0.,0.,0.,-0.097271,0.,0.,0.,0.137
 6389,0.0544293,0.0697886,0.,0.0698166,-0.026102,0.,0.,0.,-0.1375453,-0
 .0556955,-0.0717966,0.,-0.0716711,0.0273494,0.,0.,0.,0.1375632,0.05442
 93,-0.0697886,0.,-0.0698166,-0.026102,0.,0.,0.,-0.1375453,-0.0556955,0
 .0717966,0.,0.0716711,0.0273494,0.,0.,0.,0.1375632,-0.066453,0.,0.,0.,
 0.0947196,0.,0.,0.,-0.1375674,0.0689289,0.,0.,0.,-0.097271,0.,0.,0.,0.
 1376389,0.0544293,0.0697886,0.,0.0698166,-0.026102,0.,0.,0.,-0.1375453
 ,-0.0556955,-0.0717966,0.,-0.0716711,0.0273494,0.,0.,0.,0.1375632,0.05
 44293,-0.0697886,0.,-0.0698166,-0.026102,0.,0.,0.,-0.1375453,-0.055695
 5,0.0717966,0.,0.0716711,0.0273494,0.,0.,0.,0.1375632\Polar=77.0698528
 ,0.,77.0480432,0.,0.,38.6345342\PG=D06H [3C2'(H1C1.C1H1)]\NImag=0\\0.6
 7604406,0.,0.75575397,0.,0.,0.13722760,-0.06070366,0.,0.,0.05908790,0.
 ,-0.34151586,0.,0.,0.36208603,0.,0.,-0.03739479,0.,0.,0.02612836,-0.29
 068995,0.12682238,0.,0.00511404,-0.00320964,0.,0.73582650,0.05373042,-
 0.18644774,0.,0.02858308,-0.01134218,0.,0.03451540,0.69597154,0.,0.,-0
 .06351528,0.,0.,0.00281946,0.,0.,0.13722760,-0.01821515,-0.01667875,0.
 ,0.00085732,0.00035839,0.,-0.27131281,-0.12159525,0.,0.28633650,0.0151
 1396,0.01198701,0.,-0.00047971,0.00078728,0.,-0.12159525,-0.13090671,0
 .,0.13120204,0.13483743,0.,0.,0.00281946,0.,0.,-0.00399364,0.,0.,-0.03
 739479,0.,0.,0.02612836,0.04038555,0.03025529,0.,-0.00453000,0.0032322
 1,0.,-0.13432663,0.03654598,0.,0.00375890,-0.02936547,0.,0.73582650,0.
 08559812,-0.02650245,0.,0.00261241,0.00058307,0.,-0.03654598,-0.342811
 05,0.,0.00242724,-0.00998704,0.,-0.03451540,0.69597154,0.,0.,0.0068703
 9,0.,0.,0.00781779,0.,0.,-0.06351528,0.,0.,0.00281946,0.,0.,0.13722760
 ,0.00183559,-0.00044297,0.,0.00003468,-0.00017018,0.,0.00375890,-0.002
 42724,0.,0.00075226,0.00041905,0.,-0.27131281,0.12159525,0.,0.28633650
 ,-0.00106277,-0.00578253,0.,0.00139393,-0.00067185,0.,0.02936547,-0.00
 998704,0.,-0.00041905,0.00089234,0.,0.12159525,-0.13090671,0.,-0.13120
 204,0.13483743,0.,0.,0.00781779,0.,0.,0.00010774,0.,0.,0.00281946,0.,0
 .,-0.00399364,0.,0.,-0.03739479,0.,0.,0.02612836,-0.08054626,0.,0.,-0.
 00147140,0.,0.,0.04038555,-0.08559812,0.,0.00183559,0.00106277,0.,-0.2
 9068995,-0.05373042,0.,-0.01821515,-0.01511396,0.,0.67604406,0.,-0.001
 47506,0.,0.,0.00078353,0.,-0.03025529,-0.02650245,0.,0.00044297,-0.005
 78253,0.,-0.12682238,-0.18644774,0.,0.01667875,0.01198701,0.,0.,0.7557
 5397,0.,0.,-0.00684844,0.,0.,-0.00098159,0.,0.,0.00687039,0.,0.,0.0078
 1779,0.,0.,-0.06351528,0.,0.,0.00281946,0.,0.,0.13722760,-0.00147140,0
 .,0.,0.00012460,0.,0.,-0.00453000,-0.00261241,0.,0.00003468,-0.0013939
 3,0.,0.00511404,-0.02858308,0.,0.00085732,0.00047971,0.,-0.06070366,0.
 ,0.,0.05908790,0.,0.00078353,0.,0.,-0.00006589,0.,-0.00323221,0.000583
 07,0.,0.00017018,-0.00067185,0.,0.00320964,-0.01134218,0.,-0.00035839,
 0.00078728,0.,0.,-0.34151586,0.,0.,0.36208603,0.,0.,-0.00098159,0.,0.,
 -0.00124218,0.,0.,0.00781779,0.,0.,0.00010774,0.,0.,0.00281946,0.,0.,-
 0.00399364,0.,0.,-0.03739479,0.,0.,0.02612836,0.04038555,-0.03025529,0
 .,-0.00453000,-0.00323221,0.,-0.02124286,0.03423883,0.,0.00021980,0.00
 097641,0.,-0.05994645,-0.02767141,0.,-0.00322599,-0.00336528,0.,-0.290
 68995,0.12682238,0.,0.00511404,-0.00320964,0.,0.73582650,-0.08559812,-
 0.02650245,0.,-0.00261241,0.00058307,0.,0.03423883,-0.06077846,0.,0.00
 097641,-0.00090767,0.,0.02767141,0.07382955,0.,-0.00398508,-0.00072094
 ,0.,0.05373042,-0.18644774,0.,0.02858308,-0.01134218,0.,0.03451540,0.6
 9597154,0.,0.,0.00687039,0.,0.,0.00781779,0.,0.,-0.00684844,0.,0.,-0.0
 0098159,0.,0.,0.00687039,0.,0.,0.00781779,0.,0.,-0.06351528,0.,0.,0.00
 281946,0.,0.,0.13722760,0.00183559,0.00044297,0.,0.00003468,0.00017018
 ,0.,0.00021980,0.00097641,0.,-0.00001827,-0.00008248,0.,-0.00322599,0.
 00398508,0.,-0.00102511,-0.00078205,0.,-0.01821515,-0.01667875,0.,0.00
 085732,0.00035839,0.,-0.27131281,-0.12159525,0.,0.28633650,0.00106277,
 -0.00578253,0.,-0.00139393,-0.00067185,0.,0.00097641,-0.00090767,0.,-0
 .00008248,0.00007698,0.,0.00336528,-0.00072094,0.,0.00078205,0.0003879
 5,0.,0.01511396,0.01198701,0.,-0.00047971,0.00078728,0.,-0.12159525,-0
 .13090671,0.,0.13120204,0.13483743,0.,0.,0.00781779,0.,0.,0.00010774,0
 .,0.,-0.00098159,0.,0.,-0.00124218,0.,0.,0.00781779,0.,0.,0.00010774,0
 .,0.,0.00281946,0.,0.,-0.00399364,0.,0.,-0.03739479,0.,0.,0.02612836,-
 0.29068995,-0.12682238,0.,0.00511404,0.00320964,0.,-0.05994645,0.02767
 141,0.,-0.00322599,0.00336528,0.,-0.02124286,-0.03423883,0.,0.00021980
 ,-0.00097641,0.,0.04038555,0.03025529,0.,-0.00453000,0.00323221,0.,-0.
 13432663,0.03654598,0.,0.00375890,-0.02936547,0.,0.73582650,-0.0537304
 2,-0.18644774,0.,-0.02858308,-0.01134218,0.,-0.02767141,0.07382955,0.,
 0.00398508,-0.00072094,0.,-0.03423883,-0.06077846,0.,-0.00097641,-0.00
 090767,0.,0.08559812,-0.02650245,0.,0.00261241,0.00058307,0.,-0.036545
 98,-0.34281105,0.,0.00242724,-0.00998704,0.,-0.03451540,0.69597154,0.,
 0.,-0.06351528,0.,0.,0.00281946,0.,0.,0.00687039,0.,0.,0.00781779,0.,0
 .,-0.00684844,0.,0.,-0.00098159,0.,0.,0.00687039,0.,0.,0.00781779,0.,0
 .,-0.06351528,0.,0.,0.00281946,0.,0.,0.13722760,-0.01821515,0.01667875
 ,0.,0.00085732,-0.00035839,0.,-0.00322599,-0.00398508,0.,-0.00102511,0
 .00078205,0.,0.00021980,-0.00097641,0.,-0.00001827,0.00008248,0.,0.001
 83559,-0.00044297,0.,0.00003468,-0.00017018,0.,0.00375890,-0.00242724,
 0.,0.00075226,0.00041905,0.,-0.27131281,0.12159525,0.,0.28633650,-0.01
 511396,0.01198701,0.,0.00047971,0.00078728,0.,-0.00336528,-0.00072094,
 0.,-0.00078205,0.00038795,0.,-0.00097641,-0.00090767,0.,0.00008248,0.0
 0007698,0.,-0.00106277,-0.00578253,0.,0.00139393,-0.00067185,0.,0.0293
 6547,-0.00998704,0.,-0.00041905,0.00089234,0.,0.12159525,-0.13090671,0
 .,-0.13120204,0.13483743,0.,0.,0.00281946,0.,0.,-0.00399364,0.,0.,0.00
 781779,0.,0.,0.00010774,0.,0.,-0.00098159,0.,0.,-0.00124218,0.,0.,0.00
 781779,0.,0.,0.00010774,0.,0.,0.00281946,0.,0.,-0.00399364,0.,0.,-0.03
 739479,0.,0.,0.02612836\\0.,-0.00000159,0.,0.,0.00000173,0.,-0.0000013
 8,-0.00000080,0.,0.00000150,0.00000087,0.,-0.00000138,0.00000080,0.,0.
 00000150,-0.00000087,0.,0.,0.00000159,0.,0.,-0.00000173,0.,0.00000138,
 0.00000080,0.,-0.00000150,-0.00000087,0.,0.00000138,-0.00000080,0.,-0.
 00000150,0.00000087,0.\\\@


 TO ERR IS HUMAN - AND TO BLAME IT ON A COMPUTER IS EVEN MORE SO.
 Job cpu time:       0 days  1 hours  2 minutes 28.4 seconds.
 File lengths (MBytes):  RWF=     28 Int=      0 D2E=      0 Chk=      5 Scr=      1
 Normal termination of Gaussian 09 at Fri Jul  9 19:31:29 2021.
