 Entering Gaussian System, Link 0=g09
 Initial command:
 /home/minenky/programs//g09/l1.exe "/local/scratch/minenky/m1_00_75459-09-5-C32H16_wB97XD/Gau-33788.inp" -scrdir="/local/scratch/minenky/m1_00_75459-09-5-C32H16_wB97XD/"
 Entering Link 1 = /home/minenky/programs//g09/l1.exe PID=     33789.
  
 Copyright (c) 1988,1990,1992,1993,1995,1998,2003,2009,2013,
            Gaussian, Inc.  All Rights Reserved.
  
 This is part of the Gaussian(R) 09 program.  It is based on
 the Gaussian(R) 03 system (copyright 2003, Gaussian, Inc.),
 the Gaussian(R) 98 system (copyright 1998, Gaussian, Inc.),
 the Gaussian(R) 94 system (copyright 1995, Gaussian, Inc.),
 the Gaussian 92(TM) system (copyright 1992, Gaussian, Inc.),
 the Gaussian 90(TM) system (copyright 1990, Gaussian, Inc.),
 the Gaussian 88(TM) system (copyright 1988, Gaussian, Inc.),
 the Gaussian 86(TM) system (copyright 1986, Carnegie Mellon
 University), and the Gaussian 82(TM) system (copyright 1983,
 Carnegie Mellon University). Gaussian is a federally registered
 trademark of Gaussian, Inc.
  
 This software contains proprietary and confidential information,
 including trade secrets, belonging to Gaussian, Inc.
  
 This software is provided under written license and may be
 used, copied, transmitted, or stored only in accord with that
 written license.
  
 The following legend is applicable only to US Government
 contracts under FAR:
  
                    RESTRICTED RIGHTS LEGEND
  
 Use, reproduction and disclosure by the US Government is
 subject to restrictions as set forth in subparagraphs (a)
 and (c) of the Commercial Computer Software - Restricted
 Rights clause in FAR 52.227-19.
  
 Gaussian, Inc.
 340 Quinnipiac St., Bldg. 40, Wallingford CT 06492
  
  
 ---------------------------------------------------------------
 Warning -- This program may not be used in any manner that
 competes with the business of Gaussian, Inc. or will provide
 assistance to any competitor of Gaussian, Inc.  The licensee
 of this program is prohibited from giving any competitor of
 Gaussian, Inc. access to this program.  By using this program,
 the user acknowledges that Gaussian, Inc. is engaged in the
 business of creating and licensing software in the field of
 computational chemistry and represents and warrants to the
 licensee that it is not a competitor of Gaussian, Inc. and that
 it will not use this program in any manner prohibited above.
 ---------------------------------------------------------------
  

 Cite this work as:
 Gaussian 09, Revision D.01,
 M. J. Frisch, G. W. Trucks, H. B. Schlegel, G. E. Scuseria, 
 M. A. Robb, J. R. Cheeseman, G. Scalmani, V. Barone, B. Mennucci, 
 G. A. Petersson, H. Nakatsuji, M. Caricato, X. Li, H. P. Hratchian, 
 A. F. Izmaylov, J. Bloino, G. Zheng, J. L. Sonnenberg, M. Hada, 
 M. Ehara, K. Toyota, R. Fukuda, J. Hasegawa, M. Ishida, T. Nakajima, 
 Y. Honda, O. Kitao, H. Nakai, T. Vreven, J. A. Montgomery, Jr., 
 J. E. Peralta, F. Ogliaro, M. Bearpark, J. J. Heyd, E. Brothers, 
 K. N. Kudin, V. N. Staroverov, T. Keith, R. Kobayashi, J. Normand, 
 K. Raghavachari, A. Rendell, J. C. Burant, S. S. Iyengar, J. Tomasi, 
 M. Cossi, N. Rega, J. M. Millam, M. Klene, J. E. Knox, J. B. Cross, 
 V. Bakken, C. Adamo, J. Jaramillo, R. Gomperts, R. E. Stratmann, 
 O. Yazyev, A. J. Austin, R. Cammi, C. Pomelli, J. W. Ochterski, 
 R. L. Martin, K. Morokuma, V. G. Zakrzewski, G. A. Voth, 
 P. Salvador, J. J. Dannenberg, S. Dapprich, A. D. Daniels, 
 O. Farkas, J. B. Foresman, J. V. Ortiz, J. Cioslowski, 
 and D. J. Fox, Gaussian, Inc., Wallingford CT, 2013.
 
 ******************************************
 Gaussian 09:  AM64L-G09RevD.01 24-Apr-2013
                27-Jul-2019 
 ******************************************
 %Mem=32000MB
 %NProcShared=16
 Will use up to   16 processors via shared memory.
 %Chk=m1_00_75459-09-5-C32H16_wB97XD
 ----------------------------------------------------------------------
 #P wB97XD/def2tzvp opt=(tight) freq integral(Grid=ultrafine) # SCF(Max
 Cycle=380) 5d 7f GFPrint
 ----------------------------------------------------------------------
 1/7=10,14=-1,18=20,19=15,26=4,38=1/1,3;
 2/9=110,12=2,17=6,18=5,40=1/2;
 3/5=44,7=101,8=11,11=2,16=1,24=100,25=1,30=1,71=1,74=-58,75=-5/1,2,3;
 4//1;
 5/5=2,7=380,38=5/2;
 6/7=2,8=2,9=2,10=2,28=1/1;
 7//1,2,3,16;
 1/7=10,14=-1,18=20,19=15,26=4/3(2);
 2/9=110/2;
 99//99;
 2/9=110/2;
 3/5=44,7=101,8=11,11=2,16=1,25=1,30=1,71=1,74=-58,75=-5/1,2,3;
 4/5=5,16=3,69=1/1;
 5/5=2,7=380,38=5/2;
 7//1,2,3,16;
 1/7=10,14=-1,18=20,19=15,26=4/3(-5);
 2/9=110/2;
 6/7=2,8=2,9=2,10=2,19=2,28=1/1;
 99/9=1/99;
 Leave Link    1 at Sat Jul 27 16:54:24 2019, MaxMem=  4194304000 cpu:         0.8
 (Enter /home/minenky/programs//g09/l101.exe)
 ---------------------------------------
 The PBEPBE optimization and frequencies
 ---------------------------------------
 Symbolic Z-matrix:
 Charge =  0 Multiplicity = 1
 C                     3.69745   2.37586   0. 
 C                     2.92231   3.52672   0. 
 C                     1.53819   3.43388   0. 
 C                     3.09905   1.11194   0. 
 C                     1.83913  -1.45573   0. 
 C                    -0.17544  -2.79802   0. 
 C                     1.20113  -2.7054    0. 
 C                    -0.97313  -1.64445   0. 
 C                    -1.35213   3.23958   0. 
 C                    -2.72393   3.14904   0. 
 C                     1.05823  -0.28562   0. 
 C                     1.69066   1.01085   0. 
 C                     0.90682   2.18579   0. 
 C                    -0.54358   2.08316   0. 
 C                    -1.15095   0.82179   0. 
 C                    -0.35425  -0.38162   0. 
 C                     3.90886  -0.0971    0. 
 C                     3.28989  -1.35818   0. 
 C                     4.0901   -2.51522   0. 
 C                     5.46767  -2.42408   0. 
 C                     6.08386  -1.16893   0. 
 C                     5.31355  -0.02312   0. 
 C                    -2.42555  -1.74704   0. 
 C                    -5.23032  -1.90728   0. 
 C                    -4.46384  -3.05781   0. 
 C                    -3.07057  -2.98072   0. 
 C                    -4.6097   -0.64704   0. 
 C                    -3.20182  -0.56331   0. 
 C                    -2.56705   0.72373   0. 
 C                    -3.35387   1.88824   0. 
 C                    -4.78572   1.77558   0. 
 C                    -5.38718   0.56178   0. 
 H                     4.79588   2.44749   0. 
 H                     3.40422   4.50993   0. 
 H                     0.92065   4.34508   0. 
 H                    -0.66897  -3.78233   0. 
 H                     1.81806  -3.6172    0. 
 H                    -0.85916   4.22405   0. 
 H                    -3.33908   4.05612   0. 
 H                     3.59706  -3.49941   0. 
 H                     6.07967  -3.33184   0. 
 H                     7.17635  -1.09796   0. 
 H                     5.79116   0.96868   0. 
 H                    -6.32438  -1.96995   0. 
 H                    -4.94874  -4.03968   0. 
 H                    -2.465    -3.90009   0. 
 H                    -5.37705   2.69846   0. 
 H                    -6.4797    0.47347   0. 
 
 NAtoms=     48 NQM=       48 NQMF=       0 NMMI=      0 NMMIF=      0
                NMic=       0 NMicF=      0.
                    Isotopes and Nuclear Properties:
 (Nuclear quadrupole moments (NQMom) in fm**2, nuclear magnetic moments (NMagM)
  in nuclear magnetons)

  Atom         1           2           3           4           5           6           7           8           9          10
 IAtWgt=          12          12          12          12          12          12          12          12          12          12
 AtmWgt=  12.0000000  12.0000000  12.0000000  12.0000000  12.0000000  12.0000000  12.0000000  12.0000000  12.0000000  12.0000000
 NucSpn=           0           0           0           0           0           0           0           0           0           0
 AtZEff=   0.0000000   0.0000000   0.0000000   0.0000000   0.0000000   0.0000000   0.0000000   0.0000000   0.0000000   0.0000000
 NQMom=    0.0000000   0.0000000   0.0000000   0.0000000   0.0000000   0.0000000   0.0000000   0.0000000   0.0000000   0.0000000
 NMagM=    0.0000000   0.0000000   0.0000000   0.0000000   0.0000000   0.0000000   0.0000000   0.0000000   0.0000000   0.0000000
 AtZNuc=   6.0000000   6.0000000   6.0000000   6.0000000   6.0000000   6.0000000   6.0000000   6.0000000   6.0000000   6.0000000

  Atom        11          12          13          14          15          16          17          18          19          20
 IAtWgt=          12          12          12          12          12          12          12          12          12          12
 AtmWgt=  12.0000000  12.0000000  12.0000000  12.0000000  12.0000000  12.0000000  12.0000000  12.0000000  12.0000000  12.0000000
 NucSpn=           0           0           0           0           0           0           0           0           0           0
 AtZEff=   0.0000000   0.0000000   0.0000000   0.0000000   0.0000000   0.0000000   0.0000000   0.0000000   0.0000000   0.0000000
 NQMom=    0.0000000   0.0000000   0.0000000   0.0000000   0.0000000   0.0000000   0.0000000   0.0000000   0.0000000   0.0000000
 NMagM=    0.0000000   0.0000000   0.0000000   0.0000000   0.0000000   0.0000000   0.0000000   0.0000000   0.0000000   0.0000000
 AtZNuc=   6.0000000   6.0000000   6.0000000   6.0000000   6.0000000   6.0000000   6.0000000   6.0000000   6.0000000   6.0000000

  Atom        21          22          23          24          25          26          27          28          29          30
 IAtWgt=          12          12          12          12          12          12          12          12          12          12
 AtmWgt=  12.0000000  12.0000000  12.0000000  12.0000000  12.0000000  12.0000000  12.0000000  12.0000000  12.0000000  12.0000000
 NucSpn=           0           0           0           0           0           0           0           0           0           0
 AtZEff=   0.0000000   0.0000000   0.0000000   0.0000000   0.0000000   0.0000000   0.0000000   0.0000000   0.0000000   0.0000000
 NQMom=    0.0000000   0.0000000   0.0000000   0.0000000   0.0000000   0.0000000   0.0000000   0.0000000   0.0000000   0.0000000
 NMagM=    0.0000000   0.0000000   0.0000000   0.0000000   0.0000000   0.0000000   0.0000000   0.0000000   0.0000000   0.0000000
 AtZNuc=   6.0000000   6.0000000   6.0000000   6.0000000   6.0000000   6.0000000   6.0000000   6.0000000   6.0000000   6.0000000

  Atom        31          32          33          34          35          36          37          38          39          40
 IAtWgt=          12          12           1           1           1           1           1           1           1           1
 AtmWgt=  12.0000000  12.0000000   1.0078250   1.0078250   1.0078250   1.0078250   1.0078250   1.0078250   1.0078250   1.0078250
 NucSpn=           0           0           1           1           1           1           1           1           1           1
 AtZEff=   0.0000000   0.0000000   0.0000000   0.0000000   0.0000000   0.0000000   0.0000000   0.0000000   0.0000000   0.0000000
 NQMom=    0.0000000   0.0000000   0.0000000   0.0000000   0.0000000   0.0000000   0.0000000   0.0000000   0.0000000   0.0000000
 NMagM=    0.0000000   0.0000000   2.7928460   2.7928460   2.7928460   2.7928460   2.7928460   2.7928460   2.7928460   2.7928460
 AtZNuc=   6.0000000   6.0000000   1.0000000   1.0000000   1.0000000   1.0000000   1.0000000   1.0000000   1.0000000   1.0000000

  Atom        41          42          43          44          45          46          47          48
 IAtWgt=           1           1           1           1           1           1           1           1
 AtmWgt=   1.0078250   1.0078250   1.0078250   1.0078250   1.0078250   1.0078250   1.0078250   1.0078250
 NucSpn=           1           1           1           1           1           1           1           1
 AtZEff=   0.0000000   0.0000000   0.0000000   0.0000000   0.0000000   0.0000000   0.0000000   0.0000000
 NQMom=    0.0000000   0.0000000   0.0000000   0.0000000   0.0000000   0.0000000   0.0000000   0.0000000
 NMagM=    2.7928460   2.7928460   2.7928460   2.7928460   2.7928460   2.7928460   2.7928460   2.7928460
 AtZNuc=   1.0000000   1.0000000   1.0000000   1.0000000   1.0000000   1.0000000   1.0000000   1.0000000
 Leave Link  101 at Sat Jul 27 16:54:24 2019, MaxMem=  4194304000 cpu:         8.8
 (Enter /home/minenky/programs//g09/l103.exe)

 GradGradGradGradGradGradGradGradGradGradGradGradGradGradGradGradGradGrad
 Berny optimization.
 Initialization pass.
                           ----------------------------
                           !    Initial Parameters    !
                           ! (Angstroms and Degrees)  !
 --------------------------                            --------------------------
 ! Name  Definition              Value          Derivative Info.                !
 --------------------------------------------------------------------------------
 ! R1    R(1,2)                  1.3876         estimate D2E/DX2                !
 ! R2    R(1,4)                  1.3984         estimate D2E/DX2                !
 ! R3    R(1,33)                 1.1008         estimate D2E/DX2                !
 ! R4    R(2,3)                  1.3872         estimate D2E/DX2                !
 ! R5    R(2,34)                 1.095          estimate D2E/DX2                !
 ! R6    R(3,13)                 1.3987         estimate D2E/DX2                !
 ! R7    R(3,35)                 1.1007         estimate D2E/DX2                !
 ! R8    R(4,12)                 1.412          estimate D2E/DX2                !
 ! R9    R(4,17)                 1.4552         estimate D2E/DX2                !
 ! R10   R(5,7)                  1.4031         estimate D2E/DX2                !
 ! R11   R(5,11)                 1.4068         estimate D2E/DX2                !
 ! R12   R(5,18)                 1.454          estimate D2E/DX2                !
 ! R13   R(6,7)                  1.3797         estimate D2E/DX2                !
 ! R14   R(6,8)                  1.4025         estimate D2E/DX2                !
 ! R15   R(6,36)                 1.1011         estimate D2E/DX2                !
 ! R16   R(7,37)                 1.1009         estimate D2E/DX2                !
 ! R17   R(8,16)                 1.4063         estimate D2E/DX2                !
 ! R18   R(8,23)                 1.456          estimate D2E/DX2                !
 ! R19   R(9,10)                 1.3748         estimate D2E/DX2                !
 ! R20   R(9,14)                 1.411          estimate D2E/DX2                !
 ! R21   R(9,38)                 1.101          estimate D2E/DX2                !
 ! R22   R(10,30)                1.4094         estimate D2E/DX2                !
 ! R23   R(10,39)                1.096          estimate D2E/DX2                !
 ! R24   R(11,12)                1.4425         estimate D2E/DX2                !
 ! R25   R(11,16)                1.4157         estimate D2E/DX2                !
 ! R26   R(12,13)                1.4124         estimate D2E/DX2                !
 ! R27   R(13,14)                1.454          estimate D2E/DX2                !
 ! R28   R(14,15)                1.4            estimate D2E/DX2                !
 ! R29   R(15,16)                1.4432         estimate D2E/DX2                !
 ! R30   R(15,29)                1.4195         estimate D2E/DX2                !
 ! R31   R(17,18)                1.4048         estimate D2E/DX2                !
 ! R32   R(17,22)                1.4066         estimate D2E/DX2                !
 ! R33   R(18,19)                1.4068         estimate D2E/DX2                !
 ! R34   R(19,20)                1.3806         estimate D2E/DX2                !
 ! R35   R(19,40)                1.1008         estimate D2E/DX2                !
 ! R36   R(20,21)                1.3982         estimate D2E/DX2                !
 ! R37   R(20,41)                1.0948         estimate D2E/DX2                !
 ! R38   R(21,22)                1.3807         estimate D2E/DX2                !
 ! R39   R(21,42)                1.0948         estimate D2E/DX2                !
 ! R40   R(22,43)                1.1008         estimate D2E/DX2                !
 ! R41   R(23,26)                1.3921         estimate D2E/DX2                !
 ! R42   R(23,28)                1.4156         estimate D2E/DX2                !
 ! R43   R(24,25)                1.3825         estimate D2E/DX2                !
 ! R44   R(24,27)                1.4048         estimate D2E/DX2                !
 ! R45   R(24,44)                1.0959         estimate D2E/DX2                !
 ! R46   R(25,26)                1.3954         estimate D2E/DX2                !
 ! R47   R(25,45)                1.0951         estimate D2E/DX2                !
 ! R48   R(26,46)                1.1009         estimate D2E/DX2                !
 ! R49   R(27,28)                1.4104         estimate D2E/DX2                !
 ! R50   R(27,32)                1.4373         estimate D2E/DX2                !
 ! R51   R(28,29)                1.4351         estimate D2E/DX2                !
 ! R52   R(29,30)                1.4054         estimate D2E/DX2                !
 ! R53   R(30,31)                1.4363         estimate D2E/DX2                !
 ! R54   R(31,32)                1.3546         estimate D2E/DX2                !
 ! R55   R(31,47)                1.0961         estimate D2E/DX2                !
 ! R56   R(32,48)                1.0961         estimate D2E/DX2                !
 ! A1    A(2,1,4)              120.7031         estimate D2E/DX2                !
 ! A2    A(2,1,33)             120.2304         estimate D2E/DX2                !
 ! A3    A(4,1,33)             119.0664         estimate D2E/DX2                !
 ! A4    A(1,2,3)              120.1241         estimate D2E/DX2                !
 ! A5    A(1,2,34)             119.9266         estimate D2E/DX2                !
 ! A6    A(3,2,34)             119.9493         estimate D2E/DX2                !
 ! A7    A(2,3,13)             120.6709         estimate D2E/DX2                !
 ! A8    A(2,3,35)             120.2884         estimate D2E/DX2                !
 ! A9    A(13,3,35)            119.0407         estimate D2E/DX2                !
 ! A10   A(1,4,12)             119.4407         estimate D2E/DX2                !
 ! A11   A(1,4,17)             120.8507         estimate D2E/DX2                !
 ! A12   A(12,4,17)            119.7086         estimate D2E/DX2                !
 ! A13   A(7,5,11)             119.2362         estimate D2E/DX2                !
 ! A14   A(7,5,18)             120.8927         estimate D2E/DX2                !
 ! A15   A(11,5,18)            119.8712         estimate D2E/DX2                !
 ! A16   A(7,6,8)              120.8145         estimate D2E/DX2                !
 ! A17   A(7,6,36)             120.4784         estimate D2E/DX2                !
 ! A18   A(8,6,36)             118.7071         estimate D2E/DX2                !
 ! A19   A(5,7,6)              120.895          estimate D2E/DX2                !
 ! A20   A(5,7,37)             118.872          estimate D2E/DX2                !
 ! A21   A(6,7,37)             120.2331         estimate D2E/DX2                !
 ! A22   A(6,8,16)             119.2281         estimate D2E/DX2                !
 ! A23   A(6,8,23)             120.6233         estimate D2E/DX2                !
 ! A24   A(16,8,23)            120.1486         estimate D2E/DX2                !
 ! A25   A(10,9,14)            121.1846         estimate D2E/DX2                !
 ! A26   A(10,9,38)            120.3752         estimate D2E/DX2                !
 ! A27   A(14,9,38)            118.4403         estimate D2E/DX2                !
 ! A28   A(9,10,30)            120.3243         estimate D2E/DX2                !
 ! A29   A(9,10,39)            120.3679         estimate D2E/DX2                !
 ! A30   A(30,10,39)           119.3078         estimate D2E/DX2                !
 ! A31   A(5,11,12)            120.2783         estimate D2E/DX2                !
 ! A32   A(5,11,16)            119.8299         estimate D2E/DX2                !
 ! A33   A(12,11,16)           119.8918         estimate D2E/DX2                !
 ! A34   A(4,12,11)            120.1091         estimate D2E/DX2                !
 ! A35   A(4,12,13)            119.603          estimate D2E/DX2                !
 ! A36   A(11,12,13)           120.2879         estimate D2E/DX2                !
 ! A37   A(3,13,12)            119.4582         estimate D2E/DX2                !
 ! A38   A(3,13,14)            120.8804         estimate D2E/DX2                !
 ! A39   A(12,13,14)           119.6614         estimate D2E/DX2                !
 ! A40   A(9,14,13)            120.9134         estimate D2E/DX2                !
 ! A41   A(9,14,15)            119.3283         estimate D2E/DX2                !
 ! A42   A(13,14,15)           119.7584         estimate D2E/DX2                !
 ! A43   A(14,15,16)           120.7829         estimate D2E/DX2                !
 ! A44   A(14,15,29)           119.6726         estimate D2E/DX2                !
 ! A45   A(16,15,29)           119.5446         estimate D2E/DX2                !
 ! A46   A(8,16,11)            119.9964         estimate D2E/DX2                !
 ! A47   A(8,16,15)            120.3859         estimate D2E/DX2                !
 ! A48   A(11,16,15)           119.6177         estimate D2E/DX2                !
 ! A49   A(4,17,18)            120.0429         estimate D2E/DX2                !
 ! A50   A(4,17,22)            120.7991         estimate D2E/DX2                !
 ! A51   A(18,17,22)           119.1581         estimate D2E/DX2                !
 ! A52   A(5,18,17)            119.99           estimate D2E/DX2                !
 ! A53   A(5,18,19)            120.821          estimate D2E/DX2                !
 ! A54   A(17,18,19)           119.189          estimate D2E/DX2                !
 ! A55   A(18,19,20)           120.8826         estimate D2E/DX2                !
 ! A56   A(18,19,40)           118.7228         estimate D2E/DX2                !
 ! A57   A(20,19,40)           120.3945         estimate D2E/DX2                !
 ! A58   A(19,20,21)           119.933          estimate D2E/DX2                !
 ! A59   A(19,20,41)           120.202          estimate D2E/DX2                !
 ! A60   A(21,20,41)           119.865          estimate D2E/DX2                !
 ! A61   A(20,21,22)           119.94           estimate D2E/DX2                !
 ! A62   A(20,21,42)           119.8648         estimate D2E/DX2                !
 ! A63   A(22,21,42)           120.1952         estimate D2E/DX2                !
 ! A64   A(17,22,21)           120.8973         estimate D2E/DX2                !
 ! A65   A(17,22,43)           118.7286         estimate D2E/DX2                !
 ! A66   A(21,22,43)           120.3741         estimate D2E/DX2                !
 ! A67   A(8,23,26)            121.6429         estimate D2E/DX2                !
 ! A68   A(8,23,28)            119.2155         estimate D2E/DX2                !
 ! A69   A(26,23,28)           119.1415         estimate D2E/DX2                !
 ! A70   A(25,24,27)           120.1105         estimate D2E/DX2                !
 ! A71   A(25,24,44)           120.3927         estimate D2E/DX2                !
 ! A72   A(27,24,44)           119.4968         estimate D2E/DX2                !
 ! A73   A(24,25,26)           120.5043         estimate D2E/DX2                !
 ! A74   A(24,25,45)           120.0461         estimate D2E/DX2                !
 ! A75   A(26,25,45)           119.4497         estimate D2E/DX2                !
 ! A76   A(23,26,25)           120.7696         estimate D2E/DX2                !
 ! A77   A(23,26,46)           119.0255         estimate D2E/DX2                !
 ! A78   A(25,26,46)           120.2049         estimate D2E/DX2                !
 ! A79   A(24,27,28)           119.6216         estimate D2E/DX2                !
 ! A80   A(24,27,32)           121.0338         estimate D2E/DX2                !
 ! A81   A(28,27,32)           119.3446         estimate D2E/DX2                !
 ! A82   A(23,28,27)           119.8525         estimate D2E/DX2                !
 ! A83   A(23,28,29)           120.4915         estimate D2E/DX2                !
 ! A84   A(27,28,29)           119.6559         estimate D2E/DX2                !
 ! A85   A(15,29,28)           120.2138         estimate D2E/DX2                !
 ! A86   A(15,29,30)           120.0842         estimate D2E/DX2                !
 ! A87   A(28,29,30)           119.702          estimate D2E/DX2                !
 ! A88   A(10,30,29)           119.406          estimate D2E/DX2                !
 ! A89   A(10,30,31)           121.0474         estimate D2E/DX2                !
 ! A90   A(29,30,31)           119.5465         estimate D2E/DX2                !
 ! A91   A(30,31,32)           120.8583         estimate D2E/DX2                !
 ! A92   A(30,31,47)           118.1501         estimate D2E/DX2                !
 ! A93   A(32,31,47)           120.9917         estimate D2E/DX2                !
 ! A94   A(27,32,31)           120.8927         estimate D2E/DX2                !
 ! A95   A(27,32,48)           118.1269         estimate D2E/DX2                !
 ! A96   A(31,32,48)           120.9803         estimate D2E/DX2                !
 ! D1    D(4,1,2,3)              0.0            estimate D2E/DX2                !
 ! D2    D(4,1,2,34)           180.0            estimate D2E/DX2                !
 ! D3    D(33,1,2,3)           180.0            estimate D2E/DX2                !
 ! D4    D(33,1,2,34)            0.0            estimate D2E/DX2                !
 ! D5    D(2,1,4,12)             0.0            estimate D2E/DX2                !
 ! D6    D(2,1,4,17)           180.0            estimate D2E/DX2                !
 ! D7    D(33,1,4,12)          180.0            estimate D2E/DX2                !
 ! D8    D(33,1,4,17)            0.0            estimate D2E/DX2                !
 ! D9    D(1,2,3,13)             0.0            estimate D2E/DX2                !
 ! D10   D(1,2,3,35)           180.0            estimate D2E/DX2                !
 ! D11   D(34,2,3,13)          180.0            estimate D2E/DX2                !
 ! D12   D(34,2,3,35)            0.0            estimate D2E/DX2                !
 ! D13   D(2,3,13,12)            0.0            estimate D2E/DX2                !
 ! D14   D(2,3,13,14)          180.0            estimate D2E/DX2                !
 ! D15   D(35,3,13,12)         180.0            estimate D2E/DX2                !
 ! D16   D(35,3,13,14)           0.0            estimate D2E/DX2                !
 ! D17   D(1,4,12,11)          180.0            estimate D2E/DX2                !
 ! D18   D(1,4,12,13)            0.0            estimate D2E/DX2                !
 ! D19   D(17,4,12,11)           0.0            estimate D2E/DX2                !
 ! D20   D(17,4,12,13)         180.0            estimate D2E/DX2                !
 ! D21   D(1,4,17,18)          180.0            estimate D2E/DX2                !
 ! D22   D(1,4,17,22)            0.0            estimate D2E/DX2                !
 ! D23   D(12,4,17,18)           0.0            estimate D2E/DX2                !
 ! D24   D(12,4,17,22)         180.0            estimate D2E/DX2                !
 ! D25   D(11,5,7,6)             0.0            estimate D2E/DX2                !
 ! D26   D(11,5,7,37)          180.0            estimate D2E/DX2                !
 ! D27   D(18,5,7,6)           180.0            estimate D2E/DX2                !
 ! D28   D(18,5,7,37)            0.0            estimate D2E/DX2                !
 ! D29   D(7,5,11,12)          180.0            estimate D2E/DX2                !
 ! D30   D(7,5,11,16)            0.0            estimate D2E/DX2                !
 ! D31   D(18,5,11,12)           0.0            estimate D2E/DX2                !
 ! D32   D(18,5,11,16)         180.0            estimate D2E/DX2                !
 ! D33   D(7,5,18,17)          180.0            estimate D2E/DX2                !
 ! D34   D(7,5,18,19)            0.0            estimate D2E/DX2                !
 ! D35   D(11,5,18,17)           0.0            estimate D2E/DX2                !
 ! D36   D(11,5,18,19)         180.0            estimate D2E/DX2                !
 ! D37   D(8,6,7,5)              0.0            estimate D2E/DX2                !
 ! D38   D(8,6,7,37)           180.0            estimate D2E/DX2                !
 ! D39   D(36,6,7,5)           180.0            estimate D2E/DX2                !
 ! D40   D(36,6,7,37)            0.0            estimate D2E/DX2                !
 ! D41   D(7,6,8,16)             0.0            estimate D2E/DX2                !
 ! D42   D(7,6,8,23)           180.0            estimate D2E/DX2                !
 ! D43   D(36,6,8,16)          180.0            estimate D2E/DX2                !
 ! D44   D(36,6,8,23)            0.0            estimate D2E/DX2                !
 ! D45   D(6,8,16,11)            0.0            estimate D2E/DX2                !
 ! D46   D(6,8,16,15)          180.0            estimate D2E/DX2                !
 ! D47   D(23,8,16,11)         180.0            estimate D2E/DX2                !
 ! D48   D(23,8,16,15)           0.0            estimate D2E/DX2                !
 ! D49   D(6,8,23,26)            0.0            estimate D2E/DX2                !
 ! D50   D(6,8,23,28)          180.0            estimate D2E/DX2                !
 ! D51   D(16,8,23,26)         180.0            estimate D2E/DX2                !
 ! D52   D(16,8,23,28)           0.0            estimate D2E/DX2                !
 ! D53   D(14,9,10,30)           0.0            estimate D2E/DX2                !
 ! D54   D(14,9,10,39)         180.0            estimate D2E/DX2                !
 ! D55   D(38,9,10,30)         180.0            estimate D2E/DX2                !
 ! D56   D(38,9,10,39)           0.0            estimate D2E/DX2                !
 ! D57   D(10,9,14,13)         180.0            estimate D2E/DX2                !
 ! D58   D(10,9,14,15)           0.0            estimate D2E/DX2                !
 ! D59   D(38,9,14,13)           0.0            estimate D2E/DX2                !
 ! D60   D(38,9,14,15)         180.0            estimate D2E/DX2                !
 ! D61   D(9,10,30,29)           0.0            estimate D2E/DX2                !
 ! D62   D(9,10,30,31)         180.0            estimate D2E/DX2                !
 ! D63   D(39,10,30,29)        180.0            estimate D2E/DX2                !
 ! D64   D(39,10,30,31)          0.0            estimate D2E/DX2                !
 ! D65   D(5,11,12,4)            0.0            estimate D2E/DX2                !
 ! D66   D(5,11,12,13)         180.0            estimate D2E/DX2                !
 ! D67   D(16,11,12,4)         180.0            estimate D2E/DX2                !
 ! D68   D(16,11,12,13)          0.0            estimate D2E/DX2                !
 ! D69   D(5,11,16,8)            0.0            estimate D2E/DX2                !
 ! D70   D(5,11,16,15)         180.0            estimate D2E/DX2                !
 ! D71   D(12,11,16,8)         180.0            estimate D2E/DX2                !
 ! D72   D(12,11,16,15)          0.0            estimate D2E/DX2                !
 ! D73   D(4,12,13,3)            0.0            estimate D2E/DX2                !
 ! D74   D(4,12,13,14)         180.0            estimate D2E/DX2                !
 ! D75   D(11,12,13,3)         180.0            estimate D2E/DX2                !
 ! D76   D(11,12,13,14)          0.0            estimate D2E/DX2                !
 ! D77   D(3,13,14,9)            0.0            estimate D2E/DX2                !
 ! D78   D(3,13,14,15)         180.0            estimate D2E/DX2                !
 ! D79   D(12,13,14,9)         180.0            estimate D2E/DX2                !
 ! D80   D(12,13,14,15)          0.0            estimate D2E/DX2                !
 ! D81   D(9,14,15,16)         180.0            estimate D2E/DX2                !
 ! D82   D(9,14,15,29)           0.0            estimate D2E/DX2                !
 ! D83   D(13,14,15,16)          0.0            estimate D2E/DX2                !
 ! D84   D(13,14,15,29)        180.0            estimate D2E/DX2                !
 ! D85   D(14,15,16,8)         180.0            estimate D2E/DX2                !
 ! D86   D(14,15,16,11)          0.0            estimate D2E/DX2                !
 ! D87   D(29,15,16,8)           0.0            estimate D2E/DX2                !
 ! D88   D(29,15,16,11)        180.0            estimate D2E/DX2                !
 ! D89   D(14,15,29,28)        180.0            estimate D2E/DX2                !
 ! D90   D(14,15,29,30)          0.0            estimate D2E/DX2                !
 ! D91   D(16,15,29,28)          0.0            estimate D2E/DX2                !
 ! D92   D(16,15,29,30)        180.0            estimate D2E/DX2                !
 ! D93   D(4,17,18,5)            0.0            estimate D2E/DX2                !
 ! D94   D(4,17,18,19)         180.0            estimate D2E/DX2                !
 ! D95   D(22,17,18,5)         180.0            estimate D2E/DX2                !
 ! D96   D(22,17,18,19)          0.0            estimate D2E/DX2                !
 ! D97   D(4,17,22,21)         180.0            estimate D2E/DX2                !
 ! D98   D(4,17,22,43)           0.0            estimate D2E/DX2                !
 ! D99   D(18,17,22,21)          0.0            estimate D2E/DX2                !
 ! D100  D(18,17,22,43)        180.0            estimate D2E/DX2                !
 ! D101  D(5,18,19,20)         180.0            estimate D2E/DX2                !
 ! D102  D(5,18,19,40)           0.0            estimate D2E/DX2                !
 ! D103  D(17,18,19,20)          0.0            estimate D2E/DX2                !
 ! D104  D(17,18,19,40)        180.0            estimate D2E/DX2                !
 ! D105  D(18,19,20,21)          0.0            estimate D2E/DX2                !
 ! D106  D(18,19,20,41)        180.0            estimate D2E/DX2                !
 ! D107  D(40,19,20,21)        180.0            estimate D2E/DX2                !
 ! D108  D(40,19,20,41)          0.0            estimate D2E/DX2                !
 ! D109  D(19,20,21,22)          0.0            estimate D2E/DX2                !
 ! D110  D(19,20,21,42)        180.0            estimate D2E/DX2                !
 ! D111  D(41,20,21,22)        180.0            estimate D2E/DX2                !
 ! D112  D(41,20,21,42)          0.0            estimate D2E/DX2                !
 ! D113  D(20,21,22,17)          0.0            estimate D2E/DX2                !
 ! D114  D(20,21,22,43)        180.0            estimate D2E/DX2                !
 ! D115  D(42,21,22,17)        180.0            estimate D2E/DX2                !
 ! D116  D(42,21,22,43)          0.0            estimate D2E/DX2                !
 ! D117  D(8,23,26,25)         180.0            estimate D2E/DX2                !
 ! D118  D(8,23,26,46)           0.0            estimate D2E/DX2                !
 ! D119  D(28,23,26,25)          0.0            estimate D2E/DX2                !
 ! D120  D(28,23,26,46)        180.0            estimate D2E/DX2                !
 ! D121  D(8,23,28,27)         180.0            estimate D2E/DX2                !
 ! D122  D(8,23,28,29)           0.0            estimate D2E/DX2                !
 ! D123  D(26,23,28,27)          0.0            estimate D2E/DX2                !
 ! D124  D(26,23,28,29)        180.0            estimate D2E/DX2                !
 ! D125  D(27,24,25,26)          0.0            estimate D2E/DX2                !
 ! D126  D(27,24,25,45)        180.0            estimate D2E/DX2                !
 ! D127  D(44,24,25,26)        180.0            estimate D2E/DX2                !
 ! D128  D(44,24,25,45)          0.0            estimate D2E/DX2                !
 ! D129  D(25,24,27,28)          0.0            estimate D2E/DX2                !
 ! D130  D(25,24,27,32)        180.0            estimate D2E/DX2                !
 ! D131  D(44,24,27,28)        180.0            estimate D2E/DX2                !
 ! D132  D(44,24,27,32)          0.0            estimate D2E/DX2                !
 ! D133  D(24,25,26,23)          0.0            estimate D2E/DX2                !
 ! D134  D(24,25,26,46)        180.0            estimate D2E/DX2                !
 ! D135  D(45,25,26,23)        180.0            estimate D2E/DX2                !
 ! D136  D(45,25,26,46)          0.0            estimate D2E/DX2                !
 ! D137  D(24,27,28,23)          0.0            estimate D2E/DX2                !
 ! D138  D(24,27,28,29)        180.0            estimate D2E/DX2                !
 ! D139  D(32,27,28,23)        180.0            estimate D2E/DX2                !
 ! D140  D(32,27,28,29)          0.0            estimate D2E/DX2                !
 ! D141  D(24,27,32,31)        180.0            estimate D2E/DX2                !
 ! D142  D(24,27,32,48)          0.0            estimate D2E/DX2                !
 ! D143  D(28,27,32,31)          0.0            estimate D2E/DX2                !
 ! D144  D(28,27,32,48)        180.0            estimate D2E/DX2                !
 ! D145  D(23,28,29,15)          0.0            estimate D2E/DX2                !
 ! D146  D(23,28,29,30)        180.0            estimate D2E/DX2                !
 ! D147  D(27,28,29,15)        180.0            estimate D2E/DX2                !
 ! D148  D(27,28,29,30)          0.0            estimate D2E/DX2                !
 ! D149  D(15,29,30,10)          0.0            estimate D2E/DX2                !
 ! D150  D(15,29,30,31)        180.0            estimate D2E/DX2                !
 ! D151  D(28,29,30,10)        180.0            estimate D2E/DX2                !
 ! D152  D(28,29,30,31)          0.0            estimate D2E/DX2                !
 ! D153  D(10,30,31,32)        180.0            estimate D2E/DX2                !
 ! D154  D(10,30,31,47)          0.0            estimate D2E/DX2                !
 ! D155  D(29,30,31,32)          0.0            estimate D2E/DX2                !
 ! D156  D(29,30,31,47)        180.0            estimate D2E/DX2                !
 ! D157  D(30,31,32,27)          0.0            estimate D2E/DX2                !
 ! D158  D(30,31,32,48)        180.0            estimate D2E/DX2                !
 ! D159  D(47,31,32,27)        180.0            estimate D2E/DX2                !
 ! D160  D(47,31,32,48)          0.0            estimate D2E/DX2                !
 --------------------------------------------------------------------------------
 Trust Radius=3.00D-01 FncErr=1.00D-07 GrdErr=1.00D-06
 Number of steps in this run=    288 maximum allowed number of steps=    288.
 GradGradGradGradGradGradGradGradGradGradGradGradGradGradGradGradGradGrad

 Leave Link  103 at Sat Jul 27 16:54:25 2019, MaxMem=  4194304000 cpu:         0.2
 (Enter /home/minenky/programs//g09/l202.exe)
                          Input orientation:                          
 ---------------------------------------------------------------------
 Center     Atomic      Atomic             Coordinates (Angstroms)
 Number     Number       Type             X           Y           Z
 ---------------------------------------------------------------------
      1          6           0        3.697453    2.375859    0.000000
      2          6           0        2.922308    3.526720    0.000000
      3          6           0        1.538190    3.433875    0.000000
      4          6           0        3.099050    1.111938    0.000000
      5          6           0        1.839133   -1.455730    0.000000
      6          6           0       -0.175439   -2.798023    0.000000
      7          6           0        1.201134   -2.705404    0.000000
      8          6           0       -0.973130   -1.644451    0.000000
      9          6           0       -1.352125    3.239579    0.000000
     10          6           0       -2.723926    3.149044    0.000000
     11          6           0        1.058232   -0.285619    0.000000
     12          6           0        1.690661    1.010848    0.000000
     13          6           0        0.906824    2.185785    0.000000
     14          6           0       -0.543584    2.083165    0.000000
     15          6           0       -1.150948    0.821790    0.000000
     16          6           0       -0.354251   -0.381619    0.000000
     17          6           0        3.908861   -0.097103    0.000000
     18          6           0        3.289890   -1.358178    0.000000
     19          6           0        4.090104   -2.515218    0.000000
     20          6           0        5.467672   -2.424075    0.000000
     21          6           0        6.083857   -1.168931    0.000000
     22          6           0        5.313547   -0.023118    0.000000
     23          6           0       -2.425554   -1.747044    0.000000
     24          6           0       -5.230315   -1.907279    0.000000
     25          6           0       -4.463840   -3.057808    0.000000
     26          6           0       -3.070571   -2.980716    0.000000
     27          6           0       -4.609704   -0.647041    0.000000
     28          6           0       -3.201818   -0.563313    0.000000
     29          6           0       -2.567050    0.723727    0.000000
     30          6           0       -3.353871    1.888240    0.000000
     31          6           0       -4.785722    1.775576    0.000000
     32          6           0       -5.387183    0.561778    0.000000
     33          1           0        4.795881    2.447492    0.000000
     34          1           0        3.404225    4.509926    0.000000
     35          1           0        0.920654    4.345081    0.000000
     36          1           0       -0.668972   -3.782331    0.000000
     37          1           0        1.818055   -3.617200    0.000000
     38          1           0       -0.859158    4.224046    0.000000
     39          1           0       -3.339077    4.056124    0.000000
     40          1           0        3.597056   -3.499413    0.000000
     41          1           0        6.079672   -3.331838    0.000000
     42          1           0        7.176352   -1.097955    0.000000
     43          1           0        5.791160    0.968684    0.000000
     44          1           0       -6.324377   -1.969953    0.000000
     45          1           0       -4.948739   -4.039679    0.000000
     46          1           0       -2.465005   -3.900085    0.000000
     47          1           0       -5.377045    2.698461    0.000000
     48          1           0       -6.479696    0.473472    0.000000
 ---------------------------------------------------------------------
                    Distance matrix (angstroms):
                    1          2          3          4          5
     1  C    0.000000
     2  C    1.387564   0.000000
     3  C    2.404541   1.387228   0.000000
     4  C    1.398421   2.421242   2.797799   0.000000
     5  C    4.258454   5.098831   4.898858   2.860124   0.000000
     6  C    6.462844   7.042614   6.463210   5.100007   2.420795
     7  C    5.661346   6.465432   6.148525   4.263119   1.403113
     8  C    6.162567   6.474214   5.665344   4.917350   2.818588
     9  C    5.122915   4.284067   2.896838   4.933540   5.677153
    10  C    6.467760   5.658851   4.271622   6.169023   6.482704
    11  C    3.748193   4.243667   3.750333   2.473480   1.406758
    12  C    2.427028   2.801172   2.427820   1.412011   2.471043
    13  C    2.797094   2.420802   1.398696   2.441106   3.758967
    14  C    4.251125   3.754498   2.481572   3.769889   4.266276
    15  C    5.091377   4.889586   3.748926   4.259890   3.758680
    16  C    4.901019   5.100093   4.259029   3.762446   2.442263
    17  C    2.481982   3.755713   4.252986   1.455189   2.475811
    18  C    3.756213   4.898709   5.102179   2.477477   1.454033
    19  C    4.906812   6.153760   6.473328   3.760112   2.487847
    20  C    5.115960   6.472314   7.053823   4.256026   3.755528
    21  C    4.273226   5.660789   6.469074   3.756519   4.254403
    22  C    2.892551   4.280115   5.118997   2.488444   3.758182
    23  C    7.381703   7.510807   6.523281   6.220532   4.274625
    24  C    9.902036   9.797633   8.622099   8.859683   7.083854
    25  C    9.804664   9.895008   8.841171   8.636207   6.503393
    26  C    8.631283   8.846543   7.898586   7.403650   5.141087
    27  C    8.840067   8.611125   7.379056   7.906889   6.499344
    28  C    7.499245   7.364325   6.200418   6.519770   5.119335
    29  C    6.478699   6.163588   4.919135   5.679383   4.915738
    30  C    7.068164   6.486527   5.130423   6.499448   6.176522
    31  C    8.504387   7.904444   6.537723   7.912651   7.370892
    32  C    9.263989   8.822613   7.497314   8.504047   7.502664
    33  H    1.100761   2.162178   3.403749   2.159384   4.896683
    34  H    2.154118   1.094960   2.154059   3.411664   6.167541
    35  H    3.404182   2.162483   1.100748   3.898542   5.873076
    36  H    7.549103   8.143679   7.546204   6.176718   3.421061
    37  H    6.280835   7.228760   7.056627   4.899560   2.161573
    38  H    4.917163   3.845223   2.524211   5.035138   6.288134
    39  H    7.234365   6.283725   4.916800   7.079386   7.562697
    40  H    5.876129   7.058458   7.232525   4.638164   2.695725
    41  H    6.184882   7.550415   8.148616   5.350818   4.637020
    42  H    4.916312   6.283671   7.233696   4.637674   5.349197
    43  H    2.522647   3.843678   4.915783   2.695919   4.636411
    44  H   10.923514  10.757071   9.540509   9.914586   8.179689
    45  H   10.766418  10.918048   9.896174   9.555421   7.263057
    46  H    8.795644   9.174997   8.355390   7.488596   4.949795
    47  H    9.080231   8.340580   6.954230   8.623296   8.326496
    48  H   10.353426   9.885342   8.546957   9.600000   8.539598
                    6          7          8          9         10
     6  C    0.000000
     7  C    1.379686   0.000000
     8  C    1.402511   2.419307   0.000000
     9  C    6.151198   6.470082   4.898714   0.000000
    10  C    6.470115   7.048451   5.103223   1.374785   0.000000
    11  C    2.798950   2.424001   2.443943   4.270462   5.108975
    12  C    4.241442   3.748355   3.761170   3.771710   4.905147
    13  C    5.099965   4.900036   4.266725   2.492656   3.756356
    14  C    4.895051   5.096512   3.752283   1.411040   2.426930
    15  C    3.748955   4.239503   2.472644   2.426145   2.808980
    16  C    2.423011   2.796283   1.406327   3.756173   4.252169
    17  C    4.896578   3.759656   5.121340   6.229882   7.384533
    18  C    3.752554   2.485542   4.272621   6.533581   7.515387
    19  C    4.274908   2.895223   5.137564   7.920577   8.860861
    20  C    5.655488   4.275803   6.487815   8.864910   9.907670
    21  C    6.467823   5.118763   7.072990   8.644582   9.809279
    22  C    6.150534   4.909847   6.492383   7.421347   8.640810
    23  C    2.483460   3.751176   1.456043   5.100850   4.905172
    24  C    5.132757   6.480783   4.265291   6.444417   5.643438
    25  C    4.296262   5.675925   3.765983   7.024234   6.446109
    26  C    2.900890   4.280568   2.486938   6.453304   6.139554
    27  C    4.928431   6.164633   3.770875   5.071256   4.238681
    28  C    3.762034   4.896381   2.477077   4.228871   3.742990
    29  C    4.257056   5.094915   2.854619   2.793842   2.430385
    30  C    5.662464   6.469130   4.260028   2.415182   1.409417
    31  C    6.494038   7.478077   5.121762   3.732679   2.477381
    32  C    6.200849   7.353937   4.934704   4.842758   3.713069
    33  H    7.226995   6.282877   7.072870   6.198822   7.552461
    34  H    8.137574   7.544176   7.552323   4.923073   6.277438
    35  H    7.226712   7.056062   6.281792   2.527382   3.835813
    36  H    1.101107   2.158024   2.159408   7.055064   7.229578
    37  H    2.155243   1.100892   3.417960   7.554169   8.149334
    38  H    7.055276   7.229251   5.869604   1.100995   2.152438
    39  H    7.549036   8.144433   6.172055   2.148190   1.095995
    40  H    3.837143   2.524062   4.932290   8.361125   9.173701
    41  H    6.277848   4.918593   7.251848   9.920441  10.931842
    42  H    7.545798   6.187659   8.167785   9.568131  10.772767
    43  H    7.056089   5.879393   7.251489   7.495565   8.789804
    44  H    6.204444   7.561362   5.361137   7.201563   6.258385
    45  H    4.932150   6.292951   4.641399   8.119313   7.525127
    46  H    2.540994   3.855884   2.704362   7.225878   7.053883
    47  H    7.567565   8.513178   6.185091   4.061132   2.691109
    48  H    7.102558   8.312665   5.899819   5.826090   4.611344
                   11         12         13         14         15
    11  C    0.000000
    12  C    1.442496   0.000000
    13  C    2.476037   1.412402   0.000000
    14  C    2.859536   2.478248   1.454034   0.000000
    15  C    2.471200   2.847891   2.468786   1.399984   0.000000
    16  C    1.415741   2.473991   2.860398   2.472045   1.443232
    17  C    2.856856   2.479509   3.771446   4.957603   5.142570
    18  C    2.476022   2.858289   4.270677   5.151540   4.947050
    19  C    3.763424   4.265028   5.677384   6.528107   6.213231
    20  C    4.900629   5.105341   6.484763   7.513349   7.371687
    21  C    5.102661   4.904243   6.168938   7.382351   7.503690
    22  C    4.263405   3.767544   4.929347   6.224340   6.519476
    23  C    3.777900   4.954715   5.154793   4.267589   2.867670
    24  C    6.494275   7.511018   7.376832   6.155412   4.908061
    25  C    6.178860   7.377794   7.505951   6.465138   5.101621
    26  C    4.930574   6.213044   6.520154   5.659377   4.259578
    27  C    5.679447   6.514845   6.201370   4.897689   3.757720
    28  C    4.269091   5.139488   4.943529   3.751007   2.474789
    29  C    3.763170   4.267382   3.769007   2.437721   1.419494
    30  C    4.918568   5.120266   4.271072   2.817039   2.447486
    31  C    6.196799   6.521377   5.707307   4.253275   3.757831
    32  C    6.500880   7.092076   6.500148   5.076915   4.244207
    33  H    4.630326   3.421452   3.897853   5.351880   6.165037
    34  H    5.338626   3.896132   3.411545   4.634044   5.861053
    35  H    4.632743   3.421991   2.159340   2.694487   4.087189
    36  H    3.900029   5.342512   6.172644   5.866835   4.629280
    37  H    3.417128   4.629801   5.874094   6.170210   5.340376
    38  H    4.900352   4.101977   2.696887   2.164014   3.414745
    39  H    6.179567   5.879794   4.639595   3.421601   3.904975
    40  H    4.095620   4.896610   6.289580   6.950544   6.419995
    41  H    5.873186   6.174329   7.563235   8.555102   8.338734
    42  H    6.171814   5.877061   7.077424   8.349667   8.545721
    43  H    4.896314   4.100715   5.033694   6.432033   6.943662
    44  H    7.572310   8.551375   8.340289   7.060122   5.878622
    45  H    7.083549   8.342030   8.546580   7.542852   6.169044
    46  H    5.047530   6.433259   6.957517   6.284197   4.901311
    47  H    7.093484   7.266397   6.304748   4.872468   4.624045
    48  H    7.576052   8.188010   7.582393   6.150490   5.340120
                   16         17         18         19         20
    16  C    0.000000
    17  C    4.272595   0.000000
    18  C    3.772722   1.404790   0.000000
    19  C    4.929962   2.424897   1.406798   0.000000
    20  C    6.169798   2.800838   2.424638   1.380580   0.000000
    21  C    6.486070   2.424752   2.800369   2.405731   1.398239
    22  C    5.679125   1.406634   2.424371   2.776216   2.405899
    23  C    2.480863   6.545771   5.728658   6.560784   7.922208
    24  C    5.109172   9.316720   8.537881   9.340225  10.710463
    25  C    4.904152   8.880759   7.937825   8.571135   9.951710
    26  C    3.759481   7.551668   6.564152   7.175789   8.556369
    27  C    4.263722   8.536298   7.931538   8.898131  10.232857
    28  C    2.853358   7.125946   6.540190   7.548646   8.866933
    29  C    2.473514   6.527724   6.215954   7.403274   8.629335
    30  C    3.761646   7.529201   7.394511   8.648884   9.819149
    31  C    4.928634   8.893970   8.662328   9.858560  11.080125
    32  C    5.120586   9.319364   8.886947   9.964279  11.258028
    33  H    5.876030   2.694767   4.092815   5.012644   4.917669
    34  H    6.168740   4.634584   5.869218   7.058546   7.234513
    35  H    4.895618   5.353726   6.175796   7.557057   8.154560
    36  H    3.415244   5.876857   4.642101   4.924873   6.285161
    37  H    3.897165   4.094209   2.696197   2.525187   3.839694
    38  H    4.633258   6.434775   6.955273   8.361391   9.177488
    39  H    5.348154   8.353556   8.559081   9.918430  10.933975
    40  H    5.033236   3.416567   2.163154   1.100789   2.157673
    41  H    7.078076   3.895630   3.417341   2.150640   1.094796
    42  H    7.564597   3.417339   3.895164   3.396110   2.162911
    43  H    6.292011   2.163089   3.416232   3.877005   3.408147
    44  H    6.177799  10.403207   9.633711  10.428744  11.800789
    45  H    5.872881   9.695411   8.664033   9.166497  10.540958
    46  H    4.103034   7.422185   6.291272   6.699799   8.068827
    47  H    5.891974   9.697589   9.569331  10.807838  11.993676
    48  H    6.184841  10.404214   9.939806  10.984213  12.293713
                   21         22         23         24         25
    21  C    0.000000
    22  C    1.380675   0.000000
    23  C    8.529027   7.928784   0.000000
    24  C   11.338239  10.710887   2.809335   0.000000
    25  C   10.715492  10.237511   2.423368   1.382462   0.000000
    26  C    9.331995   8.890491   1.392118   2.411796   1.395400
    27  C   10.706289   9.942847   2.445510   1.404763   2.415176
    28  C    9.305404   8.532483   1.415559   2.433320   2.795569
    29  C    8.855527   7.915908   2.474820   3.743685   4.230582
    30  C    9.920535   8.875665   3.751942   4.234030   5.069066
    31  C   11.261345  10.258194   4.240195   3.709594   4.844091
    32  C   11.600867  10.716703   3.755250   2.474035   3.735501
    33  H    3.838931   2.524261   8.351243  10.931086  10.772686
    34  H    6.279318   4.918740   8.551958  10.758057  10.916823
    35  H    7.554006   6.195053   6.950619   8.770771   9.153990
    36  H    7.240895   7.065565   2.688489   4.931701   3.863413
    37  H    4.918444   5.013570   4.637424   7.252817   6.306752
    38  H    8.791453   7.492709   6.173128   7.529951   8.125216
    39  H   10.774641   9.565988   5.874631   6.256114   7.202300
    40  H    3.408127   3.876979   6.272370   8.969804   8.072983
    41  H    2.162911   3.396259   8.651615  11.399350  10.547073
    42  H    1.094798   2.150655   9.623820  12.433037  11.804028
    43  H    2.157561   1.100812   8.653876  11.390526  11.017153
    44  H   12.434062  11.799637   3.905190   1.095855   2.155232
    45  H   11.399973  11.020313   3.409199   2.150910   1.095079
    46  H    8.974533   8.691188   2.153402   3.408551   2.169048
    47  H   12.095826  11.031580   5.336086   4.608077   5.828257
    48  H   12.670452  11.803694   4.622419   2.688667   4.066155
                   26         27         28         29         30
    26  C    0.000000
    27  C    2.795527   0.000000
    28  C    2.420964   1.410373   0.000000
    29  C    3.738507   2.459968   1.435062   0.000000
    30  C    4.877191   2.829270   2.456264   1.405410   0.000000
    31  C    5.056092   2.429003   2.824740   2.455380   1.436277
    32  C    4.232724   1.437260   2.457976   2.824779   2.427727
    33  H    9.557537   9.901574   8.545650   7.562018   8.168918
    34  H    9.901146   9.529814   8.329319   7.070461   7.248799
    35  H    8.342493   7.450244   6.409922   5.027751   4.930277
    36  H    2.531850   5.035813   4.096021   4.889505   6.274079
    37  H    4.929886   7.080815   5.875828   6.170316   7.553721
    38  H    7.536507   6.147689   5.329808   3.894756   3.417540
    39  H    7.041961   4.871782   4.621476   3.420657   2.167935
    40  H    6.687772   8.688322   7.405766   7.472022   8.794441
    41  H    9.156978  11.021384   9.685598   9.550572  10.781510
    42  H   10.418456  11.794679  10.391932   9.912236  10.945454
    43  H    9.701961  10.525614   9.122537   8.361799   9.191147
    44  H    3.407182   2.165687   3.424764   4.623139   4.869247
    45  H    2.156135   3.409536   3.890611   5.325644   6.138716
    46  H    1.100886   3.896413   3.417154   4.624938   5.856176
    47  H    6.129671   3.432374   3.920559   3.434479   2.179379
    48  H    4.853200   2.180004   3.437936   3.920641   3.431086
                   31         32         33         34         35
    31  C    0.000000
    32  C    1.354644   0.000000
    33  H    9.605134  10.356192   0.000000
    34  H    8.634344   9.637257   2.488040   0.000000
    35  H    6.258201   7.355418   4.314885   2.489036   0.000000
    36  H    6.916500   6.413485   8.287056   9.238639   8.281409
    37  H    8.525956   8.329424   6.756325   8.280465   8.012693
    38  H    4.627409   5.823677   5.927530   4.272956   1.783922
    39  H    2.700682   4.050333   8.292481   6.758554   4.269520
    40  H    9.904367   9.859504   6.066535   8.011659   8.288499
    41  H   12.005935  12.109872   5.920200   8.285606   9.249355
    42  H   12.302374  12.672692   4.270461   6.758496   8.292190
    43  H   10.607616  11.185746   1.782541   4.270580   5.926373
    44  H    4.049253   2.699629  11.965532  11.689077   9.610938
    45  H    5.817540   4.622298  11.706452  11.952730  10.234939
    46  H    6.131791   5.333605   9.644283  10.255542   8.913218
    47  H    1.096074   2.136707  10.176022   8.966165   6.509406
    48  H    2.136591   1.096076  11.447069  10.676368   8.351917
                   36         37         38         39         40
    36  H    0.000000
    37  H    2.492503   0.000000
    38  H    8.008635   8.285687   0.000000
    39  H    8.280751   9.245319   2.485598   0.000000
    40  H    4.275399   1.782896   8.916818  10.256514   0.000000
    41  H    6.763663   4.271161  10.258593  11.970581   2.488266
    42  H    8.291862   5.920974   9.638107  11.710627   4.310262
    43  H    8.019068   6.067611   7.404330   9.638128   4.977749
    44  H    5.938713   8.307383   8.260402   6.725000  10.038629
    45  H    4.287498   6.779970   9.220294   8.254275   8.562856
    46  H    1.799889   4.292392   8.281319   8.004079   6.075288
    47  H    8.010407   9.573769   4.768513   2.448789  10.906335
    48  H    7.202526   9.251285   6.757015   4.764335  10.831655
                   41         42         43         44         45
    41  H    0.000000
    42  H    2.488561   0.000000
    43  H    4.310189   2.487922   0.000000
    44  H   12.478588  13.528860  12.466829   0.000000
    45  H   11.051104  12.476842  11.850280   2.485184   0.000000
    46  H    8.563552  10.040304   9.584841   4.315108   2.487654
    47  H   12.946848  13.114899  11.301369   4.763562   6.751739
    48  H   13.123190  13.746164  12.280844   2.448357   4.765749
                   46         47         48
    46  H    0.000000
    47  H    7.212544   0.000000
    48  H    5.936813   2.483226   0.000000
 Stoichiometry    C32H16
 Framework group  CS[SG(C32H16)]
 Deg. of freedom    93
 Full point group                 CS      NOp   2
 Largest Abelian subgroup         CS      NOp   2
 Largest concise Abelian subgroup C1      NOp   1
                         Standard orientation:                         
 ---------------------------------------------------------------------
 Center     Atomic      Atomic             Coordinates (Angstroms)
 Number     Number       Type             X           Y           Z
 ---------------------------------------------------------------------
      1          6           0        1.021077   -4.270300    0.000000
      2          6           0       -0.334628   -4.565930    0.000000
      3          6           0       -1.270497   -3.541941    0.000000
      4          6           0        1.462524   -2.943383    0.000000
      5          6           0        2.327354   -0.217144    0.000000
      6          6           0        1.799768    2.145461    0.000000
      7          6           0        2.730343    1.126852    0.000000
      8          6           0        0.425900    1.863460    0.000000
      9          6           0       -3.224491   -1.403349    0.000000
     10          6           0       -4.153057   -0.389545    0.000000
     11          6           0        0.954182   -0.522704    0.000000
     12          6           0        0.514819   -1.896659    0.000000
     13          6           0       -0.863810   -2.203675    0.000000
     14          6           0       -1.840817   -1.126795    0.000000
     15          6           0       -1.407605    0.204477    0.000000
     16          6           0        0.000000    0.523174    0.000000
     17          6           0        2.883498   -2.629683    0.000000
     18          6           0        3.308117   -1.290604    0.000000
     19          6           0        4.686205   -1.007841    0.000000
     20          6           0        5.618520   -2.026071    0.000000
     21          6           0        5.195988   -3.358940    0.000000
     22          6           0        3.847267   -3.654265    0.000000
     23          6           0       -0.552582    2.941714    0.000000
     24          6           0       -2.468310    4.996550    0.000000
     25          6           0       -1.119099    5.297933    0.000000
     26          6           0       -0.165727    4.279001    0.000000
     27          6           0       -2.891165    3.656941    0.000000
     28          6           0       -1.931820    2.623108    0.000000
     29          6           0       -2.362976    1.254347    0.000000
     30          6           0       -3.736555    0.956925    0.000000
     31          6           0       -4.693211    2.028233    0.000000
     32          6           0       -4.288624    3.321048    0.000000
     33          1           0        1.765194   -5.081451    0.000000
     34          1           0       -0.666167   -5.609490    0.000000
     35          1           0       -2.346641   -3.773378    0.000000
     36          1           0        2.123678    3.197848    0.000000
     37          1           0        3.806450    1.359140    0.000000
     38          1           0       -3.548918   -2.455460    0.000000
     39          1           0       -5.224625   -0.619649    0.000000
     40          1           0        5.010387    0.044129    0.000000
     41          1           0        6.688283   -1.793296    0.000000
     42          1           0        5.936272   -4.165514    0.000000
     43          1           0        3.506674   -4.701061    0.000000
     44          1           0       -3.215464    5.798209    0.000000
     45          1           0       -0.790637    6.342592    0.000000
     46          1           0        0.907411    4.524610    0.000000
     47          1           0       -5.758488    1.770237    0.000000
     48          1           0       -5.016941    4.140157    0.000000
 ---------------------------------------------------------------------
 Rotational constants (GHZ):      0.2886680      0.1093556      0.0793105
 Leave Link  202 at Sat Jul 27 16:54:25 2019, MaxMem=  4194304000 cpu:         0.7
 (Enter /home/minenky/programs//g09/l301.exe)
 Standard basis: def2TZVP (5D, 7F)
 ======================================================================================================
                                       Pseudopotential Parameters
 ======================================================================================================
  Center     Atomic      Valence      Angular      Power
  Number     Number     Electrons     Momentum     of R      Exponent        Coefficient   SO-Coeffient
 ======================================================================================================
    1          6
                                   No pseudopotential on this center.
    2          6
                                   No pseudopotential on this center.
    3          6
                                   No pseudopotential on this center.
    4          6
                                   No pseudopotential on this center.
    5          6
                                   No pseudopotential on this center.
    6          6
                                   No pseudopotential on this center.
    7          6
                                   No pseudopotential on this center.
    8          6
                                   No pseudopotential on this center.
    9          6
                                   No pseudopotential on this center.
   10          6
                                   No pseudopotential on this center.
   11          6
                                   No pseudopotential on this center.
   12          6
                                   No pseudopotential on this center.
   13          6
                                   No pseudopotential on this center.
   14          6
                                   No pseudopotential on this center.
   15          6
                                   No pseudopotential on this center.
   16          6
                                   No pseudopotential on this center.
   17          6
                                   No pseudopotential on this center.
   18          6
                                   No pseudopotential on this center.
   19          6
                                   No pseudopotential on this center.
   20          6
                                   No pseudopotential on this center.
   21          6
                                   No pseudopotential on this center.
   22          6
                                   No pseudopotential on this center.
   23          6
                                   No pseudopotential on this center.
   24          6
                                   No pseudopotential on this center.
   25          6
                                   No pseudopotential on this center.
   26          6
                                   No pseudopotential on this center.
   27          6
                                   No pseudopotential on this center.
   28          6
                                   No pseudopotential on this center.
   29          6
                                   No pseudopotential on this center.
   30          6
                                   No pseudopotential on this center.
   31          6
                                   No pseudopotential on this center.
   32          6
                                   No pseudopotential on this center.
   33          1
                                   No pseudopotential on this center.
   34          1
                                   No pseudopotential on this center.
   35          1
                                   No pseudopotential on this center.
   36          1
                                   No pseudopotential on this center.
   37          1
                                   No pseudopotential on this center.
   38          1
                                   No pseudopotential on this center.
   39          1
                                   No pseudopotential on this center.
   40          1
                                   No pseudopotential on this center.
   41          1
                                   No pseudopotential on this center.
   42          1
                                   No pseudopotential on this center.
   43          1
                                   No pseudopotential on this center.
   44          1
                                   No pseudopotential on this center.
   45          1
                                   No pseudopotential on this center.
   46          1
                                   No pseudopotential on this center.
   47          1
                                   No pseudopotential on this center.
   48          1
                                   No pseudopotential on this center.
 ======================================================================================================
 Ernie: Thresh=  0.10000D-02 Tol=  0.10000D-05 Strict=F.
 AO basis set (Overlap normalization):
 Atom C1       Shell     1 S   6     bf    1 -     1          1.929555831642         -8.069696816749          0.000000000000
      0.1357534968D+05  0.6064550360D-03
      0.2035233368D+04  0.4697908888D-02
      0.4632256236D+03  0.2433247765D-01
      0.1312001960D+03  0.9739996831D-01
      0.4285301589D+02  0.3019558425D+00
      0.1558418577D+02  0.6623360914D+00
 Atom C1       Shell     2 S   2     bf    2 -     2          1.929555831642         -8.069696816749          0.000000000000
      0.6206713851D+01  0.6559530854D+00
      0.2576489653D+01  0.3758563329D+00
 Atom C1       Shell     3 S   1     bf    3 -     3          1.929555831642         -8.069696816749          0.000000000000
      0.5769633942D+00  0.1000000000D+01
 Atom C1       Shell     4 S   1     bf    4 -     4          1.929555831642         -8.069696816749          0.000000000000
      0.2297283136D+00  0.1000000000D+01
 Atom C1       Shell     5 S   1     bf    5 -     5          1.929555831642         -8.069696816749          0.000000000000
      0.9516444003D-01  0.1000000000D+01
 Atom C1       Shell     6 P   4     bf    6 -     8          1.929555831642         -8.069696816749          0.000000000000
      0.3469723224D+02  0.1132722000D-01
      0.7958262283D+01  0.7616965920D-01
      0.2378082688D+01  0.3019225220D+00
      0.8143320818D+00  0.7278502735D+00
 Atom C1       Shell     7 P   1     bf    9 -    11          1.929555831642         -8.069696816749          0.000000000000
      0.2888754725D+00  0.1000000000D+01
 Atom C1       Shell     8 P   1     bf   12 -    14          1.929555831642         -8.069696816749          0.000000000000
      0.1005682367D+00  0.1000000000D+01
 Atom C1       Shell     9 D   1     bf   15 -    19          1.929555831642         -8.069696816749          0.000000000000
      0.1097000000D+01  0.1000000000D+01
 Atom C1       Shell    10 D   1     bf   20 -    24          1.929555831642         -8.069696816749          0.000000000000
      0.3180000000D+00  0.1000000000D+01
 Atom C1       Shell    11 F   1     bf   25 -    31          1.929555831642         -8.069696816749          0.000000000000
      0.7610000000D+00  0.1000000000D+01
 Atom C2       Shell    12 S   6     bf   32 -    32         -0.632355101478         -8.628356390612          0.000000000000
      0.1357534968D+05  0.6064550360D-03
      0.2035233368D+04  0.4697908888D-02
      0.4632256236D+03  0.2433247765D-01
      0.1312001960D+03  0.9739996831D-01
      0.4285301589D+02  0.3019558425D+00
      0.1558418577D+02  0.6623360914D+00
 Atom C2       Shell    13 S   2     bf   33 -    33         -0.632355101478         -8.628356390612          0.000000000000
      0.6206713851D+01  0.6559530854D+00
      0.2576489653D+01  0.3758563329D+00
 Atom C2       Shell    14 S   1     bf   34 -    34         -0.632355101478         -8.628356390612          0.000000000000
      0.5769633942D+00  0.1000000000D+01
 Atom C2       Shell    15 S   1     bf   35 -    35         -0.632355101478         -8.628356390612          0.000000000000
      0.2297283136D+00  0.1000000000D+01
 Atom C2       Shell    16 S   1     bf   36 -    36         -0.632355101478         -8.628356390612          0.000000000000
      0.9516444003D-01  0.1000000000D+01
 Atom C2       Shell    17 P   4     bf   37 -    39         -0.632355101478         -8.628356390612          0.000000000000
      0.3469723224D+02  0.1132722000D-01
      0.7958262283D+01  0.7616965920D-01
      0.2378082688D+01  0.3019225220D+00
      0.8143320818D+00  0.7278502735D+00
 Atom C2       Shell    18 P   1     bf   40 -    42         -0.632355101478         -8.628356390612          0.000000000000
      0.2888754725D+00  0.1000000000D+01
 Atom C2       Shell    19 P   1     bf   43 -    45         -0.632355101478         -8.628356390612          0.000000000000
      0.1005682367D+00  0.1000000000D+01
 Atom C2       Shell    20 D   1     bf   46 -    50         -0.632355101478         -8.628356390612          0.000000000000
      0.1097000000D+01  0.1000000000D+01
 Atom C2       Shell    21 D   1     bf   51 -    55         -0.632355101478         -8.628356390612          0.000000000000
      0.3180000000D+00  0.1000000000D+01
 Atom C2       Shell    22 F   1     bf   56 -    62         -0.632355101478         -8.628356390612          0.000000000000
      0.7610000000D+00  0.1000000000D+01
 Atom C3       Shell    23 S   6     bf   63 -    63         -2.400891660995         -6.693299381821          0.000000000000
      0.1357534968D+05  0.6064550360D-03
      0.2035233368D+04  0.4697908888D-02
      0.4632256236D+03  0.2433247765D-01
      0.1312001960D+03  0.9739996831D-01
      0.4285301589D+02  0.3019558425D+00
      0.1558418577D+02  0.6623360914D+00
 Atom C3       Shell    24 S   2     bf   64 -    64         -2.400891660995         -6.693299381821          0.000000000000
      0.6206713851D+01  0.6559530854D+00
      0.2576489653D+01  0.3758563329D+00
 Atom C3       Shell    25 S   1     bf   65 -    65         -2.400891660995         -6.693299381821          0.000000000000
      0.5769633942D+00  0.1000000000D+01
 Atom C3       Shell    26 S   1     bf   66 -    66         -2.400891660995         -6.693299381821          0.000000000000
      0.2297283136D+00  0.1000000000D+01
 Atom C3       Shell    27 S   1     bf   67 -    67         -2.400891660995         -6.693299381821          0.000000000000
      0.9516444003D-01  0.1000000000D+01
 Atom C3       Shell    28 P   4     bf   68 -    70         -2.400891660995         -6.693299381821          0.000000000000
      0.3469723224D+02  0.1132722000D-01
      0.7958262283D+01  0.7616965920D-01
      0.2378082688D+01  0.3019225220D+00
      0.8143320818D+00  0.7278502735D+00
 Atom C3       Shell    29 P   1     bf   71 -    73         -2.400891660995         -6.693299381821          0.000000000000
      0.2888754725D+00  0.1000000000D+01
 Atom C3       Shell    30 P   1     bf   74 -    76         -2.400891660995         -6.693299381821          0.000000000000
      0.1005682367D+00  0.1000000000D+01
 Atom C3       Shell    31 D   1     bf   77 -    81         -2.400891660995         -6.693299381821          0.000000000000
      0.1097000000D+01  0.1000000000D+01
 Atom C3       Shell    32 D   1     bf   82 -    86         -2.400891660995         -6.693299381821          0.000000000000
      0.3180000000D+00  0.1000000000D+01
 Atom C3       Shell    33 F   1     bf   87 -    93         -2.400891660995         -6.693299381821          0.000000000000
      0.7610000000D+00  0.1000000000D+01
 Atom C4       Shell    34 S   6     bf   94 -    94          2.763770084931         -5.562188258293          0.000000000000
      0.1357534968D+05  0.6064550360D-03
      0.2035233368D+04  0.4697908888D-02
      0.4632256236D+03  0.2433247765D-01
      0.1312001960D+03  0.9739996831D-01
      0.4285301589D+02  0.3019558425D+00
      0.1558418577D+02  0.6623360914D+00
 Atom C4       Shell    35 S   2     bf   95 -    95          2.763770084931         -5.562188258293          0.000000000000
      0.6206713851D+01  0.6559530854D+00
      0.2576489653D+01  0.3758563329D+00
 Atom C4       Shell    36 S   1     bf   96 -    96          2.763770084931         -5.562188258293          0.000000000000
      0.5769633942D+00  0.1000000000D+01
 Atom C4       Shell    37 S   1     bf   97 -    97          2.763770084931         -5.562188258293          0.000000000000
      0.2297283136D+00  0.1000000000D+01
 Atom C4       Shell    38 S   1     bf   98 -    98          2.763770084931         -5.562188258293          0.000000000000
      0.9516444003D-01  0.1000000000D+01
 Atom C4       Shell    39 P   4     bf   99 -   101          2.763770084931         -5.562188258293          0.000000000000
      0.3469723224D+02  0.1132722000D-01
      0.7958262283D+01  0.7616965920D-01
      0.2378082688D+01  0.3019225220D+00
      0.8143320818D+00  0.7278502735D+00
 Atom C4       Shell    40 P   1     bf  102 -   104          2.763770084931         -5.562188258293          0.000000000000
      0.2888754725D+00  0.1000000000D+01
 Atom C4       Shell    41 P   1     bf  105 -   107          2.763770084931         -5.562188258293          0.000000000000
      0.1005682367D+00  0.1000000000D+01
 Atom C4       Shell    42 D   1     bf  108 -   112          2.763770084931         -5.562188258293          0.000000000000
      0.1097000000D+01  0.1000000000D+01
 Atom C4       Shell    43 D   1     bf  113 -   117          2.763770084931         -5.562188258293          0.000000000000
      0.3180000000D+00  0.1000000000D+01
 Atom C4       Shell    44 F   1     bf  118 -   124          2.763770084931         -5.562188258293          0.000000000000
      0.7610000000D+00  0.1000000000D+01
 Atom C5       Shell    45 S   6     bf  125 -   125          4.398061153985         -0.410343089144          0.000000000000
      0.1357534968D+05  0.6064550360D-03
      0.2035233368D+04  0.4697908888D-02
      0.4632256236D+03  0.2433247765D-01
      0.1312001960D+03  0.9739996831D-01
      0.4285301589D+02  0.3019558425D+00
      0.1558418577D+02  0.6623360914D+00
 Atom C5       Shell    46 S   2     bf  126 -   126          4.398061153985         -0.410343089144          0.000000000000
      0.6206713851D+01  0.6559530854D+00
      0.2576489653D+01  0.3758563329D+00
 Atom C5       Shell    47 S   1     bf  127 -   127          4.398061153985         -0.410343089144          0.000000000000
      0.5769633942D+00  0.1000000000D+01
 Atom C5       Shell    48 S   1     bf  128 -   128          4.398061153985         -0.410343089144          0.000000000000
      0.2297283136D+00  0.1000000000D+01
 Atom C5       Shell    49 S   1     bf  129 -   129          4.398061153985         -0.410343089144          0.000000000000
      0.9516444003D-01  0.1000000000D+01
 Atom C5       Shell    50 P   4     bf  130 -   132          4.398061153985         -0.410343089144          0.000000000000
      0.3469723224D+02  0.1132722000D-01
      0.7958262283D+01  0.7616965920D-01
      0.2378082688D+01  0.3019225220D+00
      0.8143320818D+00  0.7278502735D+00
 Atom C5       Shell    51 P   1     bf  133 -   135          4.398061153985         -0.410343089144          0.000000000000
      0.2888754725D+00  0.1000000000D+01
 Atom C5       Shell    52 P   1     bf  136 -   138          4.398061153985         -0.410343089144          0.000000000000
      0.1005682367D+00  0.1000000000D+01
 Atom C5       Shell    53 D   1     bf  139 -   143          4.398061153985         -0.410343089144          0.000000000000
      0.1097000000D+01  0.1000000000D+01
 Atom C5       Shell    54 D   1     bf  144 -   148          4.398061153985         -0.410343089144          0.000000000000
      0.3180000000D+00  0.1000000000D+01
 Atom C5       Shell    55 F   1     bf  149 -   155          4.398061153985         -0.410343089144          0.000000000000
      0.7610000000D+00  0.1000000000D+01
 Atom C6       Shell    56 S   6     bf  156 -   156          3.401069566671          4.054334084672          0.000000000000
      0.1357534968D+05  0.6064550360D-03
      0.2035233368D+04  0.4697908888D-02
      0.4632256236D+03  0.2433247765D-01
      0.1312001960D+03  0.9739996831D-01
      0.4285301589D+02  0.3019558425D+00
      0.1558418577D+02  0.6623360914D+00
[...]
 0,0.,0.00022473,0.00015621,0.,0.00000915,-0.00006645,0.,-0.00040820,-0
 .00183686,0.,0.00025948,-0.00001038,0.,0.00002154,-0.00001571,0.,-0.00
 005823,-0.00000935,0.,-0.00001804,0.00003029,0.,-0.00000807,-0.0000110
 1,0.,-0.00000642,0.00000093,0.,-0.00001154,0.00005589,0.,-0.00020706,0
 .00011735,0.,-0.00006252,-0.00004394,0.,-0.00000858,0.00002961,0.,-0.0
 0000173,-0.00001344,0.,-0.00002316,-0.00002934,0.,-0.00147943,0.002151
 64,0.,0.00039660,0.00156277,0.,0.00085030,0.00035998,0.,0.00407639,-0.
 00289406,0.,-0.01474287,-0.01987418,0.,-0.11939960,-0.28090071,0.,0.00
 002133,0.00000302,0.,-0.00001003,-0.00000305,0.,0.00000237,0.00000676,
 0.,-0.00001102,-0.00000529,0.,-0.00000331,-0.00000440,0.,-0.00001169,0
 .00000230,0.,0.00000136,0.00000927,0.,-0.00000522,0.00000752,0.,0.0000
 0618,-0.00000377,0.,-0.00000354,-0.00000095,0.,0.00429814,-0.00338718,
 0.,0.00000377,-0.00000613,0.,0.00001035,0.00000259,0.,-0.00000502,-0.0
 0000310,0.,0.00000762,0.00000371,0.,0.00000334,0.00000300,0.,-0.000004
 80,0.00000249,0.,-0.00005128,-0.00005667,0.,-0.00067689,-0.00100209,0.
 ,0.00032018,0.00091811,0.,0.12443747,0.30574778,0.,0.,-0.00103817,0.,0
 .,-0.00017942,0.,0.,-0.00002468,0.,0.,-0.00206155,0.,0.,0.00012796,0.,
 0.,-0.00003332,0.,0.,0.00002468,0.,0.,0.00003996,0.,0.,-0.00003655,0.,
 0.,-0.00000169,0.,0.,-0.00015076,0.,0.,-0.00024803,0.,0.,0.00012945,0.
 ,0.,0.00007065,0.,0.,-0.00002727,0.,0.,0.00003495,0.,0.,0.00140700,0.,
 0.,0.00679940,0.,0.,-0.00115220,0.,0.,0.00877766,0.,0.,0.00338128,0.,0
 .,-0.03573549,0.,0.,-0.00003893,0.,0.,0.00000374,0.,0.,-0.00000147,0.,
 0.,0.00000593,0.,0.,-0.00001748,0.,0.,0.00003958,0.,0.,-0.00002479,0.,
 0.,0.00001207,0.,0.,-0.00000781,0.,0.,0.00000728,0.,0.,0.00232477,0.,0
 .,-0.00003296,0.,0.,0.00008151,0.,0.,-0.00000722,0.,0.,0.00000636,0.,0
 .,0.00001764,0.,0.,0.00000249,0.,0.,-0.00103950,0.,0.,-0.00004011,0.,0
 .,-0.00451731,0.,0.,0.02311959,-0.00000525,0.00000442,0.,0.00000094,-0
 .00000925,0.,-0.00002203,-0.00000057,0.,-0.00000043,-0.00001039,0.,-0.
 00000395,0.00000223,0.,-0.00004723,0.00003961,0.,-0.00000918,-0.000009
 58,0.,0.00000172,0.00001160,0.,0.00004909,-0.00008570,0.,-0.00002258,-
 0.00005050,0.,-0.00000031,-0.00001027,0.,-0.00000647,0.00002048,0.,0.0
 0002300,-0.00002407,0.,-0.00006133,0.00010365,0.,-0.00005767,-0.000292
 82,0.,-0.00000550,-0.00002527,0.,-0.00000654,-0.00000584,0.,0.00001892
 ,-0.00000472,0.,-0.00001096,0.00000134,0.,-0.00000102,-0.00000206,0.,-
 0.00000700,0.00000067,0.,-0.00000065,0.00000493,0.,0.00057795,-0.00003
 604,0.,-0.33888012,-0.01508171,0.,-0.01258292,-0.00412469,0.,0.0004077
 0,0.00341787,0.,-0.01142820,0.00178748,0.,0.00082873,-0.00254347,0.,-0
 .00056980,0.00063194,0.,0.00023666,0.00010066,0.,0.00005065,-0.0003911
 1,0.,0.00093694,0.00189082,0.,-0.00000436,-0.00000063,0.,-0.00000371,-
 0.00000365,0.,0.00000602,0.00000165,0.,0.00003012,-0.00004988,0.,-0.00
 000659,0.00000466,0.,0.00000208,-0.00000696,0.,-0.00000190,-0.00002619
 ,0.,0.00000577,-0.00000353,0.,-0.00000253,0.00000281,0.,-0.00000366,-0
 .00000042,0.,-0.00000018,-0.00000289,0.,0.36012017,0.00000347,-0.00000
 330,0.,-0.00000641,-0.00000496,0.,-0.00000881,0.00001290,0.,0.00000584
 ,0.00001013,0.,0.00001329,-0.00005730,0.,-0.00003171,-0.00003992,0.,0.
 00003408,0.00010133,0.,0.00019235,0.00014031,0.,-0.00016192,0.00004624
 ,0.,0.00023958,0.00009630,0.,-0.00003242,0.00004355,0.,-0.00000032,-0.
 00000715,0.,-0.00001949,-0.00004607,0.,-0.00009332,-0.00010584,0.,-0.0
 0000656,-0.00029252,0.,0.00011704,-0.00015183,0.,0.00000327,-0.0000054
 4,0.,-0.00000559,0.00001052,0.,0.00000281,-0.00000082,0.,-0.00000038,0
 .00000272,0.,0.00000355,-0.00000023,0.,-0.00000052,0.00000019,0.,-0.00
 012530,-0.00132157,0.,-0.01480582,-0.06110187,0.,0.02761566,0.00654911
 ,0.,0.00261813,-0.00416910,0.,-0.02823059,0.00270736,0.,-0.00148895,-0
 .00480170,0.,-0.00140151,0.00047872,0.,-0.00026731,0.00004675,0.,0.000
 50854,0.00016249,0.,-0.00184644,0.00121030,0.,0.00000025,-0.00000008,0
 .,-0.00000141,0.00000076,0.,0.00000098,0.00000101,0.,-0.00003587,0.000
 07224,0.,-0.00000186,-0.00000202,0.,0.00000516,-0.00000038,0.,-0.00000
 757,-0.00002585,0.,-0.00000201,0.00000139,0.,0.00000069,-0.00000095,0.
 ,0.00000093,0.00000034,0.,0.00000039,0.00000079,0.,0.01549080,0.060122
 51,0.,0.,-0.00000980,0.,0.,0.00001858,0.,0.,-0.00000572,0.,0.,0.000021
 43,0.,0.,-0.00002162,0.,0.,0.00004057,0.,0.,-0.00007723,0.,0.,-0.00095
 501,0.,0.,0.00001000,0.,0.,0.00000147,0.,0.,0.00008794,0.,0.,-0.000021
 79,0.,0.,-0.00009162,0.,0.,0.00001352,0.,0.,0.00002149,0.,0.,0.0000749
 0,0.,0.,-0.00000499,0.,0.,0.00002387,0.,0.,-0.00000045,0.,0.,-0.000006
 28,0.,0.,0.00000327,0.,0.,-0.00000403,0.,0.,-0.00107174,0.,0.,-0.03584
 738,0.,0.,0.00283953,0.,0.,0.00789855,0.,0.,0.00298724,0.,0.,0.0063825
 5,0.,0.,0.00008281,0.,0.,0.00008163,0.,0.,-0.00012599,0.,0.,-0.0037021
 5,0.,0.,-0.00000059,0.,0.,0.00000131,0.,0.,-0.00000540,0.,0.,0.0000994
 9,0.,0.,0.00000030,0.,0.,-0.00000324,0.,0.,0.00002191,0.,0.,0.00000374
 ,0.,0.,0.00000134,0.,0.,0.00000038,0.,0.,0.00000021,0.,0.,0.02489091,-
 0.00000712,-0.00001116,0.,-0.00000896,0.00000174,0.,0.00000255,0.00000
 688,0.,-0.00000231,-0.00001158,0.,-0.00001877,-0.00006921,0.,-0.000055
 54,-0.00001108,0.,0.00005817,0.00006952,0.,0.00026034,-0.00153054,0.,-
 0.00018544,0.00010156,0.,0.00020517,0.00011074,0.,-0.00004480,-0.00010
 943,0.,-0.00005006,0.00002463,0.,-0.00001376,-0.00000968,0.,0.00004528
 ,-0.00021533,0.,0.00005856,0.00025199,0.,-0.00044642,0.00006798,0.,-0.
 00000742,-0.00000564,0.,0.00004095,0.00000448,0.,-0.00001995,-0.000005
 50,0.,0.00000245,-0.00000268,0.,-0.00001511,-0.00000172,0.,0.00000115,
 0.00000831,0.,-0.00566083,0.00079535,0.,0.01211791,0.01687377,0.,-0.11
 639745,-0.11202162,0.,-0.00905874,-0.02971945,0.,-0.00156107,0.0036276
 6,0.,-0.00079528,0.00092606,0.,0.00002552,-0.00016604,0.,-0.00031045,-
 0.00016287,0.,0.00006748,0.00036707,0.,0.00068222,0.00023297,0.,-0.000
 00315,-0.00000239,0.,-0.00000144,-0.00000249,0.,0.00000078,-0.00000300
 ,0.,-0.00000854,0.00001210,0.,-0.00002740,0.00000611,0.,-0.00000185,-0
 .00000337,0.,0.00000187,-0.00000677,0.,0.00000417,-0.00000125,0.,-0.00
 000442,0.00000257,0.,-0.00000244,-0.00000018,0.,-0.00000115,-0.0000022
 2,0.,0.00076049,-0.00044665,0.,0.11953715,-0.00001773,0.00000023,0.,0.
 00000468,0.00000593,0.,-0.00001916,-0.00000613,0.,-0.00000176,-0.00001
 417,0.,-0.00001417,0.00003082,0.,-0.00001791,-0.00003680,0.,-0.0000343
 8,-0.00003478,0.,0.00004229,-0.00003321,0.,0.00008946,-0.00002768,0.,-
 0.00010902,-0.00007011,0.,0.00002119,-0.00000611,0.,-0.00001472,0.0000
 1072,0.,0.00003944,-0.00000213,0.,-0.00004159,0.00010763,0.,-0.0000359
 6,-0.00012148,0.,-0.00006262,0.00009203,0.,-0.00000513,-0.00000043,0.,
 0.00002068,-0.00000049,0.,-0.00001329,-0.00000438,0.,-0.00000120,-0.00
 000301,0.,-0.00001117,0.00000051,0.,-0.00000017,0.00000798,0.,0.000426
 00,0.00178930,0.,-0.01487819,-0.01844356,0.,-0.11213752,-0.28646999,0.
 ,0.00185420,0.00218619,0.,0.00417638,-0.00257570,0.,0.00075020,0.00022
 824,0.,-0.00002539,0.00007975,0.,0.00020471,0.00010754,0.,0.00026723,-
 0.00044250,0.,-0.00114258,-0.00052255,0.,-0.00000346,-0.00000045,0.,-0
 .00000325,-0.00000417,0.,0.00000433,0.00000167,0.,0.00001166,-0.000017
 51,0.,-0.00000884,0.00000634,0.,-0.00000417,-0.00000836,0.,0.00000509,
 0.00000054,0.,0.00000459,-0.00000105,0.,-0.00000330,0.00000330,0.,-0.0
 0000353,-0.00000020,0.,0.00000074,-0.00000301,0.,0.00032535,0.00085970
 ,0.,0.12070371,0.30256011,0.,0.,-0.00000042,0.,0.,-0.00000011,0.,0.,0.
 00000220,0.,0.,-0.00000141,0.,0.,0.00003678,0.,0.,0.00021599,0.,0.,-0.
 00010225,0.,0.,0.00017705,0.,0.,-0.00000915,0.,0.,0.00005265,0.,0.,-0.
 00002003,0.,0.,-0.00000534,0.,0.,-0.00001301,0.,0.,0.00006165,0.,0.,0.
 00008149,0.,0.,-0.00035655,0.,0.,-0.00000165,0.,0.,0.00000074,0.,0.,0.
 00000470,0.,0.,-0.00000396,0.,0.,-0.00000196,0.,0.,0.00000022,0.,0.,0.
 00743126,0.,0.,0.00269763,0.,0.,-0.03705312,0.,0.,0.00208927,0.,0.,0.0
 0836022,0.,0.,-0.00093676,0.,0.,-0.00086031,0.,0.,0.00009147,0.,0.,-0.
 00045221,0.,0.,0.00017874,0.,0.,0.00000144,0.,0.,0.00000066,0.,0.,-0.0
 0000071,0.,0.,-0.00003746,0.,0.,0.00002560,0.,0.,0.00000371,0.,0.,-0.0
 0000392,0.,0.,-0.00000154,0.,0.,0.00000213,0.,0.,0.00000125,0.,0.,0.00
 000048,0.,0.,-0.00412948,0.,0.,0.02607483,-0.00001358,0.00000301,0.,0.
 00000922,0.00002353,0.,0.00000458,-0.00000503,0.,0.00001079,0.00001547
 ,0.,0.00000906,0.00003050,0.,-0.00218551,-0.00197861,0.,0.00000226,0.0
 0018024,0.,-0.00067503,0.00130514,0.,0.00016154,-0.00007492,0.,-0.0000
 9276,-0.00015303,0.,0.00005459,0.00010208,0.,-0.00000360,-0.00003835,0
 .,0.00002123,0.00001192,0.,-0.00002617,0.00022712,0.,-0.00001853,-0.00
 010823,0.,0.00012546,0.00011154,0.,0.00001256,0.00000594,0.,-0.0000471
 4,0.00004203,0.,0.00001977,-0.00001009,0.,-0.00000150,0.00000543,0.,0.
 00001183,0.00000269,0.,0.00000219,0.00000038,0.,0.01295939,-0.01107708
 ,0.,-0.00558511,-0.00144807,0.,-0.01254303,0.02916755,0.,-0.13372718,0
 .12544289,0.,-0.00051289,-0.00108405,0.,-0.00129781,-0.00321471,0.,0.0
 0080996,-0.00036042,0.,0.00006582,-0.00006930,0.,-0.00019791,-0.000146
 32,0.,0.00000328,0.00036452,0.,0.00000507,0.00000197,0.,0.00000078,0.0
 0000348,0.,-0.00000036,0.00000745,0.,-0.00483197,-0.00077937,0.,-0.000
 03002,-0.00000960,0.,0.00000253,0.00000198,0.,-0.00001444,-0.00002234,
 0.,-0.00001342,0.00001076,0.,0.00000428,-0.00000392,0.,0.00000521,0.00
 000157,0.,0.00000389,0.00000377,0.,-0.00072625,0.00128971,0.,0.0008206
 2,-0.00032599,0.,0.14737230,-0.00004147,0.00001078,0.,0.00001886,0.000
 03156,0.,-0.00003231,-0.00000937,0.,0.00002071,0.00000009,0.,0.0001653
 0,0.00002483,0.,0.00078015,-0.00068125,0.,-0.00009497,0.00084687,0.,0.
 00181578,0.00015275,0.,-0.00000447,-0.00009161,0.,0.00006335,-0.000077
 15,0.,0.00011583,0.00000389,0.,-0.00008376,-0.00005365,0.,0.00008124,0
 .00001879,0.,-0.00001098,0.00010874,0.,0.00011956,0.00000057,0.,-0.000
 23178,-0.00008876,0.,0.00002622,-0.00000028,0.,-0.00002833,0.00011825,
 0.,0.00000376,-0.00002690,0.,-0.00000576,0.00001050,0.,0.00000549,0.00
 000376,0.,0.00000341,0.00001428,0.,0.01677911,-0.01889449,0.,-0.000747
 87,0.00163620,0.,-0.00310149,0.00457064,0.,0.12570325,-0.26954715,0.,-
 0.00079905,-0.00009645,0.,-0.00402142,-0.00305931,0.,0.00140797,-0.000
 50671,0.,-0.00027960,-0.00033407,0.,-0.00016923,-0.00007289,0.,0.00005
 906,0.00023015,0.,0.00000186,-0.00000005,0.,-0.00000290,0.00000079,0.,
 0.00000744,0.00001827,0.,-0.00019697,0.00192741,0.,-0.00002153,-0.0000
 1696,0.,-0.00000159,-0.00000650,0.,-0.00002078,-0.00005480,0.,-0.00001
 396,0.00001863,0.,0.00000211,-0.00000209,0.,0.00000369,0.00000224,0.,0
 .00000869,0.00000236,0.,-0.00018612,0.00005195,0.,0.00025322,0.0008971
 2,0.,-0.13740205,0.28296570,0.,0.,-0.00001093,0.,0.,0.00003146,0.,0.,-
 0.00009183,0.,0.,-0.00002645,0.,0.,0.00030757,0.,0.,-0.00082832,0.,0.,
 -0.00041104,0.,0.,-0.00290728,0.,0.,0.00010580,0.,0.,-0.00001308,0.,0.
 ,-0.00005941,0.,0.,0.00007358,0.,0.,0.00006167,0.,0.,-0.00000128,0.,0.
 ,-0.00013879,0.,0.,-0.00006767,0.,0.,0.00009485,0.,0.,-0.00011066,0.,0
 .,0.00003432,0.,0.,-0.00000865,0.,0.,0.00000268,0.,0.,-0.00003018,0.,0
 .,0.00203477,0.,0.,0.00743291,0.,0.,0.00281822,0.,0.,-0.03538617,0.,0.
 ,-0.00117262,0.,0.,0.00766084,0.,0.,0.00025081,0.,0.,-0.00027176,0.,0.
 ,0.00012494,0.,0.,-0.00094018,0.,0.,-0.00000362,0.,0.,-0.00000108,0.,0
 .,0.00003260,0.,0.,0.00222255,0.,0.,-0.00001959,0.,0.,-0.00003506,0.,0
 .,-0.00008646,0.,0.,0.00002445,0.,0.,-0.00000323,0.,0.,0.00000491,0.,0
 .,0.00000070,0.,0.,0.00001216,0.,0.,-0.00367045,0.,0.,0.02282065,-0.00
 003255,-0.00001344,0.,-0.00000452,0.00000277,0.,-0.00004475,0.00002840
 ,0.,0.00001963,-0.00001596,0.,-0.00004242,-0.00004544,0.,-0.00000646,0
 .00002378,0.,0.00001740,0.00001850,0.,0.00004101,-0.00005603,0.,0.0000
 6282,-0.00035168,0.,0.00134887,0.00193008,0.,-0.00003982,0.00017378,0.
 ,-0.00001086,-0.00000287,0.,0.00006407,-0.00010810,0.,0.00012648,0.000
 00270,0.,-0.00014065,0.00166165,0.,-0.00043659,-0.00026534,0.,0.000003
 85,-0.00000686,0.,0.00000796,0.00001982,0.,-0.00001101,-0.00000324,0.,
 -0.00000115,0.00000309,0.,-0.00000305,-0.00000041,0.,-0.00000224,0.000
 00439,0.,0.00001949,0.00025972,0.,0.00059675,-0.00017039,0.,0.00008744
 ,-0.00022495,0.,-0.00016533,-0.00010709,0.,-0.00106804,-0.00299945,0.,
 -0.00025654,-0.00088674,0.,-0.00506013,-0.00231508,0.,-0.01256656,0.02
 729201,0.,-0.14259149,0.12833767,0.,0.01194679,-0.01400194,0.,-0.00000
 156,-0.00000200,0.,-0.00000727,-0.00000385,0.,-0.00000124,-0.00001111,
 0.,-0.00000773,0.00001481,0.,-0.00000036,0.00000445,0.,-0.00004202,-0.
 00001682,0.,-0.00025351,-0.00132475,0.,0.00000215,0.00000024,0.,-0.000
 00200,0.00000168,0.,-0.00000222,0.00000018,0.,0.00000159,-0.00000195,0
 .,-0.00002021,0.00000928,0.,0.00003890,-0.00006538,0.,0.00000394,0.000
 01216,0.,0.14757594,0.00001934,0.00000967,0.,0.00000773,-0.00001414,0.
 ,0.00001634,-0.00000806,0.,-0.00000179,0.00000681,0.,0.00000149,0.0000
 1081,0.,0.00004305,-0.00000106,0.,-0.00000388,-0.00000211,0.,-0.000042
 90,-0.00003085,0.,0.00045590,0.00001551,0.,-0.00153168,0.00113465,0.,-
 0.00000860,-0.00003114,0.,0.00001335,0.00002843,0.,0.00001639,0.000007
 17,0.,-0.00012799,0.00031186,0.,-0.00036164,-0.00000209,0.,-0.00000456
 ,0.00000163,0.,0.00000397,0.00000412,0.,-0.00002077,0.00000018,0.,0.00
 001131,0.00000191,0.,0.00000095,0.00000234,0.,0.00000905,-0.00000030,0
 .,0.00000096,-0.00000763,0.,0.00005929,0.00018714,0.,0.00125182,-0.000
 48889,0.,-0.00020607,-0.00047775,0.,-0.00015812,-0.00001122,0.,-0.0041
 9073,-0.00276874,0.,-0.00040091,0.00001778,0.,-0.00097739,0.00082455,0
 .,-0.00279025,0.00367203,0.,0.12755969,-0.25591375,0.,0.01831143,-0.01
 924105,0.,0.00000361,-0.00000006,0.,0.00000470,0.00000482,0.,-0.000005
 32,-0.00000506,0.,-0.00000721,0.00000192,0.,0.00000498,-0.00000504,0.,
 0.00003892,0.00000239,0.,0.00038390,0.00010423,0.,-0.00000419,0.000001
 31,0.,0.00000250,-0.00000305,0.,0.00000361,0.00000006,0.,-0.00000090,0
 .00000318,0.,-0.00005964,-0.00000267,0.,0.00008026,-0.00012136,0.,0.00
 001045,-0.00001909,0.,-0.13706104,0.27199635,0.,0.,0.00000266,0.,0.,-0
 .00000537,0.,0.,-0.00000608,0.,0.,-0.00001058,0.,0.,0.00000768,0.,0.,0
 .00000364,0.,0.,-0.00001368,0.,0.,0.00004387,0.,0.,-0.00014299,0.,0.,-
 0.00211482,0.,0.,-0.00002269,0.,0.,-0.00000148,0.,0.,0.00004105,0.,0.,
 -0.00002054,0.,0.,0.00015889,0.,0.,0.00002705,0.,0.,0.00000628,0.,0.,-
 0.00000675,0.,0.,0.00000238,0.,0.,-0.00000124,0.,0.,-0.00000065,0.,0.,
 -0.00000224,0.,0.,-0.00075940,0.,0.,0.00005920,0.,0.,-0.00078711,0.,0.
 ,0.00011855,0.,0.,0.01042347,0.,0.,-0.00077167,0.,0.,0.00390737,0.,0.,
 0.00265100,0.,0.,-0.03722574,0.,0.,0.00419154,0.,0.,0.00000031,0.,0.,0
 .00000288,0.,0.,0.00000796,0.,0.,0.00000543,0.,0.,0.00000091,0.,0.,0.0
 0009342,0.,0.,0.00022164,0.,0.,0.00000079,0.,0.,0.00000054,0.,0.,0.000
 00077,0.,0.,0.00000140,0.,0.,0.00022685,0.,0.,-0.00002381,0.,0.,0.0001
 0348,0.,0.,0.02536742,-0.00000427,0.00000124,0.,-0.00000067,-0.0000034
 2,0.,-0.00001593,-0.00000863,0.,-0.00000006,-0.00000470,0.,0.00000364,
 -0.00001399,0.,-0.00010207,-0.00005478,0.,-0.00001261,0.00004740,0.,0.
 00001737,0.00029116,0.,-0.00005464,-0.00031769,0.,-0.00061203,0.000343
 85,0.,-0.00000956,0.00002535,0.,-0.00000866,0.00001893,0.,0.00001273,-
 0.00000283,0.,0.00004209,-0.00000388,0.,-0.00003415,0.00001920,0.,0.00
 001878,-0.00004472,0.,-0.00000669,-0.00000529,0.,0.00001837,0.00000018
 ,0.,-0.00001194,-0.00000103,0.,-0.00000131,-0.00000280,0.,-0.00000875,
 0.00000046,0.,-0.00000024,0.00000674,0.,-0.00071894,-0.00080478,0.,0.0
 0103681,-0.00175945,0.,-0.00002400,0.00036411,0.,0.00029005,0.00011147
 ,0.,-0.01385944,-0.00387431,0.,0.00027015,0.00307819,0.,0.00050777,0.0
 0021345,0.,0.00131609,-0.00242821,0.,-0.00999956,0.00179865,0.,-0.3382
 9593,-0.01922047,0.,-0.00000479,-0.00000009,0.,-0.00000343,-0.00000377
 ,0.,0.00000789,0.00000815,0.,0.00001397,0.00000440,0.,-0.00001345,0.00
 000400,0.,-0.00006608,-0.00000307,0.,0.00001264,-0.00003367,0.,0.00000
 541,-0.00000298,0.,-0.00000274,0.00000291,0.,-0.00000360,-0.00000031,0
 .,-0.00000043,-0.00000290,0.,0.00044160,0.00087294,0.,-0.00002185,0.00
 004967,0.,0.00004207,0.00004016,0.,0.00085720,-0.00034941,0.,0.3589831
 9,-0.00001994,-0.00000559,0.,-0.00000288,0.00002187,0.,-0.00001343,-0.
 00000003,0.,0.00000590,-0.00000265,0.,0.00000452,-0.00000115,0.,0.0001
 3069,0.00006361,0.,0.00000975,-0.00003195,0.,0.00002854,-0.00040617,0.
 ,-0.00031165,-0.00032874,0.,-0.00109932,0.00069406,0.,-0.00000808,0.00
 003983,0.,-0.00001313,-0.00003602,0.,-0.00000205,0.00001994,0.,0.00012
 610,-0.00021781,0.,0.00017851,0.00020508,0.,-0.00005175,-0.00000651,0.
 ,0.00000622,-0.00000639,0.,-0.00000148,0.00000495,0.,-0.00000120,-0.00
 000174,0.,-0.00000183,0.00000378,0.,0.00000165,0.00000036,0.,-0.000003
 14,0.00000463,0.,0.00126778,0.00050748,0.,0.00162886,0.00142298,0.,-0.
 00040373,0.00010400,0.,0.00012606,0.00010531,0.,0.02619395,0.00508575,
 0.,0.00164301,-0.00451322,0.,-0.00022390,-0.00078550,0.,-0.00123599,-0
 .00508796,0.,-0.03049787,0.00276719,0.,-0.01840581,-0.06044780,0.,-0.0
 0000203,0.00000067,0.,-0.00000292,-0.00000244,0.,0.00000698,0.00001427
 ,0.,-0.00000680,0.00000314,0.,0.00001331,0.00000128,0.,-0.00013691,-0.
 00001570,0.,0.00003109,-0.00003757,0.,0.00000010,0.00000193,0.,-0.0000
 0054,0.00000106,0.,-0.00000140,0.00000034,0.,0.00000288,-0.00000105,0.
 ,-0.00079501,-0.00058806,0.,-0.00000683,-0.00000431,0.,-0.00006160,-0.
 00002760,0.,0.00026074,0.00080424,0.,0.02164458,0.06067819,0.,0.,-0.00
 000727,0.,0.,0.00002100,0.,0.,-0.00001430,0.,0.,0.00000499,0.,0.,0.000
 00151,0.,0.,-0.00001087,0.,0.,-0.00004038,0.,0.,0.00007275,0.,0.,-0.00
 071003,0.,0.,0.00010994,0.,0.,0.00001537,0.,0.,-0.00001078,0.,0.,0.000
 08605,0.,0.,0.00013436,0.,0.,-0.00085091,0.,0.,0.00006837,0.,0.,-0.000
 00780,0.,0.,0.00001067,0.,0.,-0.00000154,0.,0.,-0.00000072,0.,0.,-0.00
 000031,0.,0.,0.00000075,0.,0.,0.00005981,0.,0.,-0.00206766,0.,0.,-0.00
 017730,0.,0.,-0.00002038,0.,0.,0.00269473,0.,0.,0.00394222,0.,0.,-0.00
 078533,0.,0.,0.01032060,0.,0.,0.00421548,0.,0.,-0.03700202,0.,0.,-0.00
 000085,0.,0.,0.00000112,0.,0.,-0.00001872,0.,0.,0.00001856,0.,0.,0.000
 00356,0.,0.,-0.00000882,0.,0.,0.00018867,0.,0.,0.00000056,0.,0.,0.0000
 0079,0.,0.,0.00000039,0.,0.,-0.00000004,0.,0.,0.00023653,0.,0.,0.00009
 345,0.,0.,0.00003986,0.,0.,-0.00576158,0.,0.,0.02515553\\-0.00000115,0
 .00000233,0.,-0.00000039,0.00000025,0.,-0.00000155,0.00000036,0.,-0.00
 000045,0.00000042,0.,0.00000082,0.00000020,0.,0.00000117,-0.00000009,0
 .,0.00000040,0.00000046,0.,0.00000102,-0.00000036,0.,-0.00000157,-0.00
 000006,0.,-0.00000091,-0.00000121,0.,-0.00000007,0.00000103,0.,0.00000
 004,0.00000015,0.,-0.00000005,0.00000092,0.,-0.00000143,-0.00000106,0.
 ,-0.00000011,0.00000044,0.,0.00000038,-0.00000037,0.,-0.00000157,0.000
 00072,0.,-0.00000022,0.00000282,0.,0.00000293,0.00000010,0.,-0.0000008
 6,0.00000129,0.,-0.00000019,0.00000366,0.,0.00000225,0.00000103,0.,-0.
 00000001,-0.00000213,0.,0.00000116,-0.00000313,0.,0.00000002,-0.000000
 80,0.,0.00000165,-0.00000066,0.,-0.00000093,-0.00000017,0.,0.00000102,
 0.00000065,0.,-0.00000046,-0.00000304,0.,-0.00000205,0.00000014,0.,0.0
 0000141,-0.00000053,0.,0.00000011,-0.00000409,0.,-0.00000102,0.0000014
 9,0.,-0.00000153,0.00000123,0.,-0.00000114,0.00000015,0.,0.00000120,-0
 .00000024,0.,0.00000136,0.00000057,0.,-0.00000164,-0.00000056,0.,-0.00
 000130,-0.00000106,0.,0.00000068,0.00000133,0.,0.00000120,0.00000207,0
 .,0.00000038,0.00000223,0.,-0.00000071,0.00000195,0.,0.00000074,-0.000
 00212,0.,0.00000138,-0.00000175,0.,0.00000140,-0.00000077,0.,-0.000001
 28,-0.00000204,0.,-0.00000012,-0.00000173,0.\\\@


 THERE IS SOMETHING FASCINATING ABOUT SCIENCE.
 ONE GETS SUCH WHOLESALE CONJECTURE OUT OF SUCH TRIFLING INVESTMENTS.

                                                       -- MARK TWAIN
 Job cpu time:       5 days 14 hours 36 minutes 15.5 seconds.
 File lengths (MBytes):  RWF=   4428 Int=      0 D2E=      0 Chk=     85 Scr=      1
 Normal termination of Gaussian 09 at Sun Jul 28 07:00:21 2019.
