 Entering Gaussian System, Link 0=/home/minenky/programs/g09/g09
 Input=m1_00_110-83-80_C6H10_wB97XD.inp
 Output=m1_00_110-83-80_C6H10_wB97XD.out
 Initial command:
 /home/minenky/programs//g09/l1.exe "/home/minenky/tmp/Gau-10751.inp" -scrdir="/home/minenky/tmp/"
 Entering Link 1 = /home/minenky/programs//g09/l1.exe PID=     10753.
  
 Copyright (c) 1988,1990,1992,1993,1995,1998,2003,2009,2013,
            Gaussian, Inc.  All Rights Reserved.
  
 This is part of the Gaussian(R) 09 program.  It is based on
 the Gaussian(R) 03 system (copyright 2003, Gaussian, Inc.),
 the Gaussian(R) 98 system (copyright 1998, Gaussian, Inc.),
 the Gaussian(R) 94 system (copyright 1995, Gaussian, Inc.),
 the Gaussian 92(TM) system (copyright 1992, Gaussian, Inc.),
 the Gaussian 90(TM) system (copyright 1990, Gaussian, Inc.),
 the Gaussian 88(TM) system (copyright 1988, Gaussian, Inc.),
 the Gaussian 86(TM) system (copyright 1986, Carnegie Mellon
 University), and the Gaussian 82(TM) system (copyright 1983,
 Carnegie Mellon University). Gaussian is a federally registered
 trademark of Gaussian, Inc.
  
 This software contains proprietary and confidential information,
 including trade secrets, belonging to Gaussian, Inc.
  
 This software is provided under written license and may be
 used, copied, transmitted, or stored only in accord with that
 written license.
  
 The following legend is applicable only to US Government
 contracts under FAR:
  
                    RESTRICTED RIGHTS LEGEND
  
 Use, reproduction and disclosure by the US Government is
 subject to restrictions as set forth in subparagraphs (a)
 and (c) of the Commercial Computer Software - Restricted
 Rights clause in FAR 52.227-19.
  
 Gaussian, Inc.
 340 Quinnipiac St., Bldg. 40, Wallingford CT 06492
  
  
 ---------------------------------------------------------------
 Warning -- This program may not be used in any manner that
 competes with the business of Gaussian, Inc. or will provide
 assistance to any competitor of Gaussian, Inc.  The licensee
 of this program is prohibited from giving any competitor of
 Gaussian, Inc. access to this program.  By using this program,
 the user acknowledges that Gaussian, Inc. is engaged in the
 business of creating and licensing software in the field of
 computational chemistry and represents and warrants to the
 licensee that it is not a competitor of Gaussian, Inc. and that
 it will not use this program in any manner prohibited above.
 ---------------------------------------------------------------
  

 Cite this work as:
 Gaussian 09, Revision D.01,
 M. J. Frisch, G. W. Trucks, H. B. Schlegel, G. E. Scuseria, 
 M. A. Robb, J. R. Cheeseman, G. Scalmani, V. Barone, B. Mennucci, 
 G. A. Petersson, H. Nakatsuji, M. Caricato, X. Li, H. P. Hratchian, 
 A. F. Izmaylov, J. Bloino, G. Zheng, J. L. Sonnenberg, M. Hada, 
 M. Ehara, K. Toyota, R. Fukuda, J. Hasegawa, M. Ishida, T. Nakajima, 
 Y. Honda, O. Kitao, H. Nakai, T. Vreven, J. A. Montgomery, Jr., 
 J. E. Peralta, F. Ogliaro, M. Bearpark, J. J. Heyd, E. Brothers, 
 K. N. Kudin, V. N. Staroverov, T. Keith, R. Kobayashi, J. Normand, 
 K. Raghavachari, A. Rendell, J. C. Burant, S. S. Iyengar, J. Tomasi, 
 M. Cossi, N. Rega, J. M. Millam, M. Klene, J. E. Knox, J. B. Cross, 
 V. Bakken, C. Adamo, J. Jaramillo, R. Gomperts, R. E. Stratmann, 
 O. Yazyev, A. J. Austin, R. Cammi, C. Pomelli, J. W. Ochterski, 
 R. L. Martin, K. Morokuma, V. G. Zakrzewski, G. A. Voth, 
 P. Salvador, J. J. Dannenberg, S. Dapprich, A. D. Daniels, 
 O. Farkas, J. B. Foresman, J. V. Ortiz, J. Cioslowski, 
 and D. J. Fox, Gaussian, Inc., Wallingford CT, 2013.
 
 ******************************************
 Gaussian 09:  AM64L-G09RevD.01 24-Apr-2013
                28-Sep-2023 
 ******************************************
 %chk=m1_00_110-83-80_C6H10_wB97XD
 %NProcLinda=1
 Will use up to    1 processors via Linda.
 %Nprocshared=16
 Will use up to   16 processors via shared memory.
 %mem=48000MB
 ----------------------------------------------------------------------
 #P wB97XD/def2tzvp opt=(tight) freq integral(Grid=ultrafine) # SCF(Max
 Cycle=380) 5d 7f GFPrint
 ----------------------------------------------------------------------
 1/7=10,14=-1,18=20,19=15,26=4,38=1/1,3;
 2/9=110,12=2,17=6,18=5,40=1/2;
 3/5=44,7=101,8=11,11=2,16=1,24=100,25=1,30=1,71=1,74=-58,75=-5/1,2,3;
 4//1;
 5/5=2,7=380,38=5/2;
 6/7=2,8=2,9=2,10=2,28=1/1;
 7//1,2,3,16;
 1/7=10,14=-1,18=20,19=15,26=4/3(2);
 2/9=110/2;
 99//99;
 2/9=110/2;
 3/5=44,7=101,8=11,11=2,16=1,25=1,30=1,71=1,74=-58,75=-5/1,2,3;
 4/5=5,16=3,69=1/1;
 5/5=2,7=380,38=5/2;
 7//1,2,3,16;
 1/7=10,14=-1,18=20,19=15,26=4/3(-5);
 2/9=110/2;
 6/7=2,8=2,9=2,10=2,19=2,28=1/1;
 99/9=1/99;
 Leave Link    1 at Thu Sep 28 14:49:21 2023, MaxMem=  6291456000 cpu:         0.3
 (Enter /home/minenky/programs//g09/l101.exe)
 ---------------------------------------
 The PBEPBE optimization and frequencies
 ---------------------------------------
 Symbolic Z-matrix:
 Charge =  0 Multiplicity = 1
 C                     0.66245  -1.27887   0.05838 
 C                    -0.66245  -1.27887  -0.05838 
 C                     1.49315  -0.02529   0.11339 
 C                    -1.49315  -0.02529  -0.11339 
 C                     0.69797   1.21334  -0.31364 
 C                    -0.69797   1.21334   0.31364 
 H                     1.19183  -2.22386   0.11531 
 H                    -1.19183  -2.22386  -0.11531 
 H                     1.88137   0.10889   1.13035 
 H                    -1.88137   0.10889  -1.13035 
 H                     2.37635  -0.1433   -0.52073 
 H                    -2.37635  -0.1433    0.52073 
 H                     0.59989   1.21848  -1.40339 
 H                    -0.59989   1.21848   1.40339 
 H                     1.24096   2.12122  -0.04402 
 H                    -1.24096   2.12122   0.04402 
 
 NAtoms=     16 NQM=       16 NQMF=       0 NMMI=      0 NMMIF=      0
                NMic=       0 NMicF=      0.
                    Isotopes and Nuclear Properties:
 (Nuclear quadrupole moments (NQMom) in fm**2, nuclear magnetic moments (NMagM)
  in nuclear magnetons)

  Atom         1           2           3           4           5           6           7           8           9          10
 IAtWgt=          12          12          12          12          12          12           1           1           1           1
 AtmWgt=  12.0000000  12.0000000  12.0000000  12.0000000  12.0000000  12.0000000   1.0078250   1.0078250   1.0078250   1.0078250
 NucSpn=           0           0           0           0           0           0           1           1           1           1
 AtZEff=   0.0000000   0.0000000   0.0000000   0.0000000   0.0000000   0.0000000   0.0000000   0.0000000   0.0000000   0.0000000
 NQMom=    0.0000000   0.0000000   0.0000000   0.0000000   0.0000000   0.0000000   0.0000000   0.0000000   0.0000000   0.0000000
 NMagM=    0.0000000   0.0000000   0.0000000   0.0000000   0.0000000   0.0000000   2.7928460   2.7928460   2.7928460   2.7928460
 AtZNuc=   6.0000000   6.0000000   6.0000000   6.0000000   6.0000000   6.0000000   1.0000000   1.0000000   1.0000000   1.0000000

  Atom        11          12          13          14          15          16
 IAtWgt=           1           1           1           1           1           1
 AtmWgt=   1.0078250   1.0078250   1.0078250   1.0078250   1.0078250   1.0078250
 NucSpn=           1           1           1           1           1           1
 AtZEff=   0.0000000   0.0000000   0.0000000   0.0000000   0.0000000   0.0000000
 NQMom=    0.0000000   0.0000000   0.0000000   0.0000000   0.0000000   0.0000000
 NMagM=    2.7928460   2.7928460   2.7928460   2.7928460   2.7928460   2.7928460
 AtZNuc=   1.0000000   1.0000000   1.0000000   1.0000000   1.0000000   1.0000000
 Leave Link  101 at Thu Sep 28 14:49:21 2023, MaxMem=  6291456000 cpu:         4.4
 (Enter /home/minenky/programs//g09/l103.exe)

 GradGradGradGradGradGradGradGradGradGradGradGradGradGradGradGradGradGrad
 Berny optimization.
 Initialization pass.
                           ----------------------------
                           !    Initial Parameters    !
                           ! (Angstroms and Degrees)  !
 --------------------------                            --------------------------
 ! Name  Definition              Value          Derivative Info.                !
 --------------------------------------------------------------------------------
 ! R1    R(1,2)                  1.33           estimate D2E/DX2                !
 ! R2    R(1,3)                  1.5048         estimate D2E/DX2                !
 ! R3    R(1,7)                  1.0847         estimate D2E/DX2                !
 ! R4    R(2,4)                  1.5048         estimate D2E/DX2                !
 ! R5    R(2,8)                  1.0847         estimate D2E/DX2                !
 ! R6    R(3,5)                  1.5326         estimate D2E/DX2                !
 ! R7    R(3,9)                  1.0968         estimate D2E/DX2                !
 ! R8    R(3,11)                 1.0936         estimate D2E/DX2                !
 ! R9    R(4,6)                  1.5326         estimate D2E/DX2                !
 ! R10   R(4,10)                 1.0968         estimate D2E/DX2                !
 ! R11   R(4,12)                 1.0936         estimate D2E/DX2                !
 ! R12   R(5,6)                  1.5304         estimate D2E/DX2                !
 ! R13   R(5,13)                 1.0942         estimate D2E/DX2                !
 ! R14   R(5,15)                 1.0917         estimate D2E/DX2                !
 ! R15   R(6,14)                 1.0942         estimate D2E/DX2                !
 ! R16   R(6,16)                 1.0917         estimate D2E/DX2                !
 ! A1    A(2,1,3)              123.5798         estimate D2E/DX2                !
 ! A2    A(2,1,7)              119.3921         estimate D2E/DX2                !
 ! A3    A(3,1,7)              117.0278         estimate D2E/DX2                !
 ! A4    A(1,2,4)              123.5798         estimate D2E/DX2                !
 ! A5    A(1,2,8)              119.3921         estimate D2E/DX2                !
 ! A6    A(4,2,8)              117.0278         estimate D2E/DX2                !
 ! A7    A(1,3,5)              112.1259         estimate D2E/DX2                !
 ! A8    A(1,3,9)              109.3415         estimate D2E/DX2                !
 ! A9    A(1,3,11)             109.555          estimate D2E/DX2                !
 ! A10   A(5,3,9)              110.0678         estimate D2E/DX2                !
 ! A11   A(5,3,11)             110.1607         estimate D2E/DX2                !
 ! A12   A(9,3,11)             105.3655         estimate D2E/DX2                !
 ! A13   A(2,4,6)              112.1259         estimate D2E/DX2                !
 ! A14   A(2,4,10)             109.3415         estimate D2E/DX2                !
 ! A15   A(2,4,12)             109.555          estimate D2E/DX2                !
 ! A16   A(6,4,10)             110.0678         estimate D2E/DX2                !
 ! A17   A(6,4,12)             110.1607         estimate D2E/DX2                !
 ! A18   A(10,4,12)            105.3655         estimate D2E/DX2                !
 ! A19   A(3,5,6)              111.042          estimate D2E/DX2                !
 ! A20   A(3,5,13)             109.1359         estimate D2E/DX2                !
 ! A21   A(3,5,15)             110.1958         estimate D2E/DX2                !
 ! A22   A(6,5,13)             109.0546         estimate D2E/DX2                !
 ! A23   A(6,5,15)             110.6372         estimate D2E/DX2                !
 ! A24   A(13,5,15)            106.6581         estimate D2E/DX2                !
 ! A25   A(4,6,5)              111.042          estimate D2E/DX2                !
 ! A26   A(4,6,14)             109.1359         estimate D2E/DX2                !
 ! A27   A(4,6,16)             110.1958         estimate D2E/DX2                !
 ! A28   A(5,6,14)             109.0546         estimate D2E/DX2                !
 ! A29   A(5,6,16)             110.6372         estimate D2E/DX2                !
 ! A30   A(14,6,16)            106.6581         estimate D2E/DX2                !
 ! D1    D(3,1,2,4)             -1.6578         estimate D2E/DX2                !
 ! D2    D(3,1,2,8)            178.5507         estimate D2E/DX2                !
 ! D3    D(7,1,2,4)            178.5507         estimate D2E/DX2                !
 ! D4    D(7,1,2,8)             -1.2407         estimate D2E/DX2                !
 ! D5    D(2,1,3,5)            -13.7568         estimate D2E/DX2                !
 ! D6    D(2,1,3,9)            108.6062         estimate D2E/DX2                !
 ! D7    D(2,1,3,11)          -136.3891         estimate D2E/DX2                !
 ! D8    D(7,1,3,5)            166.0392         estimate D2E/DX2                !
 ! D9    D(7,1,3,9)            -71.5978         estimate D2E/DX2                !
 ! D10   D(7,1,3,11)            43.4069         estimate D2E/DX2                !
 ! D11   D(1,2,4,6)            -13.7568         estimate D2E/DX2                !
 ! D12   D(1,2,4,10)           108.6062         estimate D2E/DX2                !
 ! D13   D(1,2,4,12)          -136.3891         estimate D2E/DX2                !
 ! D14   D(8,2,4,6)            166.0392         estimate D2E/DX2                !
 ! D15   D(8,2,4,10)           -71.5978         estimate D2E/DX2                !
 ! D16   D(8,2,4,12)            43.4069         estimate D2E/DX2                !
 ! D17   D(1,3,5,6)             43.8242         estimate D2E/DX2                !
 ! D18   D(1,3,5,13)           -76.4236         estimate D2E/DX2                !
 ! D19   D(1,3,5,15)           166.7724         estimate D2E/DX2                !
 ! D20   D(9,3,5,6)            -78.125          estimate D2E/DX2                !
 ! D21   D(9,3,5,13)           161.6273         estimate D2E/DX2                !
 ! D22   D(9,3,5,15)            44.8233         estimate D2E/DX2                !
 ! D23   D(11,3,5,6)           166.1126         estimate D2E/DX2                !
 ! D24   D(11,3,5,13)           45.8649         estimate D2E/DX2                !
 ! D25   D(11,3,5,15)          -70.9391         estimate D2E/DX2                !
 ! D26   D(2,4,6,5)             43.8242         estimate D2E/DX2                !
 ! D27   D(2,4,6,14)           -76.4236         estimate D2E/DX2                !
 ! D28   D(2,4,6,16)           166.7724         estimate D2E/DX2                !
 ! D29   D(10,4,6,5)           -78.125          estimate D2E/DX2                !
 ! D30   D(10,4,6,14)          161.6273         estimate D2E/DX2                !
 ! D31   D(10,4,6,16)           44.8233         estimate D2E/DX2                !
 ! D32   D(12,4,6,5)           166.1126         estimate D2E/DX2                !
 ! D33   D(12,4,6,14)           45.8649         estimate D2E/DX2                !
 ! D34   D(12,4,6,16)          -70.9391         estimate D2E/DX2                !
 ! D35   D(3,5,6,4)            -60.0224         estimate D2E/DX2                !
 ! D36   D(3,5,6,14)            60.2735         estimate D2E/DX2                !
 ! D37   D(3,5,6,16)           177.284          estimate D2E/DX2                !
 ! D38   D(13,5,6,4)            60.2735         estimate D2E/DX2                !
 ! D39   D(13,5,6,14)         -179.4306         estimate D2E/DX2                !
 ! D40   D(13,5,6,16)          -62.4201         estimate D2E/DX2                !
 ! D41   D(15,5,6,4)           177.284          estimate D2E/DX2                !
 ! D42   D(15,5,6,14)          -62.4201         estimate D2E/DX2                !
 ! D43   D(15,5,6,16)           54.5905         estimate D2E/DX2                !
 --------------------------------------------------------------------------------
 Trust Radius=3.00D-01 FncErr=1.00D-07 GrdErr=1.00D-06
 Number of steps in this run=     99 maximum allowed number of steps=    100.
 GradGradGradGradGradGradGradGradGradGradGradGradGradGradGradGradGradGrad

 Leave Link  103 at Thu Sep 28 14:49:21 2023, MaxMem=  6291456000 cpu:         0.1
 (Enter /home/minenky/programs//g09/l202.exe)
                          Input orientation:                          
 ---------------------------------------------------------------------
 Center     Atomic      Atomic             Coordinates (Angstroms)
 Number     Number       Type             X           Y           Z
 ---------------------------------------------------------------------
      1          6           0        0.662447   -1.278872    0.058384
      2          6           0       -0.662447   -1.278872   -0.058384
      3          6           0        1.493153   -0.025290    0.113390
      4          6           0       -1.493153   -0.025290   -0.113390
      5          6           0        0.697968    1.213337   -0.313642
      6          6           0       -0.697968    1.213337    0.313642
      7          1           0        1.191828   -2.223862    0.115312
      8          1           0       -1.191828   -2.223862   -0.115312
      9          1           0        1.881371    0.108890    1.130354
     10          1           0       -1.881371    0.108890   -1.130354
     11          1           0        2.376349   -0.143300   -0.520727
     12          1           0       -2.376349   -0.143300    0.520727
     13          1           0        0.599893    1.218476   -1.403393
     14          1           0       -0.599893    1.218476    1.403393
     15          1           0        1.240958    2.121223   -0.044015
     16          1           0       -1.240958    2.121223    0.044015
 ---------------------------------------------------------------------
                    Distance matrix (angstroms):
                    1          2          3          4          5
     1  C    0.000000
     2  C    1.330030   0.000000
     3  C    1.504847   2.499517   0.000000
     4  C    2.499517   1.504847   2.994904   0.000000
     5  C    2.520074   2.850788   1.532603   2.524937   0.000000
     6  C    2.850788   2.520074   2.524937   1.532603   1.530399
     7  H    1.084662   2.088423   2.219126   3.477808   3.498891
     8  H    2.088423   1.084662   3.477808   2.219126   3.927467
     9  H    2.135598   3.132091   1.096783   3.598933   2.169187
    10  H    3.132091   2.135598   3.598933   1.096783   2.922296
    11  H    2.135967   3.276823   1.093648   3.892672   2.168020
    12  H    3.276823   2.135967   3.892672   1.093648   3.462378
    13  H    2.894383   3.104722   2.155342   2.755341   1.094167
    14  H    3.104722   2.894383   2.755341   2.155342   2.152366
    15  H    3.450479   3.896640   2.167002   3.476736   1.091693
    16  H    3.896640   3.450479   3.476736   2.167002   2.170624
                    6          7          8          9         10
     6  C    0.000000
     7  H    3.927467   0.000000
     8  H    3.498891   2.394787   0.000000
     9  H    2.922296   2.635813   4.054376   0.000000
    10  H    2.169187   4.054376   2.635813   4.389650   0.000000
    11  H    3.462378   2.477171   4.150300   1.742031   4.308529
    12  H    2.168020   4.150300   2.477171   4.308529   1.742031
    13  H    2.152366   3.808746   4.088901   3.048482   2.731740
    14  H    1.094167   4.088901   3.808746   2.731740   3.048482
    15  H    2.170624   4.348283   4.980291   2.416352   3.870214
    16  H    1.091693   4.980291   4.348283   3.870214   2.416352
                   11         12         13         14         15
    11  H    0.000000
    12  H    4.865467   0.000000
    13  H    2.406102   3.796668   0.000000
    14  H    3.796668   2.406102   3.052464   0.000000
    15  H    2.577679   4.304870   1.753233   2.509716   0.000000
    16  H    4.304870   2.577679   2.509716   1.753233   2.483477
                   16
    16  H    0.000000
 Stoichiometry    C6H10
 Framework group  C2[X(C6H10)]
 Deg. of freedom    22
 Full point group                 C2      NOp   2
 Largest Abelian subgroup         C2      NOp   2
 Largest concise Abelian subgroup C2      NOp   2
                         Standard orientation:                         
 ---------------------------------------------------------------------
 Center     Atomic      Atomic             Coordinates (Angstroms)
 Number     Number       Type             X           Y           Z
 ---------------------------------------------------------------------
      1          6           0       -0.005578    0.664991    1.302197
      2          6           0        0.005578   -0.664991    1.302197
      3          6           0        0.005578    1.497442    0.048615
      4          6           0       -0.005578   -1.497442    0.048615
      5          6           0        0.368094    0.670848   -1.190012
      6          6           0       -0.368094   -0.670848   -1.190012
      7          1           0       -0.020274    1.197222    2.247187
      8          1           0        0.020274   -1.197222    2.247187
      9          1           0       -0.977334    1.965216   -0.085565
     10          1           0        0.977334   -1.965216   -0.085565
     11          1           0        0.707848    2.327476    0.166625
     12          1           0       -0.707848   -2.327476    0.166625
     13          1           0        1.446611    0.486518   -1.195151
     14          1           0       -1.446611   -0.486518   -1.195151
     15          1           0        0.142452    1.233540   -2.097898
     16          1           0       -0.142452   -1.233540   -2.097898
 ---------------------------------------------------------------------
 Rotational constants (GHZ):      4.7422273      4.5605504      2.5570980
 Leave Link  202 at Thu Sep 28 14:49:21 2023, MaxMem=  6291456000 cpu:         0.0
 (Enter /home/minenky/programs//g09/l301.exe)
 Standard basis: def2TZVP (5D, 7F)
 ======================================================================================================
                                       Pseudopotential Parameters
 ======================================================================================================
  Center     Atomic      Valence      Angular      Power
  Number     Number     Electrons     Momentum     of R      Exponent        Coefficient   SO-Coeffient
 ======================================================================================================
    1          6
                                   No pseudopotential on this center.
    2          6
                                   No pseudopotential on this center.
    3          6
                                   No pseudopotential on this center.
    4          6
                                   No pseudopotential on this center.
    5          6
                                   No pseudopotential on this center.
    6          6
                                   No pseudopotential on this center.
    7          1
                                   No pseudopotential on this center.
    8          1
                                   No pseudopotential on this center.
    9          1
                                   No pseudopotential on this center.
   10          1
                                   No pseudopotential on this center.
   11          1
                                   No pseudopotential on this center.
   12          1
                                   No pseudopotential on this center.
   13          1
                                   No pseudopotential on this center.
   14          1
                                   No pseudopotential on this center.
   15          1
                                   No pseudopotential on this center.
   16          1
                                   No pseudopotential on this center.
 ======================================================================================================
 Ernie: Thresh=  0.10000D-02 Tol=  0.10000D-05 Strict=F.
 AO basis set (Overlap normalization):
 Atom C1       Shell     1 S   6     bf    1 -     1         -0.010540303907          1.256651692909          2.460795865389
      0.1357534968D+05  0.6064550360D-03
      0.2035233368D+04  0.4697908888D-02
      0.4632256236D+03  0.2433247765D-01
      0.1312001960D+03  0.9739996831D-01
      0.4285301589D+02  0.3019558425D+00
      0.1558418577D+02  0.6623360914D+00
 Atom C1       Shell     2 S   2     bf    2 -     2         -0.010540303907          1.256651692909          2.460795865389
      0.6206713851D+01  0.6559530854D+00
      0.2576489653D+01  0.3758563329D+00
 Atom C1       Shell     3 S   1     bf    3 -     3         -0.010540303907          1.256651692909          2.460795865389
      0.5769633942D+00  0.1000000000D+01
 Atom C1       Shell     4 S   1     bf    4 -     4         -0.010540303907          1.256651692909          2.460795865389
      0.2297283136D+00  0.1000000000D+01
 Atom C1       Shell     5 S   1     bf    5 -     5         -0.010540303907          1.256651692909          2.460795865389
      0.9516444003D-01  0.1000000000D+01
 Atom C1       Shell     6 P   4     bf    6 -     8         -0.010540303907          1.256651692909          2.460795865389
      0.3469723224D+02  0.1132722000D-01
      0.7958262283D+01  0.7616965920D-01
      0.2378082688D+01  0.3019225220D+00
      0.8143320818D+00  0.7278502735D+00
 Atom C1       Shell     7 P   1     bf    9 -    11         -0.010540303907          1.256651692909          2.460795865389
      0.2888754725D+00  0.1000000000D+01
 Atom C1       Shell     8 P   1     bf   12 -    14         -0.010540303907          1.256651692909          2.460795865389
      0.1005682367D+00  0.1000000000D+01
 Atom C1       Shell     9 D   1     bf   15 -    19         -0.010540303907          1.256651692909          2.460795865389
      0.1097000000D+01  0.1000000000D+01
 Atom C1       Shell    10 D   1     bf   20 -    24         -0.010540303907          1.256651692909          2.460795865389
      0.3180000000D+00  0.1000000000D+01
 Atom C1       Shell    11 F   1     bf   25 -    31         -0.010540303907          1.256651692909          2.460795865389
      0.7610000000D+00  0.1000000000D+01
 Atom C2       Shell    12 S   6     bf   32 -    32          0.010540303907         -1.256651692909          2.460795865389
      0.1357534968D+05  0.6064550360D-03
      0.2035233368D+04  0.4697908888D-02
      0.4632256236D+03  0.2433247765D-01
      0.1312001960D+03  0.9739996831D-01
      0.4285301589D+02  0.3019558425D+00
      0.1558418577D+02  0.6623360914D+00
 Atom C2       Shell    13 S   2     bf   33 -    33          0.010540303907         -1.256651692909          2.460795865389
      0.6206713851D+01  0.6559530854D+00
      0.2576489653D+01  0.3758563329D+00
 Atom C2       Shell    14 S   1     bf   34 -    34          0.010540303907         -1.256651692909          2.460795865389
      0.5769633942D+00  0.1000000000D+01
 Atom C2       Shell    15 S   1     bf   35 -    35          0.010540303907         -1.256651692909          2.460795865389
      0.2297283136D+00  0.1000000000D+01
 Atom C2       Shell    16 S   1     bf   36 -    36          0.010540303907         -1.256651692909          2.460795865389
      0.9516444003D-01  0.1000000000D+01
 Atom C2       Shell    17 P   4     bf   37 -    39          0.010540303907         -1.256651692909          2.460795865389
      0.3469723224D+02  0.1132722000D-01
      0.7958262283D+01  0.7616965920D-01
      0.2378082688D+01  0.3019225220D+00
      0.8143320818D+00  0.7278502735D+00
 Atom C2       Shell    18 P   1     bf   40 -    42          0.010540303907         -1.256651692909          2.460795865389
      0.2888754725D+00  0.1000000000D+01
 Atom C2       Shell    19 P   1     bf   43 -    45          0.010540303907         -1.256651692909          2.460795865389
      0.1005682367D+00  0.1000000000D+01
 Atom C2       Shell    20 D   1     bf   46 -    50          0.010540303907         -1.256651692909          2.460795865389
      0.1097000000D+01  0.1000000000D+01
 Atom C2       Shell    21 D   1     bf   51 -    55          0.010540303907         -1.256651692909          2.460795865389
      0.3180000000D+00  0.1000000000D+01
 Atom C2       Shell    22 F   1     bf   56 -    62          0.010540303907         -1.256651692909          2.460795865389
      0.7610000000D+00  0.1000000000D+01
 Atom C3       Shell    23 S   6     bf   63 -    63          0.010540303907          2.829754976714          0.091869200274
      0.1357534968D+05  0.6064550360D-03
      0.2035233368D+04  0.4697908888D-02
      0.4632256236D+03  0.2433247765D-01
      0.1312001960D+03  0.9739996831D-01
      0.4285301589D+02  0.3019558425D+00
      0.1558418577D+02  0.6623360914D+00
 Atom C3       Shell    24 S   2     bf   64 -    64          0.010540303907          2.829754976714          0.091869200274
      0.6206713851D+01  0.6559530854D+00
      0.2576489653D+01  0.3758563329D+00
 Atom C3       Shell    25 S   1     bf   65 -    65          0.010540303907          2.829754976714          0.091869200274
      0.5769633942D+00  0.1000000000D+01
 Atom C3       Shell    26 S   1     bf   66 -    66          0.010540303907          2.829754976714          0.091869200274
      0.2297283136D+00  0.1000000000D+01
 Atom C3       Shell    27 S   1     bf   67 -    67          0.010540303907          2.829754976714          0.091869200274
      0.9516444003D-01  0.1000000000D+01
 Atom C3       Shell    28 P   4     bf   68 -    70          0.010540303907          2.829754976714          0.091869200274
      0.3469723224D+02  0.1132722000D-01
      0.7958262283D+01  0.7616965920D-01
      0.2378082688D+01  0.3019225220D+00
      0.8143320818D+00  0.7278502735D+00
 Atom C3       Shell    29 P   1     bf   71 -    73          0.010540303907          2.829754976714          0.091869200274
      0.2888754725D+00  0.1000000000D+01
 Atom C3       Shell    30 P   1     bf   74 -    76          0.010540303907          2.829754976714          0.091869200274
      0.1005682367D+00  0.1000000000D+01
 Atom C3       Shell    31 D   1     bf   77 -    81          0.010540303907          2.829754976714          0.091869200274
      0.1097000000D+01  0.1000000000D+01
 Atom C3       Shell    32 D   1     bf   82 -    86          0.010540303907          2.829754976714          0.091869200274
      0.3180000000D+00  0.1000000000D+01
 Atom C3       Shell    33 F   1     bf   87 -    93          0.010540303907          2.829754976714          0.091869200274
      0.7610000000D+00  0.1000000000D+01
 Atom C4       Shell    34 S   6     bf   94 -    94         -0.010540303907         -2.829754976714          0.091869200274
      0.1357534968D+05  0.6064550360D-03
      0.2035233368D+04  0.4697908888D-02
      0.4632256236D+03  0.2433247765D-01
      0.1312001960D+03  0.9739996831D-01
      0.4285301589D+02  0.3019558425D+00
      0.1558418577D+02  0.6623360914D+00
 Atom C4       Shell    35 S   2     bf   95 -    95         -0.010540303907         -2.829754976714          0.091869200274
      0.6206713851D+01  0.6559530854D+00
      0.2576489653D+01  0.3758563329D+00
 Atom C4       Shell    36 S   1     bf   96 -    96         -0.010540303907         -2.829754976714          0.091869200274
      0.5769633942D+00  0.1000000000D+01
 Atom C4       Shell    37 S   1     bf   97 -    97         -0.010540303907         -2.829754976714          0.091869200274
      0.2297283136D+00  0.1000000000D+01
 Atom C4       Shell    38 S   1     bf   98 -    98         -0.010540303907         -2.829754976714          0.091869200274
      0.9516444003D-01  0.1000000000D+01
 Atom C4       Shell    39 P   4     bf   99 -   101         -0.010540303907         -2.829754976714          0.091869200274
      0.3469723224D+02  0.1132722000D-01
      0.7958262283D+01  0.7616965920D-01
      0.2378082688D+01  0.3019225220D+00
      0.8143320818D+00  0.7278502735D+00
 Atom C4       Shell    40 P   1     bf  102 -   104         -0.010540303907         -2.829754976714          0.091869200274
      0.2888754725D+00  0.1000000000D+01
 Atom C4       Shell    41 P   1     bf  105 -   107         -0.010540303907         -2.829754976714          0.091869200274
      0.1005682367D+00  0.1000000000D+01
 Atom C4       Shell    42 D   1     bf  108 -   112         -0.010540303907         -2.829754976714          0.091869200274
      0.1097000000D+01  0.1000000000D+01
 Atom C4       Shell    43 D   1     bf  113 -   117         -0.010540303907         -2.829754976714          0.091869200274
      0.3180000000D+00  0.1000000000D+01
 Atom C4       Shell    44 F   1     bf  118 -   124         -0.010540303907         -2.829754976714          0.091869200274
      0.7610000000D+00  0.1000000000D+01
 Atom C5       Shell    45 S   6     bf  125 -   125          0.695597494911          1.267719208709         -2.248796610524
      0.1357534968D+05  0.6064550360D-03
      0.2035233368D+04  0.4697908888D-02
      0.4632256236D+03  0.2433247765D-01
      0.1312001960D+03  0.9739996831D-01
      0.4285301589D+02  0.3019558425D+00
      0.1558418577D+02  0.6623360914D+00
 Atom C5       Shell    46 S   2     bf  126 -   126          0.695597494911          1.267719208709         -2.248796610524
      0.6206713851D+01  0.6559530854D+00
      0.2576489653D+01  0.3758563329D+00
 Atom C5       Shell    47 S   1     bf  127 -   127          0.695597494911          1.267719208709         -2.248796610524
      0.5769633942D+00  0.1000000000D+01
 Atom C5       Shell    48 S   1     bf  128 -   128          0.695597494911          1.267719208709         -2.248796610524
      0.2297283136D+00  0.1000000000D+01
 Atom C5       Shell    49 S   1     bf  129 -   129          0.695597494911          1.267719208709         -2.248796610524
      0.9516444003D-01  0.1000000000D+01
 Atom C5       Shell    50 P   4     bf  130 -   132          0.695597494911          1.267719208709         -2.248796610524
      0.3469723224D+02  0.1132722000D-01
      0.7958262283D+01  0.7616965920D-01
      0.2378082688D+01  0.3019225220D+00
      0.8143320818D+00  0.7278502735D+00
 Atom C5       Shell    51 P   1     bf  133 -   135          0.695597494911          1.267719208709         -2.248796610524
      0.2888754725D+00  0.1000000000D+01
 Atom C5       Shell    52 P   1     bf  136 -   138          0.695597494911          1.267719208709         -2.248796610524
      0.1005682367D+00  0.1000000000D+01
 Atom C5       Shell    53 D   1     bf  139 -   143          0.695597494911          1.267719208709         -2.248796610524
      0.1097000000D+01  0.1000000000D+01
 Atom C5       Shell    54 D   1     bf  144 -   148          0.695597494911          1.267719208709         -2.248796610524
      0.3180000000D+00  0.1000000000D+01
 Atom C5       Shell    55 F   1     bf  149 -   155          0.695597494911          1.267719208709         -2.248796610524
      0.7610000000D+00  0.1000000000D+01
 Atom C6       Shell    56 S   6     bf  156 -   156         -0.695597494911         -1.267719208709         -2.248796610524
      0.1357534968D+05  0.6064550360D-03
      0.2035233368D+04  0.4697908888D-02
      0.4632256236D+03  0.2433247765D-01
      0.1312001960D+03  0.9739996831D-01
      0.4285301589D+02  0.3019558425D+00
      0.1558418577D+02  0.6623360914D+00
 Atom C6       Shell    57 S   2     bf  157 -   157         -0.695597494911         -1.267719208709         -2.248796610524
      0.6206713851D+01  0.6559530854D+00
      0.2576489653D+01  0.3758563329D+00
 Atom C6       Shell    58 S   1     bf  158 -   158         -0.695597494911         -1.267719208709         -2.248796610524
      0.5769633942D+00  0.1000000000D+01
 Atom C6       Shell    59 S   1     bf  159 -   159         -0.695597494911         -1.267719208709         -2.248796610524
      0.2297283136D+00  0.1000000000D+01
 Atom C6       Shell    60 S   1     bf  160 -   160         -0.695597494911         -1.267719208709         -2.248796610524
      0.9516444003D-01  0.1000000000D+01
 Atom C6       Shell    61 P   4     bf  161 -   163         -0.695597494911         -1.267719208709         -2.248796610524
      0.3469723224D+02  0.1132722000D-01
      0.7958262283D+01  0.7616965920D-01
      0.2378082688D+01  0.3019225220D+00
      0.8143320818D+00  0.7278502735D+00
 Atom C6       Shell    62 P   1     bf  164 -   166         -0.695597494911         -1.267719208709         -2.248796610524
      0.2888754725D+00  0.1000000000D+01
 Atom C6       Shell    63 P   1     bf  167 -   169         -0.695597494911         -1.267719208709         -2.248796610524
      0.1005682367D+00  0.1000000000D+01
 Atom C6       Shell    64 D   1     bf  170 -   174         -0.695597494911         -1.267719208709         -2.248796610524
      0.1097000000D+01  0.1000000000D+01
 Atom C6       Shell    65 D   1     bf  175 -   179         -0.695597494911         -1.267719208709         -2.248796610524
      0.3180000000D+00  0.1000000000D+01
 Atom C6       Shell    66 F   1     bf  180 -   186         -0.695597494911         -1.267719208709         -2.248796610524
      0.7610000000D+00  0.1000000000D+01
 Atom H7       Shell    67 S   3     bf  187 -   187         -0.038312580375          2.262421132597          4.246568163705
      0.3406134100D+02  0.2543930721D-01
      0.5123574600D+01  0.1900859489D+00
      0.1164662600D+01  0.8524411301D+00
 Atom H7       Shell    68 S   1     bf  188 -   188         -0.038312580375          2.262421132597          4.246568163705
      0.3272304100D+00  0.1000000000D+01
 Atom H7       Shell    69 S   1     bf  189 -   189         -0.038312580375          2.262421132597          4.246568163705
      0.1030724100D+00  0.1000000000D+01
 Atom H7       Shell    70 P   1     bf  190 -   192         -0.038312580375          2.262421132597          4.246568163705
      0.8000000000D+00  0.1000000000D+01
 Atom H8       Shell    71 S   3     bf  193 -   193          0.038312580375         -2.262421132597          4.246568163705
      0.3406134100D+02  0.2543930721D-01
      0.5123574600D+01  0.1900859489D+00
      0.1164662600D+01  0.8524411301D+00
 Atom H8       Shell    72 S   1     bf  194 -   194          0.038312580375         -2.262421132597          4.246568163705
      0.3272304100D+00  0.1000000000D+01
 Atom H8       Shell    73 S   1     bf  195 -   195          0.038312580375         -2.262421132597          4.246568163705
      0.1030724100D+00  0.1000000000D+01
 Atom H8       Shell    74 P   1     bf  196 -   198          0.038312580375         -2.262421132597          4.246568163705
      0.8000000000D+00  0.1000000000D+01
 Atom H9       Shell    75 S   3     bf  199 -   199         -1.846894385331          3.713720281399         -0.161694252236
      0.3406134100D+02  0.2543930721D-01
      0.5123574600D+01  0.1900859489D+00
      0.1164662600D+01  0.8524411301D+00
 Atom H9       Shell    76 S   1     bf  200 -   200         -1.846894385331          3.713720281399         -0.161694252236
      0.3272304100D+00  0.1000000000D+01
 Atom H9       Shell    77 S   1     bf  201 -   201         -1.846894385331          3.713720281399         -0.161694252236
      0.1030724100D+00  0.1000000000D+01
 Atom H9       Shell    78 P   1     bf  202 -   204         -1.846894385331          3.713720281399         -0.161694252236
      0.8000000000D+00  0.1000000000D+01
 Atom H10      Shell    79 S   3     bf  205 -   205          1.846894385331         -3.713720281399         -0.161694252236
      0.3406134100D+02  0.2543930721D-01
      0.5123574600D+01  0.1900859489D+00
      0.1164662600D+01  0.8524411301D+00
 Atom H10      Shell    80 S   1     bf  206 -   206          1.846894385331         -3.713720281399         -0.161694252236
      0.3272304100D+00  0.1000000000D+01
 Atom H10      Shell    81 S   1     bf  207 -   207          1.846894385331         -3.713720281399         -0.161694252236
      0.1030724100D+00  0.1000000000D+01
 Atom H10      Shell    82 P   1     bf  208 -   210          1.846894385331         -3.713720281399         -0.161694252236
      0.8000000000D+00  0.1000000000D+01
 Atom H11      Shell    83 S   3     bf  211 -   211          1.337638886231          4.398291343900          0.314875781216
      0.3406134100D+02  0.2543930721D-01
      0.5123574600D+01  0.1900859489D+00
      0.1164662600D+01  0.8524411301D+00
 Atom H11      Shell    84 S   1     bf  212 -   212          1.337638886231          4.398291343900          0.314875781216
      0.3272304100D+00  0.1000000000D+01
 Atom H11      Shell    85 S   1     bf  213 -   213          1.337638886231          4.398291343900          0.314875781216
      0.1030724100D+00  0.1000000000D+01
 Atom H11      Shell    86 P   1     bf  214 -   216          1.337638886231          4.398291343900          0.314875781216
      0.8000000000D+00  0.1000000000D+01
 Atom H12      Shell    87 S   3     bf  217 -   217         -1.337638886231         -4.398291343900          0.314875781216
      0.3406134100D+02  0.2543930721D-01
      0.5123574600D+01  0.1900859489D+00
      0.1164662600D+01  0.8524411301D+00
 Atom H12      Shell    88 S   1     bf  218 -   218         -1.337638886231         -4.398291343900          0.314875781216
      0.3272304100D+00  0.1000000000D+01
 Atom H12      Shell    89 S   1     bf  219 -   219         -1.337638886231         -4.398291343900          0.314875781216
      0.1030724100D+00  0.1000000000D+01
 Atom H12      Shell    90 P   1     bf  220 -   222         -1.337638886231         -4.398291343900          0.314875781216
      0.8000000000D+00  0.1000000000D+01
 Atom H13      Shell    91 S   3     bf  223 -   223          2.733698793626          0.919385961999         -2.258507913120
      0.3406134100D+02  0.2543930721D-01
      0.5123574600D+01  0.1900859489D+00
      0.1164662600D+01  0.8524411301D+00
 Atom H13      Shell    92 S   1     bf  224 -   224          2.733698793626          0.919385961999         -2.258507913120
      0.3272304100D+00  0.1000000000D+01
 Atom H13      Shell    93 S   1     bf  225 -   225          2.733698793626          0.919385961999         -2.258507913120
      0.1030724100D+00  0.1000000000D+01
 Atom H13      Shell    94 P   1     bf  226 -   228          2.733698793626          0.919385961999         -2.258507913120
      0.8000000000D+00  0.1000000000D+01
 Atom H14      Shell    95 S   3     bf  229 -   229         -2.733698793626         -0.919385961999         -2.258507913120
      0.3406134100D+02  0.2543930721D-01
      0.5123574600D+01  0.1900859489D+00
      0.1164662600D+01  0.8524411301D+00
 Atom H14      Shell    96 S   1     bf  230 -   230         -2.733698793626         -0.919385961999         -2.258507913120
      0.3272304100D+00  0.1000000000D+01
 Atom H14      Shell    97 S   1     bf  231 -   231         -2.733698793626         -0.919385961999         -2.258507913120
      0.1030724100D+00  0.1000000000D+01
 Atom H14      Shell    98 P   1     bf  232 -   234         -2.733698793626         -0.919385961999         -2.258507913120
      0.8000000000D+00  0.1000000000D+01
 Atom H15      Shell    99 S   3     bf  235 -   235          0.269195362038          2.331053202730         -3.964452510405
      0.3406134100D+02  0.2543930721D-01
      0.5123574600D+01  0.1900859489D+00
      0.1164662600D+01  0.8524411301D+00
 Atom H15      Shell   100 S   1     bf  236 -   236          0.269195362038          2.331053202730         -3.964452510405
      0.3272304100D+00  0.1000000000D+01
 Atom H15      Shell   101 S   1     bf  237 -   237          0.269195362038          2.331053202730         -3.964452510405
      0.1030724100D+00  0.1000000000D+01
 Atom H15      Shell   102 P   1     bf  238 -   240          0.269195362038          2.331053202730         -3.964452510405
      0.8000000000D+00  0.1000000000D+01
 Atom H16      Shell   103 S   3     bf  241 -   241         -0.269195362038         -2.331053202730         -3.964452510405
      0.3406134100D+02  0.2543930721D-01
      0.5123574600D+01  0.1900859489D+00
      0.1164662600D+01  0.8524411301D+00
 Atom H16      Shell   104 S   1     bf  242 -   242         -0.269195362038         -2.331053202730         -3.964452510405
      0.3272304100D+00  0.1000000000D+01
 Atom H16      Shell   105 S   1     bf  243 -   243         -0.269195362038         -2.331053202730         -3.964452510405
      0.1030724100D+00  0.1000000000D+01
 Atom H16      Shell   106 P   1     bf  244 -   246         -0.269195362038         -2.331053202730         -3.964452510405
      0.8000000000D+00  0.1000000000D+01
 There are   138 symmetry adapted cartesian basis functions of A   symmetry.
 There are   138 symmetry adapted cartesian basis functions of B   symmetry.
 There are   123 symmetry adapted basis functions of A   symmetry.
 There are   123 symmetry adapted basis functions of B   symmetry.
   246 basis functions,   386 primitive gaussians,   276 cartesian basis functions
    23 alpha electrons       23 beta electrons
       nuclear repulsion energy       236.9963280847 Hartrees.
 IExCor= 4639 DFT=T Ex+Corr=wB97XD ExCW=0 ScaHFX=  1.000000
 ScaDFX=  1.000000  1.000000  1.000000  1.000000 ScalE2=  1.000000  1.000000
 IRadAn=      5 IRanWt=     -1 IRanGd=            0 ICorTp=0 IEmpDi=121
  HFx wShort=  0.000000 wLong=  0.200000 cFull=  0.222036 cShort=  0.000000 cLong=  0.777964
  DFx wShort=  0.000000 wLong=  0.200000 cFull=  0.000000 cShort=  0.000000 cLong=  1.000000
 NAtoms=   16 NActive=   16 NUniq=    8 SFac= 4.00D+00 NAtFMM=   60 NAOKFM=F Big=F
 Integral buffers will be    131072 words long.
 Raffenetti 2 integral format.
 Two-electron integral symmetry is turned on.
 R6Disp:  Grimme-D2 Dispersion energy=       -0.0086583757 Hartrees.
 Nuclear repulsion after empirical dispersion term =      236.9876697090 Hartrees.
 Leave Link  301 at Thu Sep 28 14:49:21 2023, MaxMem=  6291456000 cpu:         0.3
 (Enter /home/minenky/programs//g09/l302.exe)
 NPDir=0 NMtPBC=     1 NCelOv=     1 NCel=       1 NClECP=     1 NCelD=      1
         NCelK=      1 NCelE2=     1 NClLst=     1 CellRange=     0.0.
 One-electron integrals computed using PRISM.
 One-electron integral symmetry used in STVInt
   2 Symmetry operations used in ECPInt.
 ECPInt:  NShTT=    5671 NPrTT=   16452 LenC2=    5646 LenP2D=   13833.
 LDataN:  DoStor=T MaxTD1= 6 Len=  172
 NBasis=   246 RedAO= T EigKep=  5.71D-05  NBF=   123   123
 NBsUse=   246 1.00D-06 EigRej= -1.00D+00 NBFU=   123   123
 Precomputing XC quadrature grid using
 IXCGrd= 4 IRadAn=           5 IRanWt=          -1 IRanGd=           0 AccXCQ= 0.00D+00.
 Generated NRdTot=       0 NPtTot=           0 NUsed=           0 NTot=          32
 NSgBfM=   275   275   275   275   275 MxSgAt=    16 MxSgA2=    16.
 Leave Link  302 at Thu Sep 28 14:49:21 2023, MaxMem=  6291456000 cpu:         2.6
 (Enter /home/minenky/programs//g09/l303.exe)
 DipDrv:  MaxL=1.
 Leave Link  303 at Thu Sep 28 14:49:21 2023, MaxMem=  6291456000 cpu:         0.4
 (Enter /home/minenky/programs//g09/l401.exe)
 ExpMin= 9.52D-02 ExpMax= 1.36D+04 ExpMxC= 4.63D+02 IAcc=3 IRadAn=         5 AccDes= 0.00D+00
 Harris functional with IExCor= 4639 and IRadAn=       5 diagonalized for initial guess.
 HarFok:  IExCor= 4639 AccDes= 0.00D+00 IRadAn=         5 IDoV= 1 UseB2=F ITyADJ=14
 ICtDFT=  3500011 ScaDFX=  1.000000  1.000000  1.000000  1.000000
 FoFCou: FMM=F IPFlag=           0 FMFlag=      100000 FMFlg1=           0
         NFxFlg=           0 DoJE=T BraDBF=F KetDBF=T FulRan=T
         wScrn=  0.000000 ICntrl=     500 IOpCl=  0 I1Cent=   200000004 NGrid=           0
         NMat0=    1 NMatS0=      1 NMatT0=    0 NMatD0=    1 NMtDS0=    0 NMtDT0=    0
 Petite list used in FoFCou.
 Harris En= -223.233952371097    
 JPrj=0 DoOrth=F DoCkMO=F.
 Initial guess orbital symmetries:
       Occupied  (B) (A) (A) (B) (A) (B) (A) (A) (B) (A) (B) (B)
                 (A) (B) (A) (A) (A) (B) (B) (A) (A) (B) (B)
       Virtual   (A) (A) (B) (B) (A) (A) (B) (A) (A) (B) (B) (B)
                 (A) (B) (A) (B) (A) (A) (B) (A) (B) (B) (A) (A)
                 (B) (A) (A) (B) (A) (B) (A) (B) (B) (A) (B) (B)
                 (A) (A) (B) (A) (B) (A) (B) (B) (A) (B) (B) (B)
                 (A) (A) (B) (A) (B) (A) (B) (A) (B) (B) (A) (B)
                 (A) (A) (A) (B) (A) (B) (A) (A) (B) (A) (B) (A)
                 (B) (B) (A) (B) (B) (A) (B) (A) (B) (A) (B) (A)
                 (B) (B) (A) (B) (A) (A) (B) (A) (A) (B) (B) (A)
                 (B) (B) (A) (B) (A) (A) (B) (A) (B) (A) (A) (B)
                 (B) (A) (B) (B) (A) (A) (A) (B) (A) (A) (B) (A)
                 (B) (A) (B) (A) (B) (A) (B) (A) (B) (B) (A) (A)
                 (B) (B) (A) (B) (A) (A) (B) (A) (A) (B) (B) (B)
                 (B) (A) (A) (A) (B) (A) (A) (B) (A) (B) (B) (B)
                 (B) (A) (B) (A) (B) (A) (A) (B) (B) (A) (B) (A)
                 (B) (A) (A) (B) (A) (B) (A) (B) (B) (A) (B) (A)
                 (B) (B) (A) (A) (B) (A) (B) (B) (A) (B) (A) (B)
                 (A) (A) (B) (A) (B) (A) (A) (B) (B) (A) (A) (B)
                 (A) (A) (B) (B) (A) (A) (B) (A) (B) (B) (A) (B)
                 (B) (A) (A) (B) (A) (B) (B)
 The electronic state of the initial guess is 1-A.
 Leave Link  401 at Thu Sep 28 14:49:22 2023, MaxMem=  6291456000 cpu:        10.3
 (Enter /home/minenky/programs//g09/l502.exe)
 Closed shell SCF:
 Using DIIS extrapolation, IDIIS=  1040.
 Integral symmetry usage will be decided dynamically.
 Keep R1 ints in memory in symmetry-blocked form, NReq=1385021964.
 IVT=      383166 IEndB=      383166 NGot=  6291456000 MDV=  6060240088
 LenX=  6060240088 LenY=  6060163471
 Requested convergence on RMS density matrix=1.00D-08 within 380 cycles.
 Requested convergence on MAX density matrix=1.00D-06.
 Requested convergence on             energy=1.00D-06.
 No special actions if energy rises.
 FoFCou: FMM=F IPFlag=           0 FMFlag=           0 FMFlg1=           0
         NFxFlg=           0 DoJE=F BraDBF=F KetDBF=F FulRan=T
         wScrn=  0.000000 ICntrl=     600 IOpCl=  0 I1Cent=           0 NGrid=           0
         NMat0=    1 NMatS0=  30381 NMatT0=    0 NMatD0=    1 NMtDS0=    0 NMtDT0=    0
 Petite list used in FoFCou.
 Integral accuracy reduced to 1.0D-05 until final iterations.

 Cycle   1  Pass 0  IDiag  1:
 E= -234.587597972306    
 DIIS: error= 4.37D-02 at cycle   1 NSaved=   1.
 NSaved= 1 IEnMin= 1 EnMin= -234.587597972306     IErMin= 1 ErrMin= 4.37D-02
 ErrMax= 4.37D-02  0.00D+00 EMaxC= 1.00D-01 BMatC= 4.99D-01 BMatP= 4.99D-01
 IDIUse=3 WtCom= 5.63D-01 WtEn= 4.37D-01
 Coeff-Com:  0.100D+01
 Coeff-En:   0.100D+01
 Coeff:      0.100D+01
 Gap=     0.404 Goal=   None    Shift=    0.000
 GapD=    0.404 DampG=2.000 DampE=0.500 DampFc=1.0000 IDamp=-1.
 RMSDP=1.41D-03 MaxDP=4.55D-02              OVMax= 5.16D-02

 Cycle   2  Pass 0  IDiag  1:
 E= -234.643915870262     Delta-E=       -0.056317897956 Rises=F Damp=F
 DIIS: error= 1.21D-02 at cycle   2 NSaved=   2.
 NSaved= 2 IEnMin= 2 EnMin= -234.643915870262     IErMin= 2 ErrMin= 1.21D-02
 ErrMax= 1.21D-02  0.00D+00 EMaxC= 1.00D-01 BMatC= 1.40D-02 BMatP= 4.99D-01
 IDIUse=3 WtCom= 8.79D-01 WtEn= 1.21D-01
 Coeff-Com:  0.773D-01 0.923D+00
 Coeff-En:   0.000D+00 0.100D+01
 Coeff:      0.679D-01 0.932D+00
 Gap=     0.430 Goal=   None    Shift=    0.000
 RMSDP=6.83D-04 MaxDP=1.44D-02 DE=-5.63D-02 OVMax= 3.38D-02

 Cycle   3  Pass 0  IDiag  1:
 E= -234.649497687441     Delta-E=       -0.005581817179 Rises=F Damp=F
 DIIS: error= 8.97D-03 at cycle   3 NSaved=   3.
 NSaved= 3 IEnMin= 3 EnMin= -234.649497687441     IErMin= 3 ErrMin= 8.97D-03
 ErrMax= 8.97D-03  0.00D+00 EMaxC= 1.00D-01 BMatC= 8.37D-03 BMatP= 1.40D-02
 IDIUse=3 WtCom= 9.10D-01 WtEn= 8.97D-02
 Coeff-Com:  0.254D-01 0.441D+00 0.533D+00
 Coeff-En:   0.000D+00 0.359D+00 0.641D+00
 Coeff:      0.231D-01 0.434D+00 0.543D+00
 Gap=     0.411 Goal=   None    Shift=    0.000
 RMSDP=2.57D-04 MaxDP=5.96D-03 DE=-5.58D-03 OVMax= 1.48D-02

 Cycle   4  Pass 0  IDiag  1:
 E= -234.657539587699     Delta-E=       -0.008041900259 Rises=F Damp=F
 DIIS: error= 4.81D-04 at cycle   4 NSaved=   4.
 NSaved= 4 IEnMin= 4 EnMin= -234.657539587699     IErMin= 4 ErrMin= 4.81D-04
 ErrMax= 4.81D-04  0.00D+00 EMaxC= 1.00D-01 BMatC= 1.40D-05 BMatP= 8.37D-03
 IDIUse=3 WtCom= 9.95D-01 WtEn= 4.81D-03
 Coeff-Com:  0.201D-03 0.330D-02 0.275D-01 0.969D+00
 Coeff-En:   0.000D+00 0.000D+00 0.000D+00 0.100D+01
 Coeff:      0.200D-03 0.329D-02 0.274D-01 0.969D+00
 Gap=     0.410 Goal=   None    Shift=    0.000
 RMSDP=4.03D-05 MaxDP=6.70D-04 DE=-8.04D-03 OVMax= 1.38D-03

 Cycle   5  Pass 0  IDiag  1:
 E= -234.657559132575     Delta-E=       -0.000019544876 Rises=F Damp=F
 DIIS: error= 6.46D-05 at cycle   5 NSaved=   5.
 NSaved= 5 IEnMin= 5 EnMin= -234.657559132575     IErMin= 5 ErrMin= 6.46D-05
 ErrMax= 6.46D-05  0.00D+00 EMaxC= 1.00D-01 BMatC= 1.59D-06 BMatP= 1.40D-05
 IDIUse=1 WtCom= 1.00D+00 WtEn= 0.00D+00
 Coeff-Com: -0.165D-02-0.271D-01-0.269D-01 0.203D+00 0.853D+00
 Coeff:     -0.165D-02-0.271D-01-0.269D-01 0.203D+00 0.853D+00
 Gap=     0.410 Goal=   None    Shift=    0.000
 RMSDP=1.15D-05 MaxDP=1.74D-04 DE=-1.95D-05 OVMax= 3.89D-04

 Cycle   6  Pass 0  IDiag  1:
 E= -234.657561135211     Delta-E=       -0.000002002635 Rises=F Damp=F
 DIIS: error= 3.11D-05 at cycle   6 NSaved=   6.
 NSaved= 6 IEnMin= 6 EnMin= -234.657561135211     IErMin= 6 ErrMin= 3.11D-05
 ErrMax= 3.11D-05  0.00D+00 EMaxC= 1.00D-01 BMatC= 1.52D-07 BMatP= 1.59D-06
 IDIUse=1 WtCom= 1.00D+00 WtEn= 0.00D+00
 Coeff-Com: -0.560D-03-0.934D-02-0.103D-01 0.128D-01 0.267D+00 0.741D+00
 Coeff:     -0.560D-03-0.934D-02-0.103D-01 0.128D-01 0.267D+00 0.741D+00
 Gap=     0.410 Goal=   None    Shift=    0.000
 RMSDP=2.43D-06 MaxDP=3.30D-05 DE=-2.00D-06 OVMax= 1.58D-04

 Initial convergence to 1.0D-05 achieved.  Increase integral accuracy.
 Cycle   7  Pass 1  IDiag  1:
 E= -234.657499559946     Delta-E=        0.000061575264 Rises=F Damp=F
 DIIS: error= 3.25D-05 at cycle   1 NSaved=   1.
 NSaved= 1 IEnMin= 1 EnMin= -234.657499559946     IErMin= 1 ErrMin= 3.25D-05
 ErrMax= 3.25D-05  0.00D+00 EMaxC= 1.00D-01 BMatC= 4.83D-07 BMatP= 4.83D-07
 IDIUse=1 WtCom= 1.00D+00 WtEn= 0.00D+00
 Coeff-Com:  0.100D+01
 Coeff:      0.100D+01
 Gap=     0.410 Goal=   None    Shift=    0.000
 RMSDP=2.43D-06 MaxDP=3.30D-05 DE= 6.16D-05 OVMax= 7.83D-05

 Cycle   8  Pass 1  IDiag  1:
 E= -234.657499874934     Delta-E=       -0.000000314987 Rises=F Damp=F
 DIIS: error= 5.55D-06 at cycle   2 NSaved=   2.
 NSaved= 2 IEnMin= 2 EnMin= -234.657499874934     IErMin= 2 ErrMin= 5.55D-06
 ErrMax= 5.55D-06  0.00D+00 EMaxC= 1.00D-01 BMatC= 8.44D-09 BMatP= 4.83D-07
 IDIUse=1 WtCom= 1.00D+00 WtEn= 0.00D+00
 Coeff-Com: -0.479D-01 0.105D+01
 Coeff:     -0.479D-01 0.105D+01
 Gap=     0.410 Goal=   None    Shift=    0.000
 RMSDP=6.29D-07 MaxDP=1.26D-05 DE=-3.15D-07 OVMax= 3.20D-05

 Cycle   9  Pass 1  IDiag  1:
 E= -234.657499880591     Delta-E=       -0.000000005658 Rises=F Damp=F
 DIIS: error= 3.49D-06 at cycle   3 NSaved=   3.
 NSaved= 3 IEnMin= 3 EnMin= -234.657499880591     IErMin= 3 ErrMin= 3.49D-06
 ErrMax= 3.49D-06  0.00D+00 EMaxC= 1.00D-01 BMatC= 3.76D-09 BMatP= 8.44D-09
 IDIUse=1 WtCom= 1.00D+00 WtEn= 0.00D+00
 Coeff-Com: -0.347D-01 0.432D+00 0.603D+00
 Coeff:     -0.347D-01 0.432D+00 0.603D+00
 Gap=     0.410 Goal=   None    Shift=    0.000
 RMSDP=2.22D-07 MaxDP=5.35D-06 DE=-5.66D-09 OVMax= 1.46D-05

 Cycle  10  Pass 1  IDiag  1:
 E= -234.657499884267     Delta-E=       -0.000000003675 Rises=F Damp=F
 DIIS: error= 4.31D-07 at cycle   4 NSaved=   4.
 NSaved= 4 IEnMin= 4 EnMin= -234.657499884267     IErMin= 4 ErrMin= 4.31D-07
 ErrMax= 4.31D-07  0.00D+00 EMaxC= 1.00D-01 BMatC= 3.66D-11 BMatP= 3.76D-09
 IDIUse=1 WtCom= 1.00D+00 WtEn= 0.00D+00
 Coeff-Com:  0.673D-03-0.322D-01 0.275D-01 0.100D+01
 Coeff:      0.673D-03-0.322D-01 0.275D-01 0.100D+01
 Gap=     0.410 Goal=   None    Shift=    0.000
 RMSDP=9.32D-08 MaxDP=1.88D-06 DE=-3.68D-09 OVMax= 2.95D-06

 Cycle  11  Pass 1  IDiag  1:
 E= -234.657499884339     Delta-E=       -0.000000000072 Rises=F Damp=F
 DIIS: error= 7.41D-08 at cycle   5 NSaved=   5.
 NSaved= 5 IEnMin= 5 EnMin= -234.657499884339     IErMin= 5 ErrMin= 7.41D-08
 ErrMax= 7.41D-08  0.00D+00 EMaxC= 1.00D-01 BMatC= 1.90D-12 BMatP= 3.66D-11
 IDIUse=1 WtCom= 1.00D+00 WtEn= 0.00D+00
 Coeff-Com:  0.173D-02-0.235D-01-0.272D-01 0.833D-01 0.966D+00
 Coeff:      0.173D-02-0.235D-01-0.272D-01 0.833D-01 0.966D+00
 Gap=     0.410 Goal=   None    Shift=    0.000
 RMSDP=2.66D-08 MaxDP=4.99D-07 DE=-7.22D-11 OVMax= 7.97D-07

 Cycle  12  Pass 1  IDiag  1:
 E= -234.657499884333     Delta-E=        0.000000000006 Rises=F Damp=F
 DIIS: error= 2.57D-08 at cycle   6 NSaved=   6.
 NSaved= 6 IEnMin= 5 EnMin= -234.657499884339     IErMin= 6 ErrMin= 2.57D-08
 ErrMax= 2.57D-08  0.00D+00 EMaxC= 1.00D-01 BMatC= 1.66D-13 BMatP= 1.90D-12
 IDIUse=1 WtCom= 1.00D+00 WtEn= 0.00D+00
 Coeff-Com:  0.283D-03-0.305D-02-0.585D-02-0.250D-01 0.175D+00 0.859D+00
 Coeff:      0.283D-03-0.305D-02-0.585D-02-0.250D-01 0.175D+00 0.859D+00
 Gap=     0.410 Goal=   None    Shift=    0.000
 RMSDP=6.07D-09 MaxDP=1.09D-07 DE= 5.91D-12 OVMax= 1.94D-07

 SCF Done:  E(RwB97XD) =  -234.657499884     A.U. after   12 cycles
            NFock= 12  Conv=0.61D-08     -V/T= 2.0057
 KE= 2.333329379264D+02 PE=-1.017376102252D+03 EE= 3.123979947326D+02
 Leave Link  502 at Thu Sep 28 14:49:34 2023, MaxMem=  6291456000 cpu:       178.3
 (Enter /home/minenky/programs//g09/l601.exe)
 Copying SCF densities to generalized density rwf, IOpCl= 0 IROHF=0.

 **********************************************************************

            Population analysis using the SCF density.

 **********************************************************************

 Orbital symmetries:
       Occupied  (B) (A) (A) (B) (A) (B) (A) (B) (A) (A) (B) (B)
                 (A) (B) (A) (A) (A) (B) (B) (A) (A) (B) (B)
       Virtual   (A) (A) (B) (B) (A) (A) (B) (A) (A) (B) (B) (B)
                 (A) (B) (A) (B) (A) (B) (A) (A) (B) (A) (B) (A)
                 (B) (A) (B) (A) (A) (B) (A) (B) (B) (A) (B) (A)
                 (B) (A) (B) (B) (A) (A) (B) (B) (A) (B) (B) (A)
                 (B) (A) (B) (A) (B) (B) (A) (B) (A) (B) (A) (B)
                 (A) (A) (A) (B) (A) (B) (A) (A) (B) (A) (B) (A)
                 (B) (B) (A) (B) (B) (A) (B) (A) (A) (B) (B) (A)
                 (B) (B) (A) (B) (A) (A) (B) (A) (A) (B) (B) (A)
                 (B) (B) (B) (A) (A) (A) (A) (B) (B) (A) (A) (B)
                 (B) (A) (B) (B) (A) (A) (A) (B) (A) (A) (B) (A)
                 (B) (A) (B) (A) (B) (A) (B) (A) (B) (B) (A) (A)
                 (B) (B) (A) (B) (A) (A) (B) (A) (A) (B) (B) (B)
                 (B) (A) (A) (A) (B) (A) (A) (B) (A) (B) (B) (B)
                 (B) (A) (B) (A) (B) (A) (A) (B) (B) (A) (B) (A)
                 (B) (A) (B) (A) (A) (B) (B) (A) (B) (A) (B) (A)
                 (B) (B) (A) (A) (B) (A) (B) (B) (A) (B) (A) (B)
                 (A) (A) (B) (A) (B) (A) (A) (B) (B) (A) (A) (B)
                 (A) (A) (B) (B) (A) (B) (A) (A) (B) (B) (A) (B)
                 (B) (A) (A) (B) (A) (B) (B)
 The electronic state is 1-A.
 Alpha  occ. eigenvalues --  -10.27801 -10.27801 -10.27472 -10.27451 -10.27388
 Alpha  occ. eigenvalues --  -10.27296  -0.93134  -0.83797  -0.83720  -0.71279
 Alpha  occ. eigenvalues --   -0.69105  -0.59851  -0.58168  -0.53354  -0.51087
 Alpha  occ. eigenvalues --   -0.49149  -0.47165  -0.46261  -0.46013  -0.40617
 Alpha  occ. eigenvalues --   -0.39551  -0.38233  -0.31974
 Alpha virt. eigenvalues --    0.09061   0.11327   0.14323   0.14955   0.15521
 Alpha virt. eigenvalues --    0.17425   0.17468   0.19016   0.19599   0.20968
 Alpha virt. eigenvalues --    0.22183   0.24068   0.25815   0.27861   0.29035
 Alpha virt. eigenvalues --    0.29620   0.29993   0.31192   0.31433   0.32462
 Alpha virt. eigenvalues --    0.34228   0.37026   0.37730   0.40990   0.41909
 Alpha virt. eigenvalues --    0.44398   0.45952   0.46500   0.47993   0.49128
 Alpha virt. eigenvalues --    0.49273   0.49340   0.50275   0.51230   0.51475
 Alpha virt. eigenvalues --    0.51743   0.52890   0.53346   0.54105   0.54916
 Alpha virt. eigenvalues --    0.55149   0.57192   0.58872   0.61690   0.66207
 Alpha virt. eigenvalues --    0.69102   0.70569   0.74117   0.74327   0.79736
 Alpha virt. eigenvalues --    0.80433   0.82733   0.84488   0.88255   0.88768
 Alpha virt. eigenvalues --    0.94679   0.95168   0.98255   0.99449   1.03155
 Alpha virt. eigenvalues --    1.05555   1.06422   1.07516   1.10602   1.12448
 Alpha virt. eigenvalues --    1.13697   1.16936   1.19339   1.21195   1.23549
 Alpha virt. eigenvalues --    1.24747   1.26932   1.28808   1.29761   1.30905
 Alpha virt. eigenvalues --    1.33302   1.37643   1.39895   1.40309   1.48387
 Alpha virt. eigenvalues --    1.56506   1.56768   1.57180   1.61425   1.63011
 Alpha virt. eigenvalues --    1.65031   1.68036   1.68822   1.69807   1.73201
 Alpha virt. eigenvalues --    1.73306   1.75209   1.78488   1.80075   1.82744
 Alpha virt. eigenvalues --    1.83427   1.84036   1.88061   1.93973   1.94598
 Alpha virt. eigenvalues --    1.95485   1.97131   2.04638   2.04842   2.08024
 Alpha virt. eigenvalues --    2.08880   2.10610   2.13908   2.16370   2.21889
 Alpha virt. eigenvalues --    2.22887   2.23912   2.25017   2.34111   2.36422
 Alpha virt. eigenvalues --    2.38806   2.43824   2.47661   2.49119   2.50299
 Alpha virt. eigenvalues --    2.53058   2.53662   2.57917   2.60283   2.62920
 Alpha virt. eigenvalues --    2.64525   2.66867   2.67245   2.67997   2.70094
 Alpha virt. eigenvalues --    2.70955   2.73084   2.73690   2.76822   2.78139
 Alpha virt. eigenvalues --    2.80043   2.80951   2.82023   2.84406   2.85786
 Alpha virt. eigenvalues --    2.89749   2.90242   2.92336   2.93658   2.98859
 Alpha virt. eigenvalues --    3.00858   3.03055   3.09910   3.12806   3.13504
 Alpha virt. eigenvalues --    3.14231   3.14570   3.18750   3.18918   3.20327
 Alpha virt. eigenvalues --    3.26725   3.27328   3.27544   3.31388   3.32426
 Alpha virt. eigenvalues --    3.33324   3.35149   3.37507   3.38232   3.39252
 Alpha virt. eigenvalues --    3.40131   3.41516   3.46691   3.49686   3.51277
 Alpha virt. eigenvalues --    3.52784   3.53136   3.55872   3.56952   3.62804
 Alpha virt. eigenvalues --    3.63077   3.65485   3.66265   3.71508   3.73094
 Alpha virt. eigenvalues --    3.79466   3.83346   3.86118   3.87994   3.89637
 Alpha virt. eigenvalues --    3.90416   4.01234   4.03172   4.06851   4.09374
 Alpha virt. eigenvalues --    4.11770   4.12595   4.13780   4.15633   4.19428
 Alpha virt. eigenvalues --    4.21639   4.30280   4.30747   4.36458   4.44290
 Alpha virt. eigenvalues --    4.50333   4.51733   4.54085   4.56457   4.58386
 Alpha virt. eigenvalues --    4.69861   4.76192   4.79072   4.81739   4.87311
 Alpha virt. eigenvalues --    4.87549   4.94339   4.99486   5.03644   5.08117
 Alpha virt. eigenvalues --    5.18038   5.38151  22.24572  22.52987  22.60563
 Alpha virt. eigenvalues --   22.63482  22.63593  23.00186
          Condensed to atoms (all electrons):
               1          2          3          4          5          6
     1  C    4.993304   0.660384   0.303557  -0.041754  -0.043527   0.007577
     2  C    0.660384   4.993304  -0.041754   0.303557   0.007577  -0.043527
     3  C    0.303557  -0.041754   4.847007  -0.006377   0.332715  -0.023513
     4  C   -0.041754   0.303557  -0.006377   4.847007  -0.023513   0.332715
     5  C   -0.043527   0.007577   0.332715  -0.023513   4.912714   0.290722
     6  C    0.007577  -0.043527  -0.023513   0.332715   0.290722   4.912714
     7  H    0.416481  -0.037327  -0.039219   0.005887   0.006270  -0.001359
     8  H   -0.037327   0.416481   0.005887  -0.039219  -0.001359   0.006270
     9  H   -0.034347  -0.006181   0.403832   0.002081  -0.019405  -0.010705
    10  H   -0.006181  -0.034347   0.002081   0.403832  -0.010705  -0.019405
    11  H   -0.038125   0.002068   0.426032  -0.001622  -0.040754   0.011367
    12  H    0.002068  -0.038125  -0.001622   0.426032   0.011367  -0.040754
    13  H   -0.001295   0.000237  -0.038468  -0.000837   0.421460  -0.042169
    14  H    0.000237  -0.001295  -0.000837  -0.038468  -0.042169   0.421460
    15  H    0.010419  -0.002451  -0.041877   0.008509   0.424895  -0.037236
    16  H   -0.002451   0.010419   0.008509  -0.041877  -0.037236   0.424895
               7          8          9         10         11         12
     1  C    0.416481  -0.037327  -0.034347  -0.006181  -0.038125   0.002068
     2  C   -0.037327   0.416481  -0.006181  -0.034347   0.002068  -0.038125
     3  C   -0.039219   0.005887   0.403832   0.002081   0.426032  -0.001622
     4  C    0.005887  -0.039219   0.002081   0.403832  -0.001622   0.426032
     5  C    0.006270  -0.001359  -0.019405  -0.010705  -0.040754   0.011367
     6  C   -0.001359   0.006270  -0.010705  -0.019405   0.011367  -0.040754
     7  H    0.549351  -0.008597   0.000325  -0.000358  -0.004387  -0.000247
     8  H   -0.008597   0.549351  -0.000358   0.000325  -0.000247  -0.004387
     9  H    0.000325  -0.000358   0.594965  -0.000241  -0.031143   0.000260
    10  H   -0.000358   0.000325  -0.000241   0.594965   0.000260  -0.031143
    11  H   -0.004387  -0.000247  -0.031143   0.000260   0.581971   0.000017
    12  H   -0.000247  -0.004387   0.000260  -0.031143   0.000017   0.581971
    13  H   -0.000176  -0.000151   0.006374   0.001824  -0.006870   0.000140
    14  H   -0.000151  -0.000176   0.001824   0.006374   0.000140  -0.006870
    15  H   -0.000199   0.000076  -0.006411  -0.000128  -0.002681  -0.000252
    16  H    0.000076  -0.000199  -0.000128  -0.006411  -0.000252  -0.002681
              13         14         15         16
     1  C   -0.001295   0.000237   0.010419  -0.002451
     2  C    0.000237  -0.001295  -0.002451   0.010419
     3  C   -0.038468  -0.000837  -0.041877   0.008509
     4  C   -0.000837  -0.038468   0.008509  -0.041877
     5  C    0.421460  -0.042169   0.424895  -0.037236
     6  C   -0.042169   0.421460  -0.037236   0.424895
     7  H   -0.000176  -0.000151  -0.000199   0.000076
     8  H   -0.000151  -0.000176   0.000076  -0.000199
     9  H    0.006374   0.001824  -0.006411  -0.000128
    10  H    0.001824   0.006374  -0.000128  -0.006411
    11  H   -0.006870   0.000140  -0.002681  -0.000252
    12  H    0.000140  -0.006870  -0.000252  -0.002681
    13  H    0.591528   0.006737  -0.027039  -0.003635
    14  H    0.006737   0.591528  -0.003635  -0.027039
    15  H   -0.027039  -0.003635   0.578813  -0.005370
    16  H   -0.003635  -0.027039  -0.005370   0.578813
 Mulliken charges:
               1
     1  C   -0.189020
     2  C   -0.189020
     3  C   -0.135952
     4  C   -0.135952
     5  C   -0.189052
     6  C   -0.189052
     7  H    0.113631
     8  H    0.113631
     9  H    0.099260
    10  H    0.099260
    11  H    0.104226
    12  H    0.104226
    13  H    0.092340
    14  H    0.092340
    15  H    0.104567
    16  H    0.104567
 Sum of Mulliken charges =   0.00000
 Mulliken charges with hydrogens summed into heavy atoms:
               1
     1  C   -0.075389
     2  C   -0.075389
     3  C    0.067534
     4  C    0.067534
     5  C    0.007855
     6  C    0.007855
 Electronic spatial extent (au):  <R**2>=            550.9557
 Charge=              0.0000 electrons
 Dipole moment (field-independent basis, Debye):
    X=              0.0000    Y=              0.0000    Z=             -0.3477  Tot=              0.3477
 Quadrupole moment (field-independent basis, Debye-Ang):
   XX=            -39.3369   YY=            -36.7617   ZZ=            -38.0310
   XY=             -0.0589   XZ=              0.0000   YZ=              0.0000
 Traceless Quadrupole moment (field-independent basis, Debye-Ang):
   XX=             -1.2937   YY=              1.2815   ZZ=              0.0122
   XY=             -0.0589   XZ=              0.0000   YZ=              0.0000
 Octapole moment (field-independent basis, Debye-Ang**2):
  XXX=              0.0000  YYY=              0.0000  ZZZ=              1.4977  XYY=              0.0000
  XXY=              0.0000  XXZ=             -2.9829  XZZ=              0.0000  YZZ=              0.0000
  YYZ=              1.4731  XYZ=              0.6899
 Hexadecapole moment (field-independent basis, Debye-Ang**3):
 XXXX=            -83.2525 YYYY=           -347.5736 ZZZZ=           -322.9603 XXXY=            -11.2892
 XXXZ=              0.0000 YYYX=             -7.7863 YYYZ=              0.0000 ZZZX=              0.0000
 ZZZY=              0.0000 XXYY=            -69.6149 XXZZ=            -75.9483 YYZZ=           -108.8916
 XXYZ=              0.0000 YYXZ=              0.0000 ZZXY=             -4.6559
 N-N= 2.369876697090D+02 E-N=-1.017376094215D+03  KE= 2.333329379264D+02
 Symmetry A    KE= 1.182187566009D+02
 Symmetry B    KE= 1.151141813255D+02
 No NMR shielding tensors so no spin-rotation constants.
 Leave Link  601 at Thu Sep 28 14:49:35 2023, MaxMem=  6291456000 cpu:         2.3
 (Enter /home/minenky/programs//g09/l701.exe)
 Compute integral first derivatives.
 ... and contract with generalized density number  0.
 R6Disp: Adding Grimme-D2 dispersion energy 1st derivatives to the gradient.
   2 Symmetry operations used in ECPInt.
 ECPInt:  NShTT=    5671 NPrTT=   16452 LenC2=    5646 LenP2D=   13833.
 LDataN:  DoStor=T MaxTD1= 7 Len=  274
 Leave Link  701 at Thu Sep 28 14:49:35 2023, MaxMem=  6291456000 cpu:         2.5
 (Enter /home/minenky/programs//g09/l702.exe)
 L702 exits ... SP integral derivatives will be done elsewhere.
 Leave Link  702 at Thu Sep 28 14:49:35 2023, MaxMem=  6291456000 cpu:         0.2
 (Enter /home/minenky/programs//g09/l703.exe)
 Compute integral first derivatives, UseDBF=F ICtDFT=           0.
 Integral derivatives from FoFJK, PRISM(SPDF).
 Calling FoFJK, ICntrl=      2127 FMM=F ISym2X=1 I1Cent= 0 IOpClX= 0 NMat=1 NMatS=1 NMatT=0.
 FoFJK:  IHMeth= 1 ICntrl=    2127 DoSepK=T KAlg= 0 I1Cent=   0 FoldK=F
 IRaf=         1 NMat=   1 IRICut=       1 DoRegI=T DoRafI=F ISym2E= 1.
 FoFCou: FMM=F IPFlag=           0 FMFlag=      100000 FMFlg1=         800
         NFxFlg=           0 DoJE=F BraDBF=F KetDBF=F FulRan=T
         wScrn=  0.000000 ICntrl=    2527 IOpCl=  0 I1Cent=           0 NGrid=           0
         NMat0=    1 NMatS0=      1 NMatT0=    0 NMatD0=    1 NMtDS0=    0 NMtDT0=    0
 Petite list used in FoFCou.
 Leave Link  703 at Thu Sep 28 14:49:40 2023, MaxMem=  6291456000 cpu:        85.2
 (Enter /home/minenky/programs//g09/l716.exe)
 Dipole        =-1.55431223D-15-2.10942375D-15-1.36795694D-01
 ***** Axes restored to original set *****
 -------------------------------------------------------------------
 Center     Atomic                   Forces (Hartrees/Bohr)
 Number     Number              X              Y              Z
 -------------------------------------------------------------------
      1        6          -0.002852916    0.001975637   -0.000333131
      2        6           0.002852916    0.001975637    0.000333131
      3        6          -0.001793601    0.001270776   -0.000249806
      4        6           0.001793601    0.001270776    0.000249806
      5        6          -0.000997278   -0.002204981    0.001124938
      6        6           0.000997278   -0.002204981   -0.001124938
      7        1           0.000023615   -0.000372853    0.000012130
      8        1          -0.000023615   -0.000372853   -0.000012130
      9        1          -0.000717005   -0.000158718    0.000045252
     10        1           0.000717005   -0.000158718   -0.000045252
     11        1          -0.000402955   -0.000055604   -0.000324183
     12        1           0.000402955   -0.000055604    0.000324183
     13        1          -0.000346480   -0.000394738   -0.000247678
     14        1           0.000346480   -0.000394738    0.000247678
     15        1          -0.000025360   -0.000059519    0.000383415
     16        1           0.000025360   -0.000059519   -0.000383415
 -------------------------------------------------------------------
 Cartesian Forces:  Max     0.002852916 RMS     0.001032988
 Leave Link  716 at Thu Sep 28 14:49:40 2023, MaxMem=  6291456000 cpu:         0.2
 (Enter /home/minenky/programs//g09/l103.exe)

 GradGradGradGradGradGradGradGradGradGradGradGradGradGradGradGradGradGrad
 Berny optimization.
 FormGI is forming the generalized inverse of G from B-inverse, IUseBI=4.
 Internal  Forces:  Max     0.004093811 RMS     0.000798571
 Search for a local minimum.
 Step number   1 out of a maximum of   99
 All quantities printed in internal units (Hartrees-Bohrs-Radians)
 RMS Force = .79857D-03 SwitMx=.10000D-02 MixMth= 2
 Mixed Optimization -- En-DIIS/RFO-DIIS
 Second derivative matrix not updated -- first step.
 ITU=  0
     Eigenvalues ---    0.00540   0.00609   0.01269   0.01344   0.01822
     Eigenvalues ---    0.03017   0.03068   0.04144   0.04166   0.04914
     Eigenvalues ---    0.05260   0.05738   0.05935   0.07471   0.08067
     Eigenvalues ---    0.08082   0.09404   0.09405   0.09539   0.11811
     Eigenvalues ---    0.12211   0.16000   0.16000   0.18743   0.19119
     Eigenvalues ---    0.21973   0.28261   0.28272   0.28451   0.31160
     Eigenvalues ---    0.31521   0.34040   0.34040   0.34335   0.34335
     Eigenvalues ---    0.34394   0.34394   0.34618   0.34618   0.35437
     Eigenvalues ---    0.35437   0.57133
 RFO step:  Lambda=-2.14471741D-04 EMin= 5.39646205D-03
 Linear search not attempted -- first point.
 Iteration  1 RMS(Cart)=  0.00914766 RMS(Int)=  0.00003090
 Iteration  2 RMS(Cart)=  0.00003712 RMS(Int)=  0.00000958
 Iteration  3 RMS(Cart)=  0.00000000 RMS(Int)=  0.00000958
 ITry= 1 IFail=0 DXMaxC= 2.84D-02 DCOld= 1.00D+10 DXMaxT= 3.00D-01 DXLimC= 3.00D+00 Rises=F
 ClnCor:  largest displacement from symmetrization is 4.50D-12 for atom    16.
 Variable       Old X    -DE/DX   Delta X   Delta X   Delta X     New X
                                 (Linear)    (Quad)   (Total)
    R1        2.51339  -0.00409   0.00000  -0.00677  -0.00676   2.50663
    R2        2.84375  -0.00203   0.00000  -0.00624  -0.00623   2.83752
    R3        2.04971   0.00034   0.00000   0.00095   0.00095   2.05066
    R4        2.84375  -0.00203   0.00000  -0.00624  -0.00623   2.83752
    R5        2.04971   0.00034   0.00000   0.00095   0.00095   2.05066
    R6        2.89620  -0.00316   0.00000  -0.01086  -0.01087   2.88533
    R7        2.07262  -0.00023   0.00000  -0.00068  -0.00068   2.07194
    R8        2.06670  -0.00013   0.00000  -0.00038  -0.00038   2.06632
    R9        2.89620  -0.00316   0.00000  -0.01086  -0.01087   2.88533
   R10        2.07262  -0.00023   0.00000  -0.00068  -0.00068   2.07194
   R11        2.06670  -0.00013   0.00000  -0.00038  -0.00038   2.06632
   R12        2.89204  -0.00306   0.00000  -0.01077  -0.01077   2.88126
   R13        2.06768   0.00028   0.00000   0.00080   0.00080   2.06848
   R14        2.06300   0.00003   0.00000   0.00009   0.00009   2.06309
   R15        2.06768   0.00028   0.00000   0.00080   0.00080   2.06848
   R16        2.06300   0.00003   0.00000   0.00009   0.00009   2.06309
    A1        2.15687  -0.00005   0.00000  -0.00139  -0.00140   2.15547
    A2        2.08379  -0.00014   0.00000  -0.00034  -0.00033   2.08345
    A3        2.04252   0.00019   0.00000   0.00173   0.00173   2.04425
    A4        2.15687  -0.00005   0.00000  -0.00139  -0.00140   2.15547
    A5        2.08379  -0.00014   0.00000  -0.00034  -0.00033   2.08345
    A6        2.04252   0.00019   0.00000   0.00173   0.00173   2.04425
    A7        1.95697   0.00008   0.00000  -0.00239  -0.00242   1.95455
    A8        1.90837  -0.00014   0.00000  -0.00219  -0.00219   1.90618
    A9        1.91210  -0.00016   0.00000  -0.00102  -0.00102   1.91108
   A10        1.92105  -0.00002   0.00000   0.00023   0.00023   1.92128
   A11        1.92267  -0.00012   0.00000  -0.00045  -0.00045   1.92222
   A12        1.83897   0.00036   0.00000   0.00633   0.00632   1.84530
   A13        1.95697   0.00008   0.00000  -0.00239  -0.00242   1.95455
   A14        1.90837  -0.00014   0.00000  -0.00219  -0.00219   1.90618
   A15        1.91210  -0.00016   0.00000  -0.00102  -0.00102   1.91108
   A16        1.92105  -0.00002   0.00000   0.00023   0.00023   1.92128
   A17        1.92267  -0.00012   0.00000  -0.00045  -0.00045   1.92222
   A18        1.83897   0.00036   0.00000   0.00633   0.00632   1.84530
   A19        1.93805  -0.00016   0.00000  -0.00434  -0.00438   1.93367
   A20        1.90478   0.00007   0.00000   0.00147   0.00148   1.90626
   A21        1.92328  -0.00003   0.00000  -0.00090  -0.00090   1.92238
   A22        1.90336   0.00002   0.00000   0.00003   0.00003   1.90340
   A23        1.93098  -0.00010   0.00000  -0.00106  -0.00105   1.92993
   A24        1.86154   0.00021   0.00000   0.00525   0.00524   1.86678
   A25        1.93805  -0.00016   0.00000  -0.00434  -0.00438   1.93367
   A26        1.90478   0.00007   0.00000   0.00147   0.00148   1.90626
   A27        1.92328  -0.00003   0.00000  -0.00090  -0.00090   1.92238
   A28        1.90336   0.00002   0.00000   0.00003   0.00003   1.90340
   A29        1.93098  -0.00010   0.00000  -0.00106  -0.00105   1.92993
   A30        1.86154   0.00021   0.00000   0.00525   0.00524   1.86678
    D1       -0.02893  -0.00007   0.00000  -0.00123  -0.00122  -0.03015
    D2        3.11630  -0.00005   0.00000  -0.00125  -0.00125   3.11505
    D3        3.11630  -0.00005   0.00000  -0.00125  -0.00125   3.11505
    D4       -0.02165  -0.00002   0.00000  -0.00128  -0.00127  -0.02293
    D5       -0.24010  -0.00004   0.00000  -0.00328  -0.00328  -0.24338
    D6        1.89554  -0.00011   0.00000  -0.00613  -0.00613   1.88940
    D7       -2.38044   0.00016   0.00000  -0.00035  -0.00035  -2.38079
    D8        2.89793  -0.00007   0.00000  -0.00326  -0.00325   2.89468
    D9       -1.24962  -0.00013   0.00000  -0.00611  -0.00611  -1.25573
   D10        0.75759   0.00013   0.00000  -0.00032  -0.00032   0.75727
   D11       -0.24010  -0.00004   0.00000  -0.00328  -0.00328  -0.24338
   D12        1.89554  -0.00011   0.00000  -0.00613  -0.00613   1.88940
   D13       -2.38044   0.00016   0.00000  -0.00035  -0.00035  -2.38079
   D14        2.89793  -0.00007   0.00000  -0.00326  -0.00325   2.89468
   D15       -1.24962  -0.00013   0.00000  -0.00611  -0.00611  -1.25573
   D16        0.75759   0.00013   0.00000  -0.00032  -0.00032   0.75727
   D17        0.76488   0.00020   0.00000   0.01201   0.01200   0.77687
   D18       -1.33384   0.00023   0.00000   0.01374   0.01374  -1.32010
   D19        2.91073  -0.00006   0.00000   0.00705   0.00704   2.91777
   D20       -1.36354   0.00034   0.00000   0.01628   0.01628  -1.34726
   D21        2.82093   0.00037   0.00000   0.01801   0.01802   2.83895
   D22        0.78231   0.00008   0.00000   0.01132   0.01132   0.79363
   D23        2.89921  -0.00002   0.00000   0.00873   0.00872   2.90793
   D24        0.80049   0.00001   0.00000   0.01046   0.01046   0.81095
   D25       -1.23812  -0.00028   0.00000   0.00376   0.00376  -1.23436
   D26        0.76488   0.00020   0.00000   0.01201   0.01200   0.77687
   D27       -1.33384   0.00023   0.00000   0.01374   0.01374  -1.32010
   D28        2.91073  -0.00006   0.00000   0.00705   0.00704   2.91777
   D29       -1.36354   0.00034   0.00000   0.01628   0.01628  -1.34726
   D30        2.82093   0.00037   0.00000   0.01801   0.01802   2.83895
   D31        0.78231   0.00008   0.00000   0.01132   0.01132   0.79363
   D32        2.89921  -0.00002   0.00000   0.00873   0.00872   2.90793
   D33        0.80049   0.00001   0.00000   0.01046   0.01046   0.81095
   D34       -1.23812  -0.00028   0.00000   0.00376   0.00376  -1.23436
   D35       -1.04759  -0.00019   0.00000  -0.01734  -0.01734  -1.06493
   D36        1.05197  -0.00019   0.00000  -0.01822  -0.01822   1.03375
   D37        3.09419   0.00003   0.00000  -0.01244  -0.01244   3.08175
[...]
 ! D17   D(1,3,5,6)             44.5631         -DE/DX =    0.0                 !
 ! D18   D(1,3,5,13)           -75.4797         -DE/DX =    0.0                 !
 ! D19   D(1,3,5,15)           167.3994         -DE/DX =    0.0                 !
 ! D20   D(9,3,5,6)            -77.0414         -DE/DX =    0.0                 !
 ! D21   D(9,3,5,13)           162.9158         -DE/DX =    0.0                 !
 ! D22   D(9,3,5,15)            45.7949         -DE/DX =    0.0                 !
 ! D23   D(11,3,5,6)           166.7487         -DE/DX =    0.0                 !
 ! D24   D(11,3,5,13)           46.706          -DE/DX =    0.0                 !
 ! D25   D(11,3,5,15)          -70.415          -DE/DX =    0.0                 !
 ! D26   D(2,4,6,5)             44.5631         -DE/DX =    0.0                 !
 ! D27   D(2,4,6,14)           -75.4797         -DE/DX =    0.0                 !
 ! D28   D(2,4,6,16)           167.3994         -DE/DX =    0.0                 !
 ! D29   D(10,4,6,5)           -77.0414         -DE/DX =    0.0                 !
 ! D30   D(10,4,6,14)          162.9158         -DE/DX =    0.0                 !
 ! D31   D(10,4,6,16)           45.7949         -DE/DX =    0.0                 !
 ! D32   D(12,4,6,5)           166.7487         -DE/DX =    0.0                 !
 ! D33   D(12,4,6,14)           46.706          -DE/DX =    0.0                 !
 ! D34   D(12,4,6,16)          -70.415          -DE/DX =    0.0                 !
 ! D35   D(3,5,6,4)            -61.07           -DE/DX =    0.0                 !
 ! D36   D(3,5,6,14)            59.0845         -DE/DX =    0.0                 !
 ! D37   D(3,5,6,16)           176.3765         -DE/DX =    0.0                 !
 ! D38   D(13,5,6,4)            59.0845         -DE/DX =    0.0                 !
 ! D39   D(13,5,6,14)          179.239          -DE/DX =    0.0                 !
 ! D40   D(13,5,6,16)          -63.469          -DE/DX =    0.0                 !
 ! D41   D(15,5,6,4)           176.3765         -DE/DX =    0.0                 !
 ! D42   D(15,5,6,14)          -63.469          -DE/DX =    0.0                 !
 ! D43   D(15,5,6,16)           53.8229         -DE/DX =    0.0                 !
 --------------------------------------------------------------------------------
 GradGradGradGradGradGradGradGradGradGradGradGradGradGradGradGradGradGrad

 Leave Link  103 at Thu Sep 28 14:53:39 2023, MaxMem=  6291456000 cpu:         0.1
 (Enter /home/minenky/programs//g09/l9999.exe)
 1\1\GINC-PC1\Freq\RwB97XD\def2TZVP\C6H10\MINENKY\28-Sep-2023\0\\#P Geo
 m=AllCheck Guess=TCheck SCRF=Check GenChk RwB97XD/def2TZVP Freq\\The P
 BEPBE optimization and frequencies\\0,1\C,0.6608162015,-1.2738386302,0
 .0590264769\C,-0.6608162015,-1.2738386302,-0.0590264769\C,1.4881152089
 ,-0.0211356438,0.1150394483\C,-1.4881152089,-0.0211356438,-0.115039448
 3\C,0.6931751328,1.208473296,-0.3181543103\C,-0.6931751328,1.208473296
 ,0.3181543103\H,1.1899103338,-2.2195688497,0.1171600438\H,-1.189910333
 8,-2.2195688497,-0.1171600438\H,1.8654655365,0.115807765,1.1354173646\
 H,-1.8654655365,0.115807765,-1.1354173646\H,2.3739620633,-0.1400168569
 ,-0.5147999287\H,-2.3739620633,-0.1400168569,0.5147999287\H,0.58524479
 25,1.2015989357,-1.4075441508\H,-0.5852447925,1.2015989357,1.407544150
 8\H,1.2365622921,2.1192819839,-0.0588794676\H,-1.2365622921,2.11928198
 39,0.0588794676\\Version=AM64L-G09RevD.01\State=1-A\HF=-234.6576017\RM
 SD=1.292e-09\RMSF=8.364e-07\ZeroPoint=0.1474479\Thermal=0.1528986\Dipo
 le=0.,0.1354818,0.\DipoleDeriv=0.0572251,0.0803586,0.026223,0.1101087,
 0.1090597,0.0171805,0.0461407,0.0159635,-0.2419591,0.0572251,-0.080358
 6,0.026223,-0.1101087,0.1090597,-0.0171805,0.0461408,-0.0159635,-0.241
 9592,0.0401617,-0.0157327,-0.0154837,-0.0091878,-0.0020675,0.0036483,-
 0.0513815,0.0032984,0.2016445,0.0401617,0.0157327,-0.0154837,0.0091878
 ,-0.0020675,-0.0036483,-0.0513815,-0.0032984,0.2016445,0.0266273,0.017
 0792,0.0187265,0.0216281,0.098053,0.0136354,0.0147408,0.0017452,0.1240
 067,0.0266274,-0.0170792,0.0187265,-0.0216281,0.098053,-0.0136354,0.01
 47408,-0.0017452,0.1240067,-0.0042598,0.0561215,-0.0100506,0.0678936,-
 0.1248588,0.0149945,-0.0079678,0.0073804,0.1372276,-0.0042598,-0.05612
 15,-0.0100506,-0.0678936,-0.1248588,-0.0149945,-0.0079678,-0.0073804,0
 .1372276,0.0085103,-0.008062,-0.0479025,-0.0800519,0.0027007,-0.018947
 5,-0.1107757,-0.013062,-0.1176407,0.0085103,0.008062,-0.0479025,0.0800
 519,0.0027007,0.0189475,-0.1107757,0.013062,-0.1176407,-0.1144441,0.02
 23741,0.0718565,0.0039605,0.0142443,-0.0187098,0.1343858,-0.0026046,0.
 0084712,-0.1144441,-0.0223741,0.0718565,-0.0039605,0.0142443,0.0187098
 ,0.1343859,0.0026046,0.0084712,0.0174968,0.02798,-0.0326628,0.0200217,
 0.0393946,-0.0190939,0.0016515,0.0313467,-0.1665734,0.0174967,-0.02798
 ,-0.0326628,-0.0200217,0.0393946,0.0190939,0.0016515,-0.0313467,-0.166
 5734,-0.0313172,-0.0994818,-0.0107063,-0.1009211,-0.1365259,-0.0151383
 ,-0.0267939,-0.0511977,0.0548232,-0.0313173,0.0994818,-0.0107063,0.100
 9211,-0.1365259,0.0151383,-0.0267939,0.0511977,0.0548232\Polar=78.7157
 921,0.0000001,68.0087477,1.5560648,0.,54.7294565\PG=C02 [X(C6H10)]\NIm
 ag=0\\0.85325625,-0.05228063,0.60078275,0.06484692,-0.00979649,0.15650
 499,-0.55610808,0.00222832,-0.04459988,0.85325625,-0.00222832,-0.11810
 743,0.00024899,0.05228063,0.60078275,-0.04459988,-0.00024899,-0.060341
 40,0.06484692,0.00979649,0.15650499,-0.12752799,-0.05399913,-0.0030903
 2,-0.01983026,-0.03124256,-0.00461513,0.55657487,-0.05739519,-0.180548
 57,-0.00540018,-0.00980466,0.00424622,-0.00088921,-0.00494362,0.469856
 56,-0.00168506,-0.00014967,-0.07475211,-0.00285763,-0.00413477,0.00715
 589,-0.01914237,0.01529447,0.55585917,-0.01983026,0.03124256,-0.004615
 13,-0.12752799,0.05399913,-0.00309032,0.00241073,0.00041528,-0.0010541
 1,0.55657487,0.00980466,0.00424622,0.00088921,0.05739519,-0.18054857,0
 .00540018,-0.00041528,-0.00174098,0.00041171,0.00494362,0.46985656,-0.
 00285763,0.00413477,0.00715589,-0.00168506,0.00014967,-0.07475211,-0.0
 0105411,-0.00041171,-0.00802656,-0.01914237,-0.01529447,0.55585917,0.0
 1453797,-0.01210930,0.00555518,0.00003739,0.00070721,0.00091848,-0.111
 90179,0.04578809,-0.01807739,-0.02246556,-0.00851372,0.00864351,0.4873
 0367,0.01344011,-0.03289911,0.00808221,0.00177761,0.00265383,0.0006619
 9,0.04455184,-0.15190473,0.02861321,-0.02856546,-0.00053265,0.01375770
 ,0.05957217,0.55079326,0.00129941,-0.00183216,0.00087340,-0.00009662,-
 0.00037676,0.00056422,-0.01788340,0.02850963,-0.09112042,-0.00707655,0
 .00219152,0.00511043,0.02586579,0.02315868,0.57015632,0.00003739,-0.00
 070721,0.00091848,0.01453797,0.01210930,0.00555518,-0.02246556,0.00851
 372,0.00864351,-0.11190179,-0.04578809,-0.01807739,-0.16995445,0.00094
 043,0.04349759,0.48730367,-0.00177761,0.00265383,-0.00066199,-0.013440
 11,-0.03289911,-0.00808221,0.02856546,-0.00053265,-0.01375770,-0.04455
 184,-0.15190473,-0.02861321,-0.00094043,-0.08192876,0.00134481,-0.0595
 7217,0.55079326,-0.00009662,0.00037676,0.00056422,0.00129941,0.0018321
 6,0.00087340,-0.00707655,-0.00219152,0.00511043,-0.01788340,-0.0285096
 3,-0.09112042,0.04349759,-0.00134481,-0.10323739,0.02586579,-0.0231586
 8,0.57015632,-0.12069702,0.11476024,-0.00892058,-0.01435819,0.03134127
 ,-0.00170869,0.01048382,-0.01595360,0.00186010,-0.00362316,-0.00240333
 ,-0.00134314,-0.00228676,-0.00278616,-0.00072033,-0.00015005,-0.000487
 61,-0.00010019,0.12953710,0.11956220,-0.26899119,0.01272527,-0.0026542
 7,0.00244039,-0.00013975,0.01398131,-0.01735312,0.00257584,-0.00068249
 ,0.00132772,-0.00001728,-0.00436976,-0.00240947,-0.00154625,-0.0005442
 2,0.00045879,0.00015157,-0.12613528,0.28350242,-0.00976533,0.01159716,
 -0.03962530,-0.00121957,0.00297333,0.00496889,0.00206342,-0.00061176,0
 .00262910,-0.00162242,-0.00093681,0.01271518,0.00002707,0.00031943,0.0
 0111773,-0.00044279,0.00030663,-0.00018151,0.01010748,-0.01434097,0.02
 629768,-0.01435819,-0.03134127,-0.00170869,-0.12069702,-0.11476024,-0.
 00892058,-0.00362316,0.00240333,-0.00134314,0.01048382,0.01595360,0.00
 186010,-0.00015005,0.00048761,-0.00010019,-0.00228676,0.00278616,-0.00
 072033,0.00049604,0.00017650,0.00074168,0.12953710,0.00265427,0.002440
 39,0.00013975,-0.11956220,-0.26899119,-0.01272527,0.00068249,0.0013277
 2,0.00001728,-0.01398131,-0.01735312,-0.00257584,0.00054422,0.00045879
 ,-0.00015157,0.00436976,-0.00240947,0.00154625,-0.00017650,0.00141355,
 0.00008821,0.12613528,0.28350242,-0.00121957,-0.00297333,0.00496889,-0
 .00976533,-0.01159716,-0.03962530,-0.00162242,0.00093681,0.01271518,0.
 00206342,0.00061176,0.00262910,-0.00044279,-0.00030663,-0.00018151,0.0
 0002707,-0.00031943,0.00111773,0.00074168,-0.00008821,-0.00789446,0.01
 010748,0.01434097,0.02629768,-0.01071164,-0.00526526,-0.01831118,0.000
 58815,-0.00275502,0.00024735,-0.07334297,-0.00806973,-0.07899583,-0.00
 027342,0.00000258,-0.00103577,-0.00558820,-0.00193922,-0.01589528,0.00
 062621,-0.00050126,-0.00131223,0.00011502,-0.00024636,0.00024052,-0.00
 059689,-0.00008984,0.00159343,0.08072069,-0.01178375,-0.00338504,-0.02
 616279,-0.00007938,-0.00291111,0.00059765,-0.01056131,-0.05097290,-0.0
 3446652,0.00009655,-0.00028945,-0.00138079,0.00927187,0.00158589,0.027
 51014,-0.00144727,0.00038797,0.00050979,0.00052524,-0.00017803,0.00089
 461,-0.00066425,-0.00003247,0.00222041,0.01258189,0.05850847,-0.001397
 03,-0.00160008,0.00180453,0.00105921,-0.00047423,0.00030308,-0.0778233
 1,-0.02958826,-0.26618009,0.00035430,0.00011625,0.00016771,-0.00206397
 ,-0.00014697,-0.00940796,0.00007090,-0.00017466,0.00041205,-0.00049758
 ,-0.00058901,-0.00018078,-0.00011813,0.00001418,-0.00008094,0.08769951
 ,0.03268417,0.29038676,0.00058815,0.00275502,0.00024735,-0.01071164,0.
 00526526,-0.01831118,-0.00027342,-0.00000258,-0.00103577,-0.07334297,0
 .00806973,-0.07899583,0.00062621,0.00050126,-0.00131223,-0.00558820,0.
 00193922,-0.01589528,-0.00059689,0.00008984,0.00159343,0.00011502,0.00
 024636,0.00024052,-0.00019613,-0.00017275,0.00013170,0.08072069,0.0000
 7938,-0.00291111,-0.00059765,0.01178375,-0.00338504,0.02616279,-0.0000
 9655,-0.00028945,0.00138079,0.01056131,-0.05097290,0.03446652,0.001447
 27,0.00038797,-0.00050979,-0.00927187,0.00158589,-0.02751014,0.0006642
 5,-0.00003247,-0.00222041,-0.00052524,-0.00017803,-0.00089461,0.000172
 75,0.00048327,0.00011379,-0.01258189,0.05850847,0.00105921,0.00047423,
 0.00030308,-0.00139703,0.00160008,0.00180453,0.00035430,-0.00011625,0.
 00016771,-0.07782331,0.02958826,-0.26618009,0.00007090,0.00017466,0.00
 041205,-0.00206397,0.00014697,-0.00940796,-0.00011813,-0.00001418,-0.0
 0008094,-0.00049758,0.00058901,-0.00018078,0.00013170,-0.00011379,0.00
 003914,0.08769951,-0.03268417,0.29038676,-0.01761583,0.00076041,0.0097
 0794,0.00077869,-0.00309216,0.00029973,-0.21344018,0.02395002,0.122796
 11,0.00064100,0.00028575,0.00068178,-0.01334611,0.00109589,0.00928591,
 -0.00060262,0.00348407,-0.00170149,0.00094378,-0.00025697,-0.00051732,
 -0.00064494,-0.00003897,-0.00116207,0.00895311,-0.00100789,-0.00594691
 ,0.00007949,-0.00004446,-0.00000500,0.23463135,-0.02605955,0.00286584,
 0.01784909,-0.00061484,-0.00453415,-0.00032890,0.02338007,-0.05073147,
 -0.01570033,-0.00027528,-0.00026629,0.00046074,0.02246163,-0.00209526,
 -0.01617951,0.00169790,-0.00504366,0.00237414,0.00071066,0.00086105,-0
 .00009909,-0.00072778,0.00006540,-0.00196212,0.00385590,-0.00072709,-0
 .00273943,-0.00002804,0.00020340,0.00004587,-0.02482880,0.05769108,-0.
 00338581,-0.00050367,0.00204546,-0.00061269,0.00042509,-0.00024288,0.1
 2420456,-0.01635313,-0.13601019,0.00029632,-0.00004110,0.00026888,-0.0
 1065560,0.00149965,0.00552125,-0.00105267,0.00177081,-0.00027360,0.000
 30962,0.00058801,0.00040858,-0.00008477,-0.00009956,-0.00013699,0.0247
 9358,-0.00346836,-0.01922317,0.00008364,-0.00001297,0.00000517,-0.1333
 7688,0.01691544,0.14593176,0.00077869,0.00309216,0.00029973,-0.0176158
 3,-0.00076041,0.00970794,0.00064100,-0.00028575,0.00068178,-0.21344018
 ,-0.02395002,0.12279611,-0.00060262,-0.00348407,-0.00170149,-0.0133461
 1,-0.00109589,0.00928591,-0.00064494,0.00003897,-0.00116207,0.00094378
 ,0.00025697,-0.00051732,0.00007949,0.00004446,-0.00000500,0.00895311,0
 .00100789,-0.00594691,-0.00005454,0.00001351,-0.00000635,0.23463135,0.
 00061484,-0.00453415,0.00032890,0.02605955,0.00286584,-0.01784909,0.00
 027528,-0.00026629,-0.00046074,-0.02338007,-0.05073147,0.01570033,-0.0
 0169790,-0.00504366,-0.00237414,-0.02246163,-0.00209526,0.01617951,0.0
 0072778,0.00006540,0.00196212,-0.00071066,0.00086105,0.00009909,0.0000
 2804,0.00020340,-0.00004587,-0.00385590,-0.00072709,0.00273943,-0.0000
 1351,0.00020661,-0.00006624,0.02482880,0.05769108,-0.00061269,-0.00042
 509,-0.00024288,-0.00338581,0.00050367,0.00204546,0.00029632,0.0000411
 0,0.00026888,0.12420456,0.01635313,-0.13601019,-0.00105267,-0.00177081
 ,-0.00027360,-0.01065560,-0.00149965,0.00552125,-0.00008477,0.00009956
 ,-0.00013699,0.00030962,-0.00058801,0.00040858,0.00008364,0.00001297,0
 .00000517,0.02479358,0.00346836,-0.01922317,-0.00000635,0.00006624,-0.
 00003989,-0.13337688,-0.01691544,0.14593176,-0.00017885,-0.00086296,0.
 00073924,0.00021586,-0.00010567,-0.00007745,-0.00423716,0.00094449,-0.
 01899289,0.00184507,0.00061193,0.00038735,-0.04989789,-0.00236190,-0.0
 2645632,0.00128992,0.00002951,0.03315607,-0.00004659,0.00000665,0.0001
 6423,0.00009894,-0.00003311,-0.00012562,-0.00120939,0.00377416,-0.0010
 9360,-0.00031090,-0.00012584,-0.00058801,0.00022768,-0.00042243,-0.000
 22679,0.00025933,0.00038687,-0.00026734,0.05832253,0.00084373,0.001194
 97,0.00053879,-0.00016891,-0.00011238,-0.00021119,0.00405833,-0.000788
 74,0.02777542,-0.00024271,0.00023183,0.00104326,-0.00226029,-0.0502708
 5,-0.00533625,-0.00023563,-0.00039508,-0.00073230,0.00003937,0.0000498
 1,-0.00033170,-0.00005733,0.00002059,-0.00008319,0.00242025,-0.0040025
 6,0.00189448,-0.00011806,0.00019523,0.00006678,-0.00038782,0.00122382,
 -0.00033789,0.00002423,0.00003444,-0.00004990,-0.00208992,0.05193353,-
 0.00030967,-0.00041262,0.00034937,0.00042765,0.00049046,0.00003695,-0.
 00146679,-0.00022165,-0.00890474,-0.00084739,-0.00020213,0.00078416,-0
 .02661290,-0.00335949,-0.30091099,-0.00020165,-0.00048662,-0.01569924,
 0.00006689,0.00014400,0.00005641,0.00005948,0.00006688,-0.00012528,-0.
 00076749,0.00172315,0.00091845,0.00060688,0.00054177,0.00029731,-0.000
 46658,0.00016069,0.00099277,-0.00002354,-0.00012205,0.00035694,0.02698
 772,0.00286962,0.32858525,0.00021586,0.00010567,-0.00007745,-0.0001788
 5,0.00086296,0.00073924,0.00184507,-0.00061193,0.00038735,-0.00423716,
 -0.00094449,-0.01899289,0.00128992,-0.00002951,0.03315607,-0.04989789,
 0.00236190,-0.02645632,0.00009894,0.00003311,-0.00012562,-0.00004659,-
 0.00000665,0.00016423,-0.00031090,0.00012584,-0.00058801,-0.00120939,-
 0.00377416,-0.00109360,0.00025933,-0.00038687,-0.00026734,0.00022768,0
 .00042243,-0.00022679,-0.00564202,0.00027208,0.00308511,0.05832253,0.0
 0016891,-0.00011238,0.00021119,-0.00084373,0.00119497,-0.00053879,0.00
 024271,0.00023183,-0.00104326,-0.00405833,-0.00078874,-0.02777542,0.00
 023563,-0.00039508,0.00073230,0.00226029,-0.05027085,0.00533625,0.0000
 5733,0.00002059,0.00008319,-0.00003937,0.00004981,0.00033170,0.0001180
 6,0.00019523,-0.00006678,-0.00242025,-0.00400256,-0.00189448,-0.000024
 23,0.00003444,0.00004990,0.00038782,0.00122382,0.00033789,-0.00027208,
 0.00075199,-0.00038655,0.00208992,0.05193353,0.00042765,-0.00049046,0.
 00003695,-0.00030967,0.00041262,0.00034937,-0.00084739,0.00020213,0.00
 078416,-0.00146679,0.00022165,-0.00890474,-0.00020165,0.00048662,-0.01
 569924,-0.02661290,0.00335949,-0.30091099,0.00005948,-0.00006688,-0.00
 012528,0.00006689,-0.00014400,0.00005641,0.00060688,-0.00054177,0.0002
 9731,-0.00076749,-0.00172315,0.00091845,-0.00002354,0.00012205,0.00035
 694,-0.00046658,-0.00016069,0.00099277,0.00308511,0.00038655,0.0003102
 5,0.02698772,-0.00286962,0.32858525,-0.00235024,0.00251193,-0.00102686
 ,-0.00003621,0.00089054,0.00003525,0.00987920,0.01652507,0.00426276,-0
 .00519220,0.00147295,0.00455258,-0.11243463,-0.10897923,-0.03227480,-0
 .01516711,-0.02577864,-0.00958756,0.00058805,0.00090123,-0.00012396,0.
 00014086,-0.00009953,0.00004125,0.00098446,-0.00053489,0.00025959,0.00
 016240,0.00016855,-0.00004168,0.00028228,-0.00057957,0.00045080,-0.001
 09249,-0.00180349,-0.00046963,-0.00184143,-0.00198967,-0.00081516,0.00
 110490,0.00010763,0.00027745,0.12430450,0.00479451,-0.00297467,0.00154
 174,0.00043755,0.00027963,-0.00006397,-0.01391183,-0.02167994,-0.00623
 113,0.00056722,0.00114649,0.00012460,-0.10868180,-0.23007610,-0.054547
 39,0.00145491,0.00167593,0.00059325,-0.00097251,-0.00122393,0.00017784
 ,-0.00008884,0.00004847,-0.00013824,-0.00038653,0.00112625,0.00055279,
 -0.00007373,0.00000815,-0.00004963,0.00027663,0.00013846,-0.00046544,0
 .00015798,0.00010781,-0.00009948,0.00025828,-0.00002249,-0.00040669,-0
 .00026204,-0.00004412,0.00039877,0.11680865,0.25074426,-0.00174748,0.0
 0168856,0.00033903,0.00004358,-0.00016107,0.00001588,0.00522111,0.0102
 6435,0.00117391,0.00248208,-0.00053519,-0.00087033,-0.03333597,-0.0565
 9593,-0.06647114,0.00786441,0.01322952,0.00354686,0.00032813,0.0005149
 9,0.00012776,0.00002001,-0.00000329,-0.00009609,0.00056191,0.00011286,
 0.00063623,0.00035929,0.00013174,0.00010251,-0.00001850,-0.00049424,-0
 .00005195,0.00045316,0.00049063,0.00044785,-0.01606600,-0.02716575,-0.
 00746050,-0.00062569,0.00032673,0.00041290,0.03527701,0.05840455,0.067
 73249,-0.00003621,-0.00089054,0.00003525,-0.00235024,-0.00251193,-0.00
 102686,-0.00519220,-0.00147295,0.00455258,0.00987920,-0.01652507,0.004
 26276,-0.01516711,0.02577864,-0.00958756,-0.11243463,0.10897923,-0.032
 27480,0.00014086,0.00009953,0.00004125,0.00058805,-0.00090123,-0.00012
 396,0.00016240,-0.00016855,-0.00004168,0.00098446,0.00053489,0.0002595
 9,-0.00109249,0.00180349,-0.00046963,0.00028228,0.00057957,0.00045080,
 0.00110490,-0.00010763,0.00027745,-0.00184143,0.00198967,-0.00081516,0
 .00066768,-0.00037846,-0.00081704,0.12430450,-0.00043755,0.00027963,0.
 00006397,-0.00479451,-0.00297467,-0.00154174,-0.00056722,0.00114649,-0
 .00012460,0.01391183,-0.02167994,0.00623113,-0.00145491,0.00167593,-0.
 00059325,0.10868180,-0.23007610,0.05454739,0.00008884,0.00004847,0.000
 13824,0.00097251,-0.00122393,-0.00017784,0.00007373,0.00000815,0.00004
 963,0.00038653,0.00112625,-0.00055279,-0.00015798,0.00010781,0.0000994
 8,-0.00027663,0.00013846,0.00046544,0.00026204,-0.00004412,-0.00039877
 ,-0.00025828,-0.00002249,0.00040669,0.00037846,0.00074578,-0.00020845,
 -0.11680865,0.25074426,0.00004358,0.00016107,0.00001588,-0.00174748,-0
 .00168856,0.00033903,0.00248208,0.00053519,-0.00087033,0.00522111,-0.0
 1026435,0.00117391,0.00786441,-0.01322952,0.00354686,-0.03333597,0.056
 59593,-0.06647114,0.00002001,0.00000329,-0.00009609,0.00032813,-0.0005
 1499,0.00012776,0.00035929,-0.00013174,0.00010251,0.00056191,-0.000112
 86,0.00063623,0.00045316,-0.00049063,0.00044785,-0.00001850,0.00049424
 ,-0.00005195,-0.00062569,-0.00032673,0.00041290,-0.01606600,0.02716575
 ,-0.00746050,-0.00081704,0.00020845,0.00041458,0.03527701,-0.05840455,
 0.06773249\\-0.00000011,-0.00000013,-0.00000075,0.00000011,-0.00000013
 ,0.00000075,0.00000019,0.00000030,-0.00000100,-0.00000019,0.00000030,0
 .00000100,-0.00000076,-0.00000025,-0.00000014,0.00000076,-0.00000025,0
 .00000014,0.00000005,0.00000012,-0.00000107,-0.00000005,0.00000012,0.0
 0000107,0.00000106,-0.00000002,-0.00000179,-0.00000106,-0.00000002,0.0
 0000179,-0.00000046,-0.00000020,-0.00000220,0.00000046,-0.00000020,0.0
 0000220,-0.00000140,0.00000007,-0.00000043,0.00000140,0.00000007,0.000
 00043,-0.00000001,0.00000010,-0.00000131,0.00000001,0.00000010,0.00000
 131\\\@


 A MAN IS EXACTLY AS GREAT AS THE TIDE SURGING
 BENEATH HIM.      - BISMARCK
 Job cpu time:       0 days  0 hours 41 minutes 36.1 seconds.
 File lengths (MBytes):  RWF=     61 Int=      0 D2E=      0 Chk=      6 Scr=      1
 Normal termination of Gaussian 09 at Thu Sep 28 14:53:39 2023.
