 Entering Gaussian System, Link 0=g09
 Initial command:
 /home/minenky/programs//g09/l1.exe "/local/scratch/minenky/m1_00_188-90-9-C32H16_B3LYP-D3/Gau-18439.inp" -scrdir="/local/scratch/minenky/m1_00_188-90-9-C32H16_B3LYP-D3/"
 Entering Link 1 = /home/minenky/programs//g09/l1.exe PID=     18455.
  
 Copyright (c) 1988,1990,1992,1993,1995,1998,2003,2009,2013,
            Gaussian, Inc.  All Rights Reserved.
  
 This is part of the Gaussian(R) 09 program.  It is based on
 the Gaussian(R) 03 system (copyright 2003, Gaussian, Inc.),
 the Gaussian(R) 98 system (copyright 1998, Gaussian, Inc.),
 the Gaussian(R) 94 system (copyright 1995, Gaussian, Inc.),
 the Gaussian 92(TM) system (copyright 1992, Gaussian, Inc.),
 the Gaussian 90(TM) system (copyright 1990, Gaussian, Inc.),
 the Gaussian 88(TM) system (copyright 1988, Gaussian, Inc.),
 the Gaussian 86(TM) system (copyright 1986, Carnegie Mellon
 University), and the Gaussian 82(TM) system (copyright 1983,
 Carnegie Mellon University). Gaussian is a federally registered
 trademark of Gaussian, Inc.
  
 This software contains proprietary and confidential information,
 including trade secrets, belonging to Gaussian, Inc.
  
 This software is provided under written license and may be
 used, copied, transmitted, or stored only in accord with that
 written license.
  
 The following legend is applicable only to US Government
 contracts under FAR:
  
                    RESTRICTED RIGHTS LEGEND
  
 Use, reproduction and disclosure by the US Government is
 subject to restrictions as set forth in subparagraphs (a)
 and (c) of the Commercial Computer Software - Restricted
 Rights clause in FAR 52.227-19.
  
 Gaussian, Inc.
 340 Quinnipiac St., Bldg. 40, Wallingford CT 06492
  
  
 ---------------------------------------------------------------
 Warning -- This program may not be used in any manner that
 competes with the business of Gaussian, Inc. or will provide
 assistance to any competitor of Gaussian, Inc.  The licensee
 of this program is prohibited from giving any competitor of
 Gaussian, Inc. access to this program.  By using this program,
 the user acknowledges that Gaussian, Inc. is engaged in the
 business of creating and licensing software in the field of
 computational chemistry and represents and warrants to the
 licensee that it is not a competitor of Gaussian, Inc. and that
 it will not use this program in any manner prohibited above.
 ---------------------------------------------------------------
  

 Cite this work as:
 Gaussian 09, Revision D.01,
 M. J. Frisch, G. W. Trucks, H. B. Schlegel, G. E. Scuseria, 
 M. A. Robb, J. R. Cheeseman, G. Scalmani, V. Barone, B. Mennucci, 
 G. A. Petersson, H. Nakatsuji, M. Caricato, X. Li, H. P. Hratchian, 
 A. F. Izmaylov, J. Bloino, G. Zheng, J. L. Sonnenberg, M. Hada, 
 M. Ehara, K. Toyota, R. Fukuda, J. Hasegawa, M. Ishida, T. Nakajima, 
 Y. Honda, O. Kitao, H. Nakai, T. Vreven, J. A. Montgomery, Jr., 
 J. E. Peralta, F. Ogliaro, M. Bearpark, J. J. Heyd, E. Brothers, 
 K. N. Kudin, V. N. Staroverov, T. Keith, R. Kobayashi, J. Normand, 
 K. Raghavachari, A. Rendell, J. C. Burant, S. S. Iyengar, J. Tomasi, 
 M. Cossi, N. Rega, J. M. Millam, M. Klene, J. E. Knox, J. B. Cross, 
 V. Bakken, C. Adamo, J. Jaramillo, R. Gomperts, R. E. Stratmann, 
 O. Yazyev, A. J. Austin, R. Cammi, C. Pomelli, J. W. Ochterski, 
 R. L. Martin, K. Morokuma, V. G. Zakrzewski, G. A. Voth, 
 P. Salvador, J. J. Dannenberg, S. Dapprich, A. D. Daniels, 
 O. Farkas, J. B. Foresman, J. V. Ortiz, J. Cioslowski, 
 and D. J. Fox, Gaussian, Inc., Wallingford CT, 2013.
 
 ******************************************
 Gaussian 09:  AM64L-G09RevD.01 24-Apr-2013
                23-Jul-2019 
 ******************************************
 %Mem=32000MB
 %NProcShared=16
 Will use up to   16 processors via shared memory.
 %Chk=m1_00_188-90-9-C32H16_B3LYP-D3
 ----------------------------------------------------------------------
 #P wB97XD/def2tzvp opt=(tight) freq integral(Grid=ultrafine) # SCF(Max
 Cycle=380) 5d 7f GFPrint
 ----------------------------------------------------------------------
 1/7=10,14=-1,18=20,19=15,26=4,38=1/1,3;
 2/9=110,12=2,17=6,18=5,40=1/2;
 3/5=44,7=101,8=11,11=2,16=1,24=100,25=1,30=1,71=1,74=-58,75=-5/1,2,3;
 4//1;
 5/5=2,7=380,38=5/2;
 6/7=2,8=2,9=2,10=2,28=1/1;
 7//1,2,3,16;
 1/7=10,14=-1,18=20,19=15,26=4/3(2);
 2/9=110/2;
 99//99;
 2/9=110/2;
 3/5=44,7=101,8=11,11=2,16=1,25=1,30=1,71=1,74=-58,75=-5/1,2,3;
 4/5=5,16=3,69=1/1;
 5/5=2,7=380,38=5/2;
 7//1,2,3,16;
 1/7=10,14=-1,18=20,19=15,26=4/3(-5);
 2/9=110/2;
 6/7=2,8=2,9=2,10=2,19=2,28=1/1;
 99/9=1/99;
 Leave Link    1 at Tue Jul 23 19:19:18 2019, MaxMem=  4194304000 cpu:         1.4
 (Enter /home/minenky/programs//g09/l101.exe)
 ---------------------------------------
 The PBEPBE optimization and frequencies
 ---------------------------------------
 Symbolic Z-matrix:
 Charge =  0 Multiplicity = 1
 C                     0.64547   0.73595  -0.01728 
 C                     1.80558   1.46524  -0.09503 
 C                    -1.84094   0.73175   0.03456 
 C                    -0.61691   1.43405   0.01728 
 C                    -3.04566   2.84593   0.14687 
 C                    -3.0356    1.46873   0.11231 
 C                     0.64547  -0.73595   0.01728 
 C                     1.80558  -1.46524   0.09503 
 C                    -0.61691  -1.43405  -0.01728 
 C                    -1.84094  -0.73175  -0.03456 
 C                    -3.0356   -1.46873  -0.11231 
 C                    -3.04566  -2.84593  -0.14687 
 C                     1.82948  -2.88374   0.09503 
 C                     1.81395  -5.69102   0.06911 
 C                     3.01628  -4.99563   0.14687 
 C                     3.02929  -3.60978   0.16415 
 C                     0.59624  -3.58637   0.01728 
 C                    -0.62235  -2.85903  -0.03456 
 C                    -1.85181  -3.57289  -0.10367 
 C                    -1.83155  -5.00091  -0.12959 
 C                    -0.66412  -5.69056  -0.07775 
 C                     0.59259  -5.00865   0. 
 C                     1.82948   2.88374  -0.09503 
 C                     3.02929   3.60978  -0.16415 
 C                     3.01628   4.99563  -0.14687 
 C                     1.81395   5.69102  -0.06911 
 C                     0.59624   3.58637  -0.01728 
 C                     0.59259   5.00865   0. 
 C                    -0.66412   5.69056   0.07775 
 C                    -1.83155   5.00091   0.12959 
 C                    -1.85181   3.57289   0.10367 
 C                    -0.62235   2.85903   0.03456 
 H                     2.76404   0.96601  -0.16415 
 H                    -3.98878   3.37842   0.21598 
 H                    -3.98449   0.95496   0.15551 
 H                     2.76404  -0.96601   0.16415 
 H                    -3.98449  -0.95496  -0.15551 
 H                    -3.98878  -3.37842  -0.21598 
 H                     1.81193  -6.77392   0.06047 
 H                     3.9511   -5.54127   0.1987 
 H                     3.9699   -3.07304   0.22462 
 H                    -2.77912  -5.52575  -0.18142 
 H                    -0.66433  -6.77361  -0.08639 
 H                     3.9699    3.07304  -0.22462 
 H                     3.9511    5.54127  -0.1987 
 H                     1.81193   6.77392  -0.06047 
 H                    -0.66433   6.77361   0.08639 
 H                    -2.77912   5.52575   0.18142 
 
 NAtoms=     48 NQM=       48 NQMF=       0 NMMI=      0 NMMIF=      0
                NMic=       0 NMicF=      0.
                    Isotopes and Nuclear Properties:
 (Nuclear quadrupole moments (NQMom) in fm**2, nuclear magnetic moments (NMagM)
  in nuclear magnetons)

  Atom         1           2           3           4           5           6           7           8           9          10
 IAtWgt=          12          12          12          12          12          12          12          12          12          12
 AtmWgt=  12.0000000  12.0000000  12.0000000  12.0000000  12.0000000  12.0000000  12.0000000  12.0000000  12.0000000  12.0000000
 NucSpn=           0           0           0           0           0           0           0           0           0           0
 AtZEff=   0.0000000   0.0000000   0.0000000   0.0000000   0.0000000   0.0000000   0.0000000   0.0000000   0.0000000   0.0000000
 NQMom=    0.0000000   0.0000000   0.0000000   0.0000000   0.0000000   0.0000000   0.0000000   0.0000000   0.0000000   0.0000000
 NMagM=    0.0000000   0.0000000   0.0000000   0.0000000   0.0000000   0.0000000   0.0000000   0.0000000   0.0000000   0.0000000
 AtZNuc=   6.0000000   6.0000000   6.0000000   6.0000000   6.0000000   6.0000000   6.0000000   6.0000000   6.0000000   6.0000000

  Atom        11          12          13          14          15          16          17          18          19          20
 IAtWgt=          12          12          12          12          12          12          12          12          12          12
 AtmWgt=  12.0000000  12.0000000  12.0000000  12.0000000  12.0000000  12.0000000  12.0000000  12.0000000  12.0000000  12.0000000
 NucSpn=           0           0           0           0           0           0           0           0           0           0
 AtZEff=   0.0000000   0.0000000   0.0000000   0.0000000   0.0000000   0.0000000   0.0000000   0.0000000   0.0000000   0.0000000
 NQMom=    0.0000000   0.0000000   0.0000000   0.0000000   0.0000000   0.0000000   0.0000000   0.0000000   0.0000000   0.0000000
 NMagM=    0.0000000   0.0000000   0.0000000   0.0000000   0.0000000   0.0000000   0.0000000   0.0000000   0.0000000   0.0000000
 AtZNuc=   6.0000000   6.0000000   6.0000000   6.0000000   6.0000000   6.0000000   6.0000000   6.0000000   6.0000000   6.0000000

  Atom        21          22          23          24          25          26          27          28          29          30
 IAtWgt=          12          12          12          12          12          12          12          12          12          12
 AtmWgt=  12.0000000  12.0000000  12.0000000  12.0000000  12.0000000  12.0000000  12.0000000  12.0000000  12.0000000  12.0000000
 NucSpn=           0           0           0           0           0           0           0           0           0           0
 AtZEff=   0.0000000   0.0000000   0.0000000   0.0000000   0.0000000   0.0000000   0.0000000   0.0000000   0.0000000   0.0000000
 NQMom=    0.0000000   0.0000000   0.0000000   0.0000000   0.0000000   0.0000000   0.0000000   0.0000000   0.0000000   0.0000000
 NMagM=    0.0000000   0.0000000   0.0000000   0.0000000   0.0000000   0.0000000   0.0000000   0.0000000   0.0000000   0.0000000
 AtZNuc=   6.0000000   6.0000000   6.0000000   6.0000000   6.0000000   6.0000000   6.0000000   6.0000000   6.0000000   6.0000000

  Atom        31          32          33          34          35          36          37          38          39          40
 IAtWgt=          12          12           1           1           1           1           1           1           1           1
 AtmWgt=  12.0000000  12.0000000   1.0078250   1.0078250   1.0078250   1.0078250   1.0078250   1.0078250   1.0078250   1.0078250
 NucSpn=           0           0           1           1           1           1           1           1           1           1
 AtZEff=   0.0000000   0.0000000   0.0000000   0.0000000   0.0000000   0.0000000   0.0000000   0.0000000   0.0000000   0.0000000
 NQMom=    0.0000000   0.0000000   0.0000000   0.0000000   0.0000000   0.0000000   0.0000000   0.0000000   0.0000000   0.0000000
 NMagM=    0.0000000   0.0000000   2.7928460   2.7928460   2.7928460   2.7928460   2.7928460   2.7928460   2.7928460   2.7928460
 AtZNuc=   6.0000000   6.0000000   1.0000000   1.0000000   1.0000000   1.0000000   1.0000000   1.0000000   1.0000000   1.0000000

  Atom        41          42          43          44          45          46          47          48
 IAtWgt=           1           1           1           1           1           1           1           1
 AtmWgt=   1.0078250   1.0078250   1.0078250   1.0078250   1.0078250   1.0078250   1.0078250   1.0078250
 NucSpn=           1           1           1           1           1           1           1           1
 AtZEff=   0.0000000   0.0000000   0.0000000   0.0000000   0.0000000   0.0000000   0.0000000   0.0000000
 NQMom=    0.0000000   0.0000000   0.0000000   0.0000000   0.0000000   0.0000000   0.0000000   0.0000000
 NMagM=    2.7928460   2.7928460   2.7928460   2.7928460   2.7928460   2.7928460   2.7928460   2.7928460
 AtZNuc=   1.0000000   1.0000000   1.0000000   1.0000000   1.0000000   1.0000000   1.0000000   1.0000000
 Leave Link  101 at Tue Jul 23 19:19:19 2019, MaxMem=  4194304000 cpu:         9.5
 (Enter /home/minenky/programs//g09/l103.exe)

 GradGradGradGradGradGradGradGradGradGradGradGradGradGradGradGradGradGrad
 Berny optimization.
 Initialization pass.
                           ----------------------------
                           !    Initial Parameters    !
                           ! (Angstroms and Degrees)  !
 --------------------------                            --------------------------
 ! Name  Definition              Value          Derivative Info.                !
 --------------------------------------------------------------------------------
 ! R1    R(1,2)                  1.3725         estimate D2E/DX2                !
 ! R2    R(1,4)                  1.443          estimate D2E/DX2                !
 ! R3    R(1,7)                  1.4723         estimate D2E/DX2                !
 ! R4    R(2,23)                 1.4187         estimate D2E/DX2                !
 ! R5    R(2,33)                 1.0829         estimate D2E/DX2                !
 ! R6    R(3,4)                  1.4113         estimate D2E/DX2                !
 ! R7    R(3,6)                  1.4058         estimate D2E/DX2                !
 ! R8    R(3,10)                 1.4651         estimate D2E/DX2                !
 ! R9    R(4,32)                 1.4251         estimate D2E/DX2                !
 ! R10   R(5,6)                  1.3777         estimate D2E/DX2                !
 ! R11   R(5,31)                 1.3984         estimate D2E/DX2                !
 ! R12   R(5,34)                 1.0853         estimate D2E/DX2                !
 ! R13   R(6,35)                 1.0799         estimate D2E/DX2                !
 ! R14   R(7,8)                  1.3725         estimate D2E/DX2                !
 ! R15   R(7,9)                  1.443          estimate D2E/DX2                !
 ! R16   R(8,13)                 1.4187         estimate D2E/DX2                !
 ! R17   R(8,36)                 1.0829         estimate D2E/DX2                !
 ! R18   R(9,10)                 1.4113         estimate D2E/DX2                !
 ! R19   R(9,18)                 1.4251         estimate D2E/DX2                !
 ! R20   R(10,11)                1.4058         estimate D2E/DX2                !
 ! R21   R(11,12)                1.3777         estimate D2E/DX2                !
 ! R22   R(11,37)                1.0799         estimate D2E/DX2                !
 ! R23   R(12,19)                1.3984         estimate D2E/DX2                !
 ! R24   R(12,38)                1.0853         estimate D2E/DX2                !
 ! R25   R(13,16)                1.4041         estimate D2E/DX2                !
 ! R26   R(13,17)                1.4215         estimate D2E/DX2                !
 ! R27   R(14,15)                1.3911         estimate D2E/DX2                !
 ! R28   R(14,22)                1.4008         estimate D2E/DX2                !
 ! R29   R(14,39)                1.0829         estimate D2E/DX2                !
 ! R30   R(15,16)                1.386          estimate D2E/DX2                !
 ! R31   R(15,40)                1.0837         estimate D2E/DX2                !
 ! R32   R(16,41)                1.0847         estimate D2E/DX2                !
 ! R33   R(17,18)                1.4201         estimate D2E/DX2                !
 ! R34   R(17,22)                1.4224         estimate D2E/DX2                !
 ! R35   R(18,19)                1.4234         estimate D2E/DX2                !
 ! R36   R(19,20)                1.4284         estimate D2E/DX2                !
 ! R37   R(20,21)                1.3569         estimate D2E/DX2                !
 ! R38   R(20,42)                1.0845         estimate D2E/DX2                !
 ! R39   R(21,22)                1.4319         estimate D2E/DX2                !
 ! R40   R(21,43)                1.0831         estimate D2E/DX2                !
 ! R41   R(23,24)                1.4041         estimate D2E/DX2                !
 ! R42   R(23,27)                1.4215         estimate D2E/DX2                !
 ! R43   R(24,25)                1.386          estimate D2E/DX2                !
 ! R44   R(24,44)                1.0847         estimate D2E/DX2                !
 ! R45   R(25,26)                1.3911         estimate D2E/DX2                !
 ! R46   R(25,45)                1.0837         estimate D2E/DX2                !
 ! R47   R(26,28)                1.4008         estimate D2E/DX2                !
 ! R48   R(26,46)                1.0829         estimate D2E/DX2                !
 ! R49   R(27,28)                1.4224         estimate D2E/DX2                !
 ! R50   R(27,32)                1.4201         estimate D2E/DX2                !
 ! R51   R(28,29)                1.4319         estimate D2E/DX2                !
 ! R52   R(29,30)                1.3569         estimate D2E/DX2                !
 ! R53   R(29,47)                1.0831         estimate D2E/DX2                !
 ! R54   R(30,31)                1.4284         estimate D2E/DX2                !
 ! R55   R(30,48)                1.0845         estimate D2E/DX2                !
 ! R56   R(31,32)                1.4234         estimate D2E/DX2                !
 ! A1    A(2,1,4)              118.9314         estimate D2E/DX2                !
 ! A2    A(2,1,7)              122.1771         estimate D2E/DX2                !
 ! A3    A(4,1,7)              118.888          estimate D2E/DX2                !
 ! A4    A(1,2,23)             123.0601         estimate D2E/DX2                !
 ! A5    A(1,2,33)             120.4496         estimate D2E/DX2                !
 ! A6    A(23,2,33)            116.49           estimate D2E/DX2                !
 ! A7    A(4,3,6)              118.4782         estimate D2E/DX2                !
 ! A8    A(4,3,10)             119.7685         estimate D2E/DX2                !
 ! A9    A(6,3,10)             121.7526         estimate D2E/DX2                !
 ! A10   A(1,4,3)              121.2188         estimate D2E/DX2                !
 ! A11   A(1,4,32)             119.1688         estimate D2E/DX2                !
 ! A12   A(3,4,32)             119.6125         estimate D2E/DX2                !
 ! A13   A(6,5,31)             120.841          estimate D2E/DX2                !
 ! A14   A(6,5,34)             119.8965         estimate D2E/DX2                !
 ! A15   A(31,5,34)            119.2609         estimate D2E/DX2                !
 ! A16   A(3,6,5)              122.1164         estimate D2E/DX2                !
 ! A17   A(3,6,35)             119.9661         estimate D2E/DX2                !
 ! A18   A(5,6,35)             117.9155         estimate D2E/DX2                !
 ! A19   A(1,7,8)              122.1771         estimate D2E/DX2                !
 ! A20   A(1,7,9)              118.888          estimate D2E/DX2                !
 ! A21   A(8,7,9)              118.9314         estimate D2E/DX2                !
 ! A22   A(7,8,13)             123.0601         estimate D2E/DX2                !
 ! A23   A(7,8,36)             120.4496         estimate D2E/DX2                !
 ! A24   A(13,8,36)            116.49           estimate D2E/DX2                !
 ! A25   A(7,9,10)             121.2188         estimate D2E/DX2                !
 ! A26   A(7,9,18)             119.1688         estimate D2E/DX2                !
 ! A27   A(10,9,18)            119.6125         estimate D2E/DX2                !
 ! A28   A(3,10,9)             119.7685         estimate D2E/DX2                !
 ! A29   A(3,10,11)            121.7526         estimate D2E/DX2                !
 ! A30   A(9,10,11)            118.4782         estimate D2E/DX2                !
 ! A31   A(10,11,12)           122.1164         estimate D2E/DX2                !
 ! A32   A(10,11,37)           119.9661         estimate D2E/DX2                !
 ! A33   A(12,11,37)           117.9155         estimate D2E/DX2                !
 ! A34   A(11,12,19)           120.841          estimate D2E/DX2                !
 ! A35   A(11,12,38)           119.8965         estimate D2E/DX2                !
 ! A36   A(19,12,38)           119.261          estimate D2E/DX2                !
 ! A37   A(8,13,16)            122.1011         estimate D2E/DX2                !
 ! A38   A(8,13,17)            118.6598         estimate D2E/DX2                !
 ! A39   A(16,13,17)           119.2386         estimate D2E/DX2                !
 ! A40   A(15,14,22)           120.8535         estimate D2E/DX2                !
 ! A41   A(15,14,39)           120.1269         estimate D2E/DX2                !
 ! A42   A(22,14,39)           119.0195         estimate D2E/DX2                !
 ! A43   A(14,15,16)           120.5726         estimate D2E/DX2                !
 ! A44   A(14,15,40)           119.7726         estimate D2E/DX2                !
 ! A45   A(16,15,40)           119.6543         estimate D2E/DX2                !
 ! A46   A(13,16,15)           120.5569         estimate D2E/DX2                !
 ! A47   A(13,16,41)           119.2018         estimate D2E/DX2                !
 ! A48   A(15,16,41)           120.24           estimate D2E/DX2                !
 ! A49   A(13,17,18)           119.5575         estimate D2E/DX2                !
 ! A50   A(13,17,22)           119.8111         estimate D2E/DX2                !
 ! A51   A(18,17,22)           120.6304         estimate D2E/DX2                !
 ! A52   A(9,18,17)            120.5589         estimate D2E/DX2                !
 ! A53   A(9,18,19)            120.3566         estimate D2E/DX2                !
 ! A54   A(17,18,19)           119.0845         estimate D2E/DX2                !
 ! A55   A(12,19,18)           118.5669         estimate D2E/DX2                !
 ! A56   A(12,19,20)           122.0902         estimate D2E/DX2                !
 ! A57   A(18,19,20)           119.3428         estimate D2E/DX2                !
 ! A58   A(19,20,21)           121.3075         estimate D2E/DX2                !
 ! A59   A(19,20,42)           118.1845         estimate D2E/DX2                !
 ! A60   A(21,20,42)           120.5048         estimate D2E/DX2                !
 ! A61   A(20,21,22)           121.0055         estimate D2E/DX2                !
 ! A62   A(20,21,43)           120.5155         estimate D2E/DX2                !
 ! A63   A(22,21,43)           118.4772         estimate D2E/DX2                !
 ! A64   A(14,22,17)           118.9647         estimate D2E/DX2                !
 ! A65   A(14,22,21)           122.4073         estimate D2E/DX2                !
 ! A66   A(17,22,21)           118.6264         estimate D2E/DX2                !
 ! A67   A(2,23,24)            122.1011         estimate D2E/DX2                !
 ! A68   A(2,23,27)            118.6598         estimate D2E/DX2                !
 ! A69   A(24,23,27)           119.2386         estimate D2E/DX2                !
 ! A70   A(23,24,25)           120.5569         estimate D2E/DX2                !
 ! A71   A(23,24,44)           119.2018         estimate D2E/DX2                !
 ! A72   A(25,24,44)           120.24           estimate D2E/DX2                !
 ! A73   A(24,25,26)           120.5726         estimate D2E/DX2                !
 ! A74   A(24,25,45)           119.6543         estimate D2E/DX2                !
 ! A75   A(26,25,45)           119.7726         estimate D2E/DX2                !
 ! A76   A(25,26,28)           120.8535         estimate D2E/DX2                !
 ! A77   A(25,26,46)           120.1269         estimate D2E/DX2                !
 ! A78   A(28,26,46)           119.0195         estimate D2E/DX2                !
 ! A79   A(23,27,28)           119.8111         estimate D2E/DX2                !
 ! A80   A(23,27,32)           119.5575         estimate D2E/DX2                !
 ! A81   A(28,27,32)           120.6304         estimate D2E/DX2                !
 ! A82   A(26,28,27)           118.9647         estimate D2E/DX2                !
 ! A83   A(26,28,29)           122.4073         estimate D2E/DX2                !
 ! A84   A(27,28,29)           118.6264         estimate D2E/DX2                !
 ! A85   A(28,29,30)           121.0055         estimate D2E/DX2                !
 ! A86   A(28,29,47)           118.4772         estimate D2E/DX2                !
 ! A87   A(30,29,47)           120.5155         estimate D2E/DX2                !
 ! A88   A(29,30,31)           121.3076         estimate D2E/DX2                !
 ! A89   A(29,30,48)           120.5048         estimate D2E/DX2                !
 ! A90   A(31,30,48)           118.1844         estimate D2E/DX2                !
 ! A91   A(5,31,30)            122.0902         estimate D2E/DX2                !
 ! A92   A(5,31,32)            118.5669         estimate D2E/DX2                !
 ! A93   A(30,31,32)           119.3427         estimate D2E/DX2                !
 ! A94   A(4,32,27)            120.5589         estimate D2E/DX2                !
 ! A95   A(4,32,31)            120.3566         estimate D2E/DX2                !
 ! A96   A(27,32,31)           119.0845         estimate D2E/DX2                !
 ! D1    D(4,1,2,23)             2.3432         estimate D2E/DX2                !
 ! D2    D(4,1,2,33)          -177.4352         estimate D2E/DX2                !
 ! D3    D(7,1,2,23)          -178.3375         estimate D2E/DX2                !
 ! D4    D(7,1,2,33)             1.8841         estimate D2E/DX2                !
 ! D5    D(2,1,4,3)            177.0362         estimate D2E/DX2                !
 ! D6    D(2,1,4,32)            -2.9821         estimate D2E/DX2                !
 ! D7    D(7,1,4,3)             -2.3057         estimate D2E/DX2                !
 ! D8    D(7,1,4,32)           177.676          estimate D2E/DX2                !
 ! D9    D(2,1,7,8)              5.9818         estimate D2E/DX2                !
 ! D10   D(2,1,7,9)           -174.6987         estimate D2E/DX2                !
 ! D11   D(4,1,7,8)           -174.6987         estimate D2E/DX2                !
 ! D12   D(4,1,7,9)              4.6209         estimate D2E/DX2                !
 ! D13   D(1,2,23,24)          179.4554         estimate D2E/DX2                !
 ! D14   D(1,2,23,27)           -0.3019         estimate D2E/DX2                !
 ! D15   D(33,2,23,24)          -0.7581         estimate D2E/DX2                !
 ! D16   D(33,2,23,27)         179.4846         estimate D2E/DX2                !
 ! D17   D(6,3,4,1)            177.953          estimate D2E/DX2                !
 ! D18   D(6,3,4,32)            -2.0286         estimate D2E/DX2                !
 ! D19   D(10,3,4,1)            -2.3378         estimate D2E/DX2                !
 ! D20   D(10,3,4,32)          177.6805         estimate D2E/DX2                !
 ! D21   D(4,3,6,5)              1.2151         estimate D2E/DX2                !
 ! D22   D(4,3,6,35)          -178.2579         estimate D2E/DX2                !
 ! D23   D(10,3,6,5)          -178.488          estimate D2E/DX2                !
 ! D24   D(10,3,6,35)            2.039          estimate D2E/DX2                !
 ! D25   D(4,3,10,9)             4.7147         estimate D2E/DX2                !
 ! D26   D(4,3,10,11)         -175.586          estimate D2E/DX2                !
 ! D27   D(6,3,10,9)          -175.586          estimate D2E/DX2                !
 ! D28   D(6,3,10,11)            4.1133         estimate D2E/DX2                !
 ! D29   D(1,4,32,27)            1.6564         estimate D2E/DX2                !
 ! D30   D(1,4,32,31)         -178.3652         estimate D2E/DX2                !
 ! D31   D(3,4,32,27)         -178.3616         estimate D2E/DX2                !
 ! D32   D(3,4,32,31)            1.6168         estimate D2E/DX2                !
 ! D33   D(31,5,6,3)             0.0803         estimate D2E/DX2                !
 ! D34   D(31,5,6,35)          179.5636         estimate D2E/DX2                !
 ! D35   D(34,5,6,3)          -179.4557         estimate D2E/DX2                !
 ! D36   D(34,5,6,35)            0.0276         estimate D2E/DX2                !
 ! D37   D(6,5,31,30)          179.6057         estimate D2E/DX2                !
 ! D38   D(6,5,31,32)           -0.5272         estimate D2E/DX2                !
 ! D39   D(34,5,31,30)          -0.8554         estimate D2E/DX2                !
 ! D40   D(34,5,31,32)         179.0117         estimate D2E/DX2                !
 ! D41   D(1,7,8,13)          -178.3375         estimate D2E/DX2                !
 ! D42   D(1,7,8,36)             1.8841         estimate D2E/DX2                !
 ! D43   D(9,7,8,13)             2.3432         estimate D2E/DX2                !
 ! D44   D(9,7,8,36)          -177.4352         estimate D2E/DX2                !
 ! D45   D(1,7,9,10)            -2.3057         estimate D2E/DX2                !
 ! D46   D(1,7,9,18)           177.676          estimate D2E/DX2                !
 ! D47   D(8,7,9,10)           177.0362         estimate D2E/DX2                !
 ! D48   D(8,7,9,18)            -2.9821         estimate D2E/DX2                !
 ! D49   D(7,8,13,16)          179.4554         estimate D2E/DX2                !
 ! D50   D(7,8,13,17)           -0.3019         estimate D2E/DX2                !
 ! D51   D(36,8,13,16)          -0.7581         estimate D2E/DX2                !
 ! D52   D(36,8,13,17)         179.4846         estimate D2E/DX2                !
 ! D53   D(7,9,10,3)            -2.3378         estimate D2E/DX2                !
 ! D54   D(7,9,10,11)          177.953          estimate D2E/DX2                !
 ! D55   D(18,9,10,3)          177.6805         estimate D2E/DX2                !
 ! D56   D(18,9,10,11)          -2.0286         estimate D2E/DX2                !
 ! D57   D(7,9,18,17)            1.6564         estimate D2E/DX2                !
 ! D58   D(7,9,18,19)         -178.3652         estimate D2E/DX2                !
 ! D59   D(10,9,18,17)        -178.3616         estimate D2E/DX2                !
 ! D60   D(10,9,18,19)           1.6168         estimate D2E/DX2                !
 ! D61   D(3,10,11,12)        -178.488          estimate D2E/DX2                !
 ! D62   D(3,10,11,37)           2.039          estimate D2E/DX2                !
 ! D63   D(9,10,11,12)           1.2151         estimate D2E/DX2                !
 ! D64   D(9,10,11,37)        -178.2579         estimate D2E/DX2                !
 ! D65   D(10,11,12,19)          0.0803         estimate D2E/DX2                !
 ! D66   D(10,11,12,38)       -179.4557         estimate D2E/DX2                !
 ! D67   D(37,11,12,19)        179.5636         estimate D2E/DX2                !
 ! D68   D(37,11,12,38)          0.0276         estimate D2E/DX2                !
 ! D69   D(11,12,19,18)         -0.5272         estimate D2E/DX2                !
 ! D70   D(11,12,19,20)        179.6057         estimate D2E/DX2                !
 ! D71   D(38,12,19,18)        179.0117         estimate D2E/DX2                !
 ! D72   D(38,12,19,20)         -0.8554         estimate D2E/DX2                !
 ! D73   D(8,13,16,15)        -179.2733         estimate D2E/DX2                !
 ! D74   D(8,13,16,41)           0.3146         estimate D2E/DX2                !
 ! D75   D(17,13,16,15)          0.4826         estimate D2E/DX2                !
 ! D76   D(17,13,16,41)       -179.9295         estimate D2E/DX2                !
 ! D77   D(8,13,17,18)          -1.0878         estimate D2E/DX2                !
 ! D78   D(8,13,17,22)         179.2793         estimate D2E/DX2                !
 ! D79   D(16,13,17,18)        179.1478         estimate D2E/DX2                !
 ! D80   D(16,13,17,22)         -0.4851         estimate D2E/DX2                !
 ! D81   D(22,14,15,16)          0.3183         estimate D2E/DX2                !
 ! D82   D(22,14,15,40)       -179.9454         estimate D2E/DX2                !
 ! D83   D(39,14,15,16)       -179.7319         estimate D2E/DX2                !
 ! D84   D(39,14,15,40)          0.0045         estimate D2E/DX2                !
 ! D85   D(15,14,22,17)         -0.3194         estimate D2E/DX2                !
 ! D86   D(15,14,22,21)       -179.8487         estimate D2E/DX2                !
 ! D87   D(39,14,22,17)        179.7302         estimate D2E/DX2                !
 ! D88   D(39,14,22,21)          0.2008         estimate D2E/DX2                !
 ! D89   D(14,15,16,13)         -0.4001         estimate D2E/DX2                !
 ! D90   D(14,15,16,41)       -179.9837         estimate D2E/DX2                !
 ! D91   D(40,15,16,13)        179.8633         estimate D2E/DX2                !
 ! D92   D(40,15,16,41)          0.2796         estimate D2E/DX2                !
 ! D93   D(13,17,18,9)           0.3758         estimate D2E/DX2                !
 ! D94   D(13,17,18,19)       -179.6028         estimate D2E/DX2                !
 ! D95   D(22,17,18,9)        -179.9943         estimate D2E/DX2                !
 ! D96   D(22,17,18,19)          0.027          estimate D2E/DX2                !
 ! D97   D(13,17,22,14)          0.404          estimate D2E/DX2                !
 ! D98   D(13,17,22,21)        179.9513         estimate D2E/DX2                !
 ! D99   D(18,17,22,14)       -179.2249         estimate D2E/DX2                !
 ! D100  D(18,17,22,21)          0.3224         estimate D2E/DX2                !
 ! D101  D(9,18,19,12)          -0.3244         estimate D2E/DX2                !
 ! D102  D(9,18,19,20)         179.5464         estimate D2E/DX2                !
 ! D103  D(17,18,19,12)        179.6543         estimate D2E/DX2                !
 ! D104  D(17,18,19,20)         -0.4749         estimate D2E/DX2                !
 ! D105  D(12,19,20,21)       -179.5461         estimate D2E/DX2                !
 ! D106  D(12,19,20,42)         -0.1911         estimate D2E/DX2                !
 ! D107  D(18,19,20,21)          0.5878         estimate D2E/DX2                !
 ! D108  D(18,19,20,42)        179.9428         estimate D2E/DX2                !
 ! D109  D(19,20,21,22)         -0.234          estimate D2E/DX2                !
 ! D110  D(19,20,21,43)        179.2715         estimate D2E/DX2                !
 ! D111  D(42,20,21,22)       -179.5741         estimate D2E/DX2                !
 ! D112  D(42,20,21,43)         -0.0686         estimate D2E/DX2                !
 ! D113  D(20,21,22,14)        179.3092         estimate D2E/DX2                !
 ! D114  D(20,21,22,17)         -0.2217         estimate D2E/DX2                !
 ! D115  D(43,21,22,14)         -0.2062         estimate D2E/DX2                !
 ! D116  D(43,21,22,17)       -179.7371         estimate D2E/DX2                !
 ! D117  D(2,23,24,25)        -179.2733         estimate D2E/DX2                !
 ! D118  D(2,23,24,44)           0.3146         estimate D2E/DX2                !
 ! D119  D(27,23,24,25)          0.4826         estimate D2E/DX2                !
 ! D120  D(27,23,24,44)       -179.9295         estimate D2E/DX2                !
 ! D121  D(2,23,27,28)         179.2793         estimate D2E/DX2                !
 ! D122  D(2,23,27,32)          -1.0878         estimate D2E/DX2                !
 ! D123  D(24,23,27,28)         -0.4851         estimate D2E/DX2                !
 ! D124  D(24,23,27,32)        179.1478         estimate D2E/DX2                !
 ! D125  D(23,24,25,26)         -0.4001         estimate D2E/DX2                !
 ! D126  D(23,24,25,45)        179.8633         estimate D2E/DX2                !
 ! D127  D(44,24,25,26)       -179.9837         estimate D2E/DX2                !
 ! D128  D(44,24,25,45)          0.2796         estimate D2E/DX2                !
 ! D129  D(24,25,26,28)          0.3183         estimate D2E/DX2                !
 ! D130  D(24,25,26,46)       -179.7319         estimate D2E/DX2                !
 ! D131  D(45,25,26,28)       -179.9454         estimate D2E/DX2                !
 ! D132  D(45,25,26,46)          0.0045         estimate D2E/DX2                !
 ! D133  D(25,26,28,27)         -0.3194         estimate D2E/DX2                !
 ! D134  D(25,26,28,29)       -179.8487         estimate D2E/DX2                !
 ! D135  D(46,26,28,27)        179.7302         estimate D2E/DX2                !
 ! D136  D(46,26,28,29)          0.2008         estimate D2E/DX2                !
 ! D137  D(23,27,28,26)          0.404          estimate D2E/DX2                !
 ! D138  D(23,27,28,29)        179.9513         estimate D2E/DX2                !
 ! D139  D(32,27,28,26)       -179.2249         estimate D2E/DX2                !
 ! D140  D(32,27,28,29)          0.3224         estimate D2E/DX2                !
 ! D141  D(23,27,32,4)           0.3758         estimate D2E/DX2                !
 ! D142  D(23,27,32,31)       -179.6028         estimate D2E/DX2                !
 ! D143  D(28,27,32,4)        -179.9943         estimate D2E/DX2                !
 ! D144  D(28,27,32,31)          0.027          estimate D2E/DX2                !
 ! D145  D(26,28,29,30)        179.3092         estimate D2E/DX2                !
 ! D146  D(26,28,29,47)         -0.2062         estimate D2E/DX2                !
 ! D147  D(27,28,29,30)         -0.2217         estimate D2E/DX2                !
 ! D148  D(27,28,29,47)       -179.7371         estimate D2E/DX2                !
 ! D149  D(28,29,30,31)         -0.234          estimate D2E/DX2                !
 ! D150  D(28,29,30,48)       -179.5741         estimate D2E/DX2                !
 ! D151  D(47,29,30,31)        179.2715         estimate D2E/DX2                !
 ! D152  D(47,29,30,48)         -0.0686         estimate D2E/DX2                !
 ! D153  D(29,30,31,5)        -179.5461         estimate D2E/DX2                !
 ! D154  D(29,30,31,32)          0.5878         estimate D2E/DX2                !
 ! D155  D(48,30,31,5)          -0.1911         estimate D2E/DX2                !
 ! D156  D(48,30,31,32)        179.9428         estimate D2E/DX2                !
 ! D157  D(5,31,32,4)           -0.3244         estimate D2E/DX2                !
 ! D158  D(5,31,32,27)         179.6543         estimate D2E/DX2                !
 ! D159  D(30,31,32,4)         179.5464         estimate D2E/DX2                !
 ! D160  D(30,31,32,27)         -0.4749         estimate D2E/DX2                !
 --------------------------------------------------------------------------------
 Trust Radius=3.00D-01 FncErr=1.00D-07 GrdErr=1.00D-06
 Number of steps in this run=    288 maximum allowed number of steps=    288.
 GradGradGradGradGradGradGradGradGradGradGradGradGradGradGradGradGradGrad

 Leave Link  103 at Tue Jul 23 19:19:19 2019, MaxMem=  4194304000 cpu:         0.3
 (Enter /home/minenky/programs//g09/l202.exe)
                          Input orientation:                          
 ---------------------------------------------------------------------
 Center     Atomic      Atomic             Coordinates (Angstroms)
 Number     Number       Type             X           Y           Z
 ---------------------------------------------------------------------
      1          6           0        0.645467    0.735954   -0.017278
      2          6           0        1.805584    1.465244   -0.095032
      3          6           0       -1.840937    0.731747    0.034557
      4          6           0       -0.616910    1.434050    0.017278
      5          6           0       -3.045655    2.845927    0.146867
      6          6           0       -3.035596    1.468730    0.112310
      7          6           0        0.645467   -0.735954    0.017278
      8          6           0        1.805584   -1.465244    0.095032
      9          6           0       -0.616910   -1.434050   -0.017278
     10          6           0       -1.840937   -0.731747   -0.034557
     11          6           0       -3.035596   -1.468730   -0.112310
     12          6           0       -3.045655   -2.845927   -0.146867
     13          6           0        1.829482   -2.883737    0.095032
     14          6           0        1.813947   -5.691018    0.069114
     15          6           0        3.016276   -4.995629    0.146867
     16          6           0        3.029291   -3.609783    0.164145
     17          6           0        0.596235   -3.586368    0.017278
     18          6           0       -0.622346   -2.859026   -0.034557
     19          6           0       -1.851805   -3.572894   -0.103671
     20          6           0       -1.831545   -5.000907   -0.129589
     21          6           0       -0.664119   -5.690563   -0.077753
     22          6           0        0.592590   -5.008652    0.000000
     23          6           0        1.829482    2.883737   -0.095032
     24          6           0        3.029291    3.609783   -0.164145
     25          6           0        3.016276    4.995629   -0.146867
     26          6           0        1.813947    5.691018   -0.069114
     27          6           0        0.596235    3.586368   -0.017278
     28          6           0        0.592590    5.008652    0.000000
     29          6           0       -0.664119    5.690563    0.077753
     30          6           0       -1.831545    5.000907    0.129589
     31          6           0       -1.851806    3.572894    0.103671
     32          6           0       -0.622346    2.859026    0.034557
     33          1           0        2.764042    0.966014   -0.164145
     34          1           0       -3.988777    3.378424    0.215981
     35          1           0       -3.984494    0.954956    0.155506
     36          1           0        2.764042   -0.966014    0.164145
     37          1           0       -3.984494   -0.954956   -0.155506
     38          1           0       -3.988777   -3.378424   -0.215981
     39          1           0        1.811930   -6.773924    0.060475
     40          1           0        3.951096   -5.541274    0.198702
     41          1           0        3.969898   -3.073044    0.224620
     42          1           0       -2.779119   -5.525746   -0.181424
     43          1           0       -0.664325   -6.773607   -0.086392
     44          1           0        3.969898    3.073044   -0.224620
     45          1           0        3.951096    5.541274   -0.198702
     46          1           0        1.811930    6.773924   -0.060475
     47          1           0       -0.664325    6.773607    0.086392
     48          1           0       -2.779119    5.525746    0.181424
 ---------------------------------------------------------------------
                    Distance matrix (angstroms):
                    1          2          3          4          5
     1  C    0.000000
     2  C    1.372509   0.000000
     3  C    2.486948   3.721818   0.000000
     4  C    1.442958   2.425297   1.411301   0.000000
     5  C    4.254799   5.049685   2.435922   2.812293   0.000000
     6  C    3.755526   4.845619   1.405845   2.420801   1.377667
     7  C    1.472314   2.490734   2.887326   2.510481   5.145002
     8  C    2.490734   2.936645   4.257645   3.778945   6.490254
     9  C    2.510481   3.778945   2.488294   2.868308   4.923814
    10  C    2.887326   4.257645   1.465125   2.488294   3.779419
    11  C    4.291840   5.660877   2.508162   3.780604   4.322446
    12  C    5.145002   6.490254   3.779419   4.923814   5.699428
    13  C    3.810075   4.353198   5.152413   4.963282   7.523211
    14  C    6.532900   7.158149   7.389945   7.528502   9.823503
    15  C    6.204734   6.577778   7.510524   7.386312   9.911458
    16  C    4.959936   5.226904   6.525703   6.225480   8.864618
    17  C    4.322741   5.195568   4.958450   5.164912   7.392873
    18  C    3.812024   4.959618   3.792544   4.293392   6.200954
    19  C    4.980964   6.225705   4.306873   5.158399   6.533706
    20  C    6.249782   7.418963   5.735011   6.550235   7.945017
    21  C    6.558871   7.570027   6.530205   7.125403   8.865316
    22  C    5.744875   6.587239   6.235016   6.555273   8.657529
    23  C    2.453754   1.418694   4.256739   2.845881   4.881281
    24  C    3.736720   2.470078   5.660538   4.249884   6.130675
    25  C    4.876716   3.732570   6.465765   5.090366   6.438517
    26  C    5.091237   4.225862   6.161436   4.902888   5.635328
    27  C    2.850839   2.442895   3.753845   2.470908   3.720021
    28  C    4.273060   3.746482   4.920891   3.773721   4.235065
    29  C    5.125641   4.897204   5.096727   4.257204   3.710585
    30  C    4.934266   5.077408   4.270228   3.769671   2.473520
    31  C    3.781432   4.225893   2.842008   2.471252   1.398436
    32  C    2.473352   2.802546   2.451587   1.425091   2.425946
    33  H    2.136085   1.082889   4.615213   3.418012   6.114195
    34  H    5.339782   6.109960   3.413361   3.897379   1.085269
    35  H    4.638357   5.817918   2.158538   3.404300   2.111223
    36  H    2.723595   2.626182   4.909686   4.148821   6.948653
    37  H    4.931006   6.275829   2.734214   4.132533   3.926775
    38  H    6.200307   7.553169   4.644297   5.880800   6.305845
    39  H    7.600326   8.240638   8.347407   8.559905  10.777065
    40  H    7.097705   7.333539   8.539636   8.339948  10.922562
    41  H    5.061504   5.038104   6.948263   6.433949   9.179229
    42  H    7.138881   8.360676   6.331118   7.290637   8.382346
    43  H    7.623243   8.601116   7.597985   8.208449   9.912647
    44  H    4.069007   2.699272   6.270139   4.876846   7.029052
    45  H    5.835340   4.607384   7.532171   6.146757   7.505920
    46  H    6.149763   5.308796   7.061188   5.866819   6.250463
    47  H    6.178961   5.857652   6.155581   5.340215   4.593589
    48  H    5.891467   6.130547   4.887145   4.630774   2.693263
                    6          7          8          9         10
     6  C    0.000000
     7  C    4.291840   0.000000
     8  C    5.660877   1.372509   0.000000
     9  C    3.780604   1.442958   2.425297   0.000000
    10  C    2.508162   2.486948   3.721818   1.411301   0.000000
    11  C    2.946036   3.755526   4.845619   2.420801   1.405845
    12  C    4.322446   4.254799   5.049685   2.812293   2.435922
    13  C    6.527883   2.453754   1.418694   2.845881   4.256739
    14  C    8.647654   5.091237   4.225862   4.902888   6.161436
    15  C    8.855184   4.876716   3.732570   5.090366   6.465765
    16  C    7.910552   3.736720   2.470078   4.249884   5.660538
    17  C    6.225210   2.850839   2.442895   2.470908   3.753845
    18  C    4.957299   2.473352   2.802546   1.425091   2.451587
    19  C    5.183240   3.781432   4.225892   2.471251   2.842008
    20  C    6.585169   4.934266   5.077408   3.769671   4.270228
    21  C    7.544236   5.125641   4.897204   4.257204   5.096727
    22  C    7.425148   4.273060   3.746482   3.773721   4.920891
    23  C    5.070919   3.810075   4.353198   4.963282   5.152413
    24  C    6.437654   4.959936   5.226904   6.225480   6.525703
    25  C    7.009375   6.204734   6.577778   7.386312   7.510524
    26  C    6.432628   6.532900   7.158149   7.528502   7.389945
    27  C    4.206112   4.322741   5.195568   5.164912   4.958450
    28  C    5.070246   5.744875   6.587239   6.555273   6.235016
    29  C    4.842414   6.558871   7.570027   7.125403   6.530205
    30  C    3.731797   6.249782   7.418963   6.550235   5.735011
    31  C    2.414320   4.980964   6.225706   5.158399   4.306873
    32  C    2.786170   3.812024   4.959618   4.293392   3.792544
    33  H    5.827946   2.723595   2.626182   4.148821   4.909686
    34  H    2.136875   6.200307   7.553169   5.880800   4.644297
    35  H    1.079925   4.931006   6.275829   4.132533   2.734214
    36  H    6.290188   2.136085   1.082889   3.418012   4.615213
    37  H    2.616560   4.638357   5.817918   3.404300   2.158538
    38  H    4.950882   5.339782   6.109960   3.897379   3.413361
    39  H    9.562559   6.149763   5.308796   5.866819   7.061188
    40  H    9.897549   5.835340   4.607384   6.146757   7.532171
    41  H    8.349687   4.069007   2.699272   4.876846   6.270139
    42  H    7.005338   5.891467   6.130547   4.630774   4.887145
    43  H    8.578958   6.178961   5.857652   5.340215   6.155581
    44  H    7.194741   5.061504   5.038104   6.433949   6.948263
    45  H    8.092973   7.097705   7.333539   8.339948   8.539636
    46  H    7.188424   7.600326   8.240638   8.559905   8.347407
    47  H    5.810793   7.623243   8.601116   8.208449   7.597985
    48  H    4.065702   7.138881   8.360676   7.290637   6.331118
                   11         12         13         14         15
    11  C    0.000000
    12  C    1.377667   0.000000
    13  C    5.070919   4.881281   0.000000
    14  C    6.432628   5.635328   2.807444   0.000000
    15  C    7.009375   6.438517   2.423067   1.391117   0.000000
    16  C    6.437654   6.130675   1.404087   2.411977   1.386015
    17  C    4.206112   3.720021   1.421490   2.432090   2.803464
    18  C    2.786170   2.425946   2.455375   3.737171   4.223453
    19  C    2.414320   1.398437   3.750506   4.237221   5.077909
    20  C    3.731797   2.473520   4.235089   3.715555   4.855700
    21  C    4.842414   3.710585   3.758480   2.482414   3.752159
    22  C    5.070246   4.235065   2.460528   1.400754   2.428167
    23  C    6.527883   7.523211   5.770605   8.576340   7.971913
    24  C    7.910552   8.864618   6.608518   9.382770   8.611040
    25  C    8.855184   9.911458   7.971913  10.756239   9.995575
    26  C    8.647654   9.823503   8.576340  11.382875  10.756239
    27  C    6.225210   7.392873   6.587547   9.357360   8.918196
    28  C    7.425148   8.657529   7.989289  10.769375  10.294730
    29  C    7.544236   8.865316   8.929556  11.648230  11.302424
    30  C    6.585169   7.945017   8.693211  11.296483  11.110013
    31  C    5.183240   6.533706   7.432364   9.962881   9.854931
    32  C    4.957299   6.200954   6.244553   8.890443   8.657239
    33  H    6.290188   6.948653   3.970032   6.728534   5.975076
    34  H    4.950882   6.305845   8.548768  10.767913  10.917889
    35  H    2.616560   3.926775   6.967176   8.820337   9.188053
    36  H    5.827946   6.114195   2.134442   4.820516   4.037539
    37  H    1.079925   2.111223   6.130684   7.490171   8.088835
    38  H    2.136875   1.085269   5.847528   6.253077   7.198457
    39  H    7.188424   6.250463   3.890380   1.082942   2.149476
    40  H    8.092973   7.505920   3.402131   2.146304   1.083653
    41  H    7.194741   7.029052   2.152675   3.395010   2.147504
    42  H    4.065702   2.693263   5.319384   4.602862   5.828842
    43  H    5.810793   4.593589   4.624184   2.708877   4.094196
    44  H    8.349687   9.179229   6.337728   9.030127   8.133319
    45  H    9.897549  10.922562   8.693005  11.436936  10.583933
    46  H    9.562559  10.777065   9.658929  12.465616  11.832828
    47  H    8.578958   9.912647   9.974139  12.708619  12.331480
    48  H    7.005338   8.382346   9.589894  12.121248  12.011958
                   16         17         18         19         20
    16  C    0.000000
    17  C    2.437597   0.000000
    18  C    3.733306   1.420089   0.000000
    19  C    4.888577   2.451063   1.423360   0.000000
    20  C    5.064507   2.813646   2.461473   1.428392   0.000000
    21  C    4.246109   2.454620   2.832175   2.428125   1.356907
    22  C    2.814479   1.422394   2.469444   2.836761   2.427609
    23  C    6.608518   6.587547   6.244553   7.432364   8.693211
    24  C    7.227026   7.598504   7.429451   8.684446   9.888018
    25  C    8.611040   8.918196   8.657239   9.854931  11.110013
    26  C    9.382770   9.357360   8.890443   9.962881  11.296483
    27  C    7.598504   7.172819   6.559599   7.566730   8.924574
    28  C    8.957783   8.595038   7.961006   8.923494  10.299733
    29  C   10.007256   9.362350   8.550429   9.341046  10.757017
    30  C    9.888018   8.924574   7.954097   8.576997  10.005171
    31  C    8.684447   7.566730   6.549830   7.148795   8.576997
    32  C    7.429451   6.559599   5.718470   6.549830   7.954097
    33  H    4.595220   5.045442   5.110318   6.473900   7.531584
    34  H    9.904090   8.340872   7.092349   7.279399   8.659460
    35  H    8.368399   6.451807   5.087890   5.011682   6.339462
    36  H    2.657042   3.403999   3.884662   5.307880   6.122586
    37  H    7.506228   5.285571   3.865766   3.377077   4.583185
    38  H    7.032162   4.595649   3.411092   2.148740   2.700660
    39  H    3.391829   3.411787   4.610982   4.867904   4.056430
    40  H    2.140462   3.887115   5.307093   6.135113   5.817105
    41  H    1.084660   3.418785   4.604528   5.852337   6.123631
    42  H    6.126007   3.897908   3.432876   2.163235   1.084453
    43  H    4.869841   3.429031   3.915149   3.413938   2.122907
    44  H    6.759886   7.469129   7.504284   8.836025   9.942558
    45  H    9.204522   9.727054   9.566000  10.805126  12.024196
    46  H   10.457236  10.431664   9.935799  10.976405  12.325840
    47  H   11.021054  10.436612   9.633484  10.416156  11.834197
    48  H   10.825702   9.718569   8.660411   9.150215  10.573791
                   21         22         23         24         25
    21  C    0.000000
    22  C    1.431910   0.000000
    23  C    8.929556   7.989289   0.000000
    24  C   10.007256   8.957783   1.404087   0.000000
    25  C   11.302424  10.294730   2.423067   1.386015   0.000000
    26  C   11.648230  10.769375   2.807444   2.411977   1.391117
    27  C    9.362350   8.595038   1.421490   2.437597   2.803464
    28  C   10.773048  10.017304   2.460528   2.814479   2.428167
    29  C   11.382188  10.773048   3.758480   4.246109   3.752159
    30  C   10.757017  10.299733   4.235089   5.064507   4.855700
    31  C    9.341047   8.923494   3.750507   4.888578   5.077910
    32  C    8.550429   7.961006   2.455375   3.733306   4.223453
    33  H    7.487975   6.359149   2.134442   2.657042   4.037539
    34  H    9.663651   9.559216   5.847528   7.032162   7.198457
    35  H    7.432511   7.519209   6.130684   7.506228   8.088835
    36  H    5.842274   4.591848   3.970032   4.595220   5.975076
    37  H    5.784195   6.116072   6.967176   8.368399   9.188053
    38  H    4.051968   4.867568   8.548768   9.904090  10.917889
    39  H    2.706214   2.146307   9.658929  10.457236  11.832828
    40  H    4.625897   3.406278   8.693005   9.204522  10.583933
    41  H    5.330755   3.899133   6.337728   6.759886   8.133319
    42  H    2.123944   3.415951   9.589894  10.825702  12.011958
    43  H    1.083078   2.168494   9.974139  11.021054  12.331480
    44  H    9.914459   8.761876   2.152675   1.084660   2.147504
    45  H   12.143682  11.073391   3.402131   2.140462   1.083653
    46  H   12.708051  11.845655   3.890380   3.391829   2.149476
    47  H   12.465251  11.849427   4.624184   4.869841   4.094196
    48  H   11.416917  11.062318   5.319384   6.126007   5.828842
                   26         27         28         29         30
    26  C    0.000000
    27  C    2.432090   0.000000
    28  C    1.400754   1.422394   0.000000
    29  C    2.482414   2.454620   1.431910   0.000000
    30  C    3.715555   2.813646   2.427609   1.356907   0.000000
    31  C    4.237222   2.451064   2.836762   2.428126   1.428392
    32  C    3.737171   1.420089   2.469444   2.832175   2.461473
    33  H    4.820516   3.403999   4.591848   5.842274   6.122586
    34  H    6.253077   4.595649   4.867568   4.051968   2.700660
    35  H    7.490171   5.285571   6.116072   5.784195   4.583185
    36  H    6.728534   5.045442   6.359149   7.487975   7.531584
    37  H    8.820337   6.451807   7.519209   7.432511   6.339462
    38  H   10.767913   8.340872   9.559216   9.663651   8.659460
    39  H   12.465616  10.431664  11.845655  12.708051  12.325840
    40  H   11.436936   9.727054  11.073391  12.143682  12.024196
    41  H    9.030127   7.469129   8.761876   9.914459   9.942558
    42  H   12.121248   9.718569  11.062318  11.416917  10.573791
    43  H   12.708619  10.436612  11.849427  12.465251  11.834197
    44  H    3.395010   3.418785   3.899133   5.330755   6.123631
    45  H    2.146304   3.887115   3.406278   4.625897   5.817105
    46  H    1.082942   3.411787   2.146307   2.706214   4.056430
    47  H    2.708877   3.429031   2.168494   1.083078   2.122907
    48  H    4.602862   3.897908   3.415951   2.123944   1.084453
                   31         32         33         34         35
    31  C    0.000000
    32  C    1.423361   0.000000
    33  H    5.307881   3.884662   0.000000
    34  H    2.148739   3.411092   7.180862   0.000000
    35  H    3.377076   3.865766   6.756111   2.424226   0.000000
    36  H    6.473901   5.110318   1.959721   8.029782   7.016619
    37  H    5.011682   5.087890   7.016619   4.349276   1.935069
    38  H    7.279399   7.092349   8.029782   6.770641   4.349276
    39  H   10.976405   9.935799   7.801513  11.693697   9.661426
    40  H   10.805127   9.566000   6.624617  11.941645  10.255557
    41  H    8.836026   7.504284   4.233110  10.245097   8.916385
    42  H    9.150215   8.660411   8.536386   8.994745   6.600451
    43  H   10.416157   9.633484   8.465310  10.686774   8.415030
    44  H    5.852338   4.604528   2.428440   7.976709   8.240336
    45  H    6.135114   5.307093   4.726870   8.239628   9.172424
    46  H    4.867905   4.610982   5.886347   6.727113   8.216177
    47  H    3.413938   3.915149   6.748674   4.753529   6.699627
    48  H    2.163235   3.432876   7.185903   2.464845   4.727126
                   36         37         38         39         40
    36  H    0.000000
    37  H    6.756111   0.000000
    38  H    7.180862   2.424226   0.000000
    39  H    5.886347   8.216177   6.727113   0.000000
    40  H    4.726870   9.172424   8.239628   2.472764   0.000000
    41  H    2.428440   8.240336   7.976709   4.287223   2.468438
    42  H    7.185903   4.727126   2.464845   4.763842   6.740959
    43  H    6.748674   6.699627   4.753529   2.480607   4.785607
    44  H    4.233110   8.916385  10.245097  10.084686   8.624734
    45  H    6.624617  10.255557  11.941645  12.502292  11.089671
    46  H    7.801513   9.661426  11.693697  13.548388  12.502292
    47  H    8.465310   8.415030  10.686774  13.772004  13.151845
    48  H    8.536386   6.600451   8.994745  13.129137  12.952800
                   41         42         43         44         45
    41  H    0.000000
    42  H    7.192347   0.000000
    43  H    5.938596   2.457344   0.000000
    44  H    6.162484  10.931161  10.883550   0.000000
    45  H    8.624734  12.952800  13.151845   2.468438   0.000000
    46  H   10.084686  13.129137  13.772004   4.287223   2.472764
    47  H   10.883550  12.482715  13.548316   5.938596   4.785607
    48  H   10.931161  11.057447  12.482715   7.192347   6.740959
                   46         47         48
    46  H    0.000000
    47  H    2.480607   0.000000
    48  H    4.763842   2.457344   0.000000
 Stoichiometry    C32H16
 Framework group  C2[X(C32H16)]
 Deg. of freedom    70
 Full point group                 C2      NOp   2
 Largest Abelian subgroup         C2      NOp   2
 Largest concise Abelian subgroup C2      NOp   2
                         Standard orientation:                         
 ---------------------------------------------------------------------
 Center     Atomic      Atomic             Coordinates (Angstroms)
 Number     Number       Type             X           Y           Z
 ---------------------------------------------------------------------
      1          6           0       -0.017278    0.735954   -0.645467
      2          6           0       -0.095032    1.465244   -1.805584
      3          6           0        0.034557    0.731747    1.840937
      4          6           0        0.017278    1.434050    0.616910
      5          6           0        0.146867    2.845927    3.045655
      6          6           0        0.112310    1.468730    3.035596
      7          6           0        0.017278   -0.735954   -0.645467
      8          6           0        0.095032   -1.465244   -1.805584
      9          6           0       -0.017278   -1.434050    0.616910
     10          6           0       -0.034557   -0.731747    1.840937
     11          6           0       -0.112310   -1.468730    3.035596
     12          6           0       -0.146867   -2.845927    3.045655
     13          6           0        0.095032   -2.883737   -1.829482
     14          6           0        0.069114   -5.691018   -1.813947
     15          6           0        0.146867   -4.995629   -3.016276
     16          6           0        0.164145   -3.609783   -3.029291
     17          6           0        0.017278   -3.586368   -0.596235
     18          6           0       -0.034557   -2.859026    0.622346
     19          6           0       -0.103671   -3.572894    1.851805
     20          6           0       -0.129589   -5.000907    1.831545
     21          6           0       -0.077753   -5.690563    0.664119
     22          6           0        0.000000   -5.008652   -0.592590
     23          6           0       -0.095032    2.883737   -1.829482
     24          6           0       -0.164145    3.609783   -3.029291
     25          6           0       -0.146867    4.995629   -3.016276
     26          6           0       -0.069114    5.691018   -1.813947
     27          6           0       -0.017278    3.586368   -0.596235
     28          6           0        0.000000    5.008652   -0.592590
     29          6           0        0.077753    5.690563    0.664119
     30          6           0        0.129589    5.000907    1.831545
     31          6           0        0.103671    3.572894    1.851805
     32          6           0        0.034557    2.859026    0.622346
     33          1           0       -0.164145    0.966014   -2.764042
     34          1           0        0.215981    3.378424    3.988777
     35          1           0        0.155506    0.954956    3.984494
     36          1           0        0.164145   -0.966014   -2.764042
     37          1           0       -0.155506   -0.954956    3.984494
     38          1           0       -0.215981   -3.378424    3.988777
     39          1           0        0.060475   -6.773924   -1.811930
     40          1           0        0.198702   -5.541274   -3.951096
     41          1           0        0.224620   -3.073044   -3.969898
     42          1           0       -0.181424   -5.525746    2.779119
     43          1           0       -0.086392   -6.773607    0.664325
     44          1           0       -0.224620    3.073044   -3.969898
     45          1           0       -0.198702    5.541274   -3.951096
     46          1           0       -0.060475    6.773924   -1.811930
     47          1           0        0.086392    6.773607    0.664325
     48          1           0        0.181424    5.525746    2.779119
 ---------------------------------------------------------------------
 Rotational constants (GHZ):      0.3179119      0.0934118      0.0722781
 Leave Link  202 at Tue Jul 23 19:19:19 2019, MaxMem=  4194304000 cpu:         0.2
 (Enter /home/minenky/programs//g09/l301.exe)
 Standard basis: def2TZVP (5D, 7F)
 ======================================================================================================
                                       Pseudopotential Parameters
 ======================================================================================================
  Center     Atomic      Valence      Angular      Power
  Number     Number     Electrons     Momentum     of R      Exponent        Coefficient   SO-Coeffient
 ======================================================================================================
    1          6
                                   No pseudopotential on this center.
    2          6
                                   No pseudopotential on this center.
    3          6
                                   No pseudopotential on this center.
    4          6
                                   No pseudopotential on this center.
    5          6
                                   No pseudopotential on this center.
    6          6
                                   No pseudopotential on this center.
    7          6
                                   No pseudopotential on this center.
    8          6
                                   No pseudopotential on this center.
    9          6
                                   No pseudopotential on this center.
   10          6
                                   No pseudopotential on this center.
   11          6
                                   No pseudopotential on this center.
   12          6
                                   No pseudopotential on this center.
   13          6
                                   No pseudopotential on this center.
   14          6
                                   No pseudopotential on this center.
   15          6
                                   No pseudopotential on this center.
   16          6
                                   No pseudopotential on this center.
   17          6
                                   No pseudopotential on this center.
   18          6
                                   No pseudopotential on this center.
   19          6
                                   No pseudopotential on this center.
   20          6
                                   No pseudopotential on this center.
   21          6
                                   No pseudopotential on this center.
   22          6
                                   No pseudopotential on this center.
   23          6
                                   No pseudopotential on this center.
   24          6
                                   No pseudopotential on this center.
   25          6
                                   No pseudopotential on this center.
   26          6
                                   No pseudopotential on this center.
   27          6
                                   No pseudopotential on this center.
   28          6
                                   No pseudopotential on this center.
   29          6
                                   No pseudopotential on this center.
   30          6
                                   No pseudopotential on this center.
   31          6
                                   No pseudopotential on this center.
   32          6
                                   No pseudopotential on this center.
   33          1
                                   No pseudopotential on this center.
   34          1
                                   No pseudopotential on this center.
   35          1
                                   No pseudopotential on this center.
   36          1
                                   No pseudopotential on this center.
   37          1
                                   No pseudopotential on this center.
   38          1
                                   No pseudopotential on this center.
   39          1
                                   No pseudopotential on this center.
   40          1
                                   No pseudopotential on this center.
   41          1
                                   No pseudopotential on this center.
   42          1
                                   No pseudopotential on this center.
   43          1
                                   No pseudopotential on this center.
   44          1
                                   No pseudopotential on this center.
   45          1
                                   No pseudopotential on this center.
   46          1
                                   No pseudopotential on this center.
   47          1
                                   No pseudopotential on this center.
   48          1
                                   No pseudopotential on this center.
 ======================================================================================================
 Ernie: Thresh=  0.10000D-02 Tol=  0.10000D-05 Strict=F.
 AO basis set (Overlap normalization):
 Atom C1       Shell     1 S   6     bf    1 -     1         -0.032651572516          1.390751506402         -1.219755821474
      0.1357534968D+05  0.6064550360D-03
      0.2035233368D+04  0.4697908888D-02
      0.4632256236D+03  0.2433247765D-01
      0.1312001960D+03  0.9739996831D-01
      0.4285301589D+02  0.3019558425D+00
      0.1558418577D+02  0.6623360914D+00
 Atom C1       Shell     2 S   2     bf    2 -     2         -0.032651572516          1.390751506402         -1.219755821474
      0.6206713851D+01  0.6559530854D+00
      0.2576489653D+01  0.3758563329D+00
 Atom C1       Shell     3 S   1     bf    3 -     3         -0.032651572516          1.390751506402         -1.219755821474
      0.5769633942D+00  0.1000000000D+01
 Atom C1       Shell     4 S   1     bf    4 -     4         -0.032651572516          1.390751506402         -1.219755821474
      0.2297283136D+00  0.1000000000D+01
 Atom C1       Shell     5 S   1     bf    5 -     5         -0.032651572516          1.390751506402         -1.219755821474
      0.9516444003D-01  0.1000000000D+01
 Atom C1       Shell     6 P   4     bf    6 -     8         -0.032651572516          1.390751506402         -1.219755821474
      0.3469723224D+02  0.1132722000D-01
      0.7958262283D+01  0.7616965920D-01
      0.2378082688D+01  0.3019225220D+00
      0.8143320818D+00  0.7278502735D+00
 Atom C1       Shell     7 P   1     bf    9 -    11         -0.032651572516          1.390751506402         -1.219755821474
      0.2888754725D+00  0.1000000000D+01
 Atom C1       Shell     8 P   1     bf   12 -    14         -0.032651572516          1.390751506402         -1.219755821474
      0.1005682367D+00  0.1000000000D+01
 Atom C1       Shell     9 D   1     bf   15 -    19         -0.032651572516          1.390751506402         -1.219755821474
      0.1097000000D+01  0.1000000000D+01
 Atom C1       Shell    10 D   1     bf   20 -    24         -0.032651572516          1.390751506402         -1.219755821474
      0.3180000000D+00  0.1000000000D+01
 Atom C1       Shell    11 F   1     bf   25 -    31         -0.032651572516          1.390751506402         -1.219755821474
      0.7610000000D+00  0.1000000000D+01
 Atom C2       Shell    12 S   6     bf   32 -    32         -0.179583652617          2.768909877854         -3.412059233579
      0.1357534968D+05  0.6064550360D-03
      0.2035233368D+04  0.4697908888D-02
      0.4632256236D+03  0.2433247765D-01
      0.1312001960D+03  0.9739996831D-01
      0.4285301589D+02  0.3019558425D+00
      0.1558418577D+02  0.6623360914D+00
 Atom C2       Shell    13 S   2     bf   33 -    33         -0.179583652617          2.768909877854         -3.412059233579
      0.6206713851D+01  0.6559530854D+00
      0.2576489653D+01  0.3758563329D+00
 Atom C2       Shell    14 S   1     bf   34 -    34         -0.179583652617          2.768909877854         -3.412059233579
      0.5769633942D+00  0.1000000000D+01
 Atom C2       Shell    15 S   1     bf   35 -    35         -0.179583652617          2.768909877854         -3.412059233579
      0.2297283136D+00  0.1000000000D+01
 Atom C2       Shell    16 S   1     bf   36 -    36         -0.179583652617          2.768909877854         -3.412059233579
      0.9516444003D-01  0.1000000000D+01
 Atom C2       Shell    17 P   4     bf   37 -    39         -0.179583652617          2.768909877854         -3.412059233579
      0.3469723224D+02  0.1132722000D-01
      0.7958262283D+01  0.7616965920D-01
      0.2378082688D+01  0.3019225220D+00
      0.8143320818D+00  0.7278502735D+00
 Atom C2       Shell    18 P   1     bf   40 -    42         -0.179583652617          2.768909877854         -3.412059233579
      0.2888754725D+00  0.1000000000D+01
 Atom C2       Shell    19 P   1     bf   43 -    45         -0.179583652617          2.768909877854         -3.412059233579
      0.1005682367D+00  0.1000000000D+01
 Atom C2       Shell    20 D   1     bf   46 -    50         -0.179583652617          2.768909877854         -3.412059233579
      0.1097000000D+01  0.1000000000D+01
 Atom C2       Shell    21 D   1     bf   51 -    55         -0.179583652617          2.768909877854         -3.412059233579
      0.3180000000D+00  0.1000000000D+01
 Atom C2       Shell    22 F   1     bf   56 -    62         -0.179583652617          2.768909877854         -3.412059233579
      0.7610000000D+00  0.1000000000D+01
 Atom C3       Shell    23 S   6     bf   63 -    63          0.065303146921          1.382801428561          3.478866794237
      0.1357534968D+05  0.6064550360D-03
      0.2035233368D+04  0.4697908888D-02
      0.4632256236D+03  0.2433247765D-01
      0.1312001960D+03  0.9739996831D-01
      0.4285301589D+02  0.3019558425D+00
      0.1558418577D+02  0.6623360914D+00
 Atom C3       Shell    24 S   2     bf   64 -    64          0.065303146921          1.382801428561          3.478866794237
      0.6206713851D+01  0.6559530854D+00
      0.2576489653D+01  0.3758563329D+00
 Atom C3       Shell    25 S   1     bf   65 -    65          0.065303146921          1.382801428561          3.478866794237
      0.5769633942D+00  0.1000000000D+01
 Atom C3       Shell    26 S   1     bf   66 -    66          0.065303146921          1.382801428561          3.478866794237
      0.2297283136D+00  0.1000000000D+01
 Atom C3       Shell    27 S   1     bf   67 -    67          0.065303146921          1.382801428561          3.478866794237
      0.9516444003D-01  0.1000000000D+01
 Atom C3       Shell    28 P   4     bf   68 -    70          0.065303146921          1.382801428561          3.478866794237
      0.3469723224D+02  0.1132722000D-01
      0.7958262283D+01  0.7616965920D-01
      0.2378082688D+01  0.3019225220D+00
      0.8143320818D+00  0.7278502735D+00
 Atom C3       Shell    29 P   1     bf   71 -    73          0.065303146921          1.382801428561          3.478866794237
      0.2888754725D+00  0.1000000000D+01
 Atom C3       Shell    30 P   1     bf   74 -    76          0.065303146921          1.382801428561          3.478866794237
      0.1005682367D+00  0.1000000000D+01
 Atom C3       Shell    31 D   1     bf   77 -    81          0.065303146921          1.382801428561          3.478866794237
      0.1097000000D+01  0.1000000000D+01
 Atom C3       Shell    32 D   1     bf   82 -    86          0.065303146921          1.382801428561          3.478866794237
      0.3180000000D+00  0.1000000000D+01
 Atom C3       Shell    33 F   1     bf   87 -    93          0.065303146921          1.382801428561          3.478866794237
      0.7610000000D+00  0.1000000000D+01
 Atom C4       Shell    34 S   6     bf   94 -    94          0.032651572516          2.709961760865          1.165790984979
      0.1357534968D+05  0.6064550360D-03
      0.2035233368D+04  0.4697908888D-02
      0.4632256236D+03  0.2433247765D-01
      0.1312001960D+03  0.9739996831D-01
      0.4285301589D+02  0.3019558425D+00
      0.1558418577D+02  0.6623360914D+00
 Atom C4       Shell    35 S   2     bf   95 -    95          0.032651572516          2.709961760865          1.165790984979
      0.6206713851D+01  0.6559530854D+00
      0.2576489653D+01  0.3758563329D+00
 Atom C4       Shell    36 S   1     bf   96 -    96          0.032651572516          2.709961760865          1.165790984979
      0.5769633942D+00  0.1000000000D+01
 Atom C4       Shell    37 S   1     bf   97 -    97          0.032651572516          2.709961760865          1.165790984979
      0.2297283136D+00  0.1000000000D+01
 Atom C4       Shell    38 S   1     bf   98 -    98          0.032651572516          2.709961760865          1.165790984979
      0.9516444003D-01  0.1000000000D+01
 Atom C4       Shell    39 P   4     bf   99 -   101          0.032651572516          2.709961760865          1.165790984979
      0.3469723224D+02  0.1132722000D-01
      0.7958262283D+01  0.7616965920D-01
      0.2378082688D+01  0.3019225220D+00
      0.8143320818D+00  0.7278502735D+00
 Atom C4       Shell    40 P   1     bf  102 -   104          0.032651572516          2.709961760865          1.165790984979
      0.2888754725D+00  0.1000000000D+01
 Atom C4       Shell    41 P   1     bf  105 -   107          0.032651572516          2.709961760865          1.165790984979
      0.1005682367D+00  0.1000000000D+01
 Atom C4       Shell    42 D   1     bf  108 -   112          0.032651572516          2.709961760865          1.165790984979
      0.1097000000D+01  0.1000000000D+01
 Atom C4       Shell    43 D   1     bf  113 -   117          0.032651572516          2.709961760865          1.165790984979
      0.3180000000D+00  0.1000000000D+01
 Atom C4       Shell    44 F   1     bf  118 -   124          0.032651572516          2.709961760865          1.165790984979
      0.7610000000D+00  0.1000000000D+01
 Atom C5       Shell    45 S   6     bf  125 -   125          0.277538372054          5.378022624185          5.755453881595
      0.1357534968D+05  0.6064550360D-03
      0.2035233368D+04  0.4697908888D-02
      0.4632256236D+03  0.2433247765D-01
      0.1312001960D+03  0.9739996831D-01
      0.4285301589D+02  0.3019558425D+00
      0.1558418577D+02  0.6623360914D+00
 Atom C5       Shell    46 S   2     bf  126 -   126          0.277538372054          5.378022624185          5.755453881595
      0.6206713851D+01  0.6559530854D+00
      0.2576489653D+01  0.3758563329D+00
 Atom C5       Shell    47 S   1     bf  127 -   127          0.277538372054          5.378022624185          5.755453881595
      0.5769633942D+00  0.1000000000D+01
 Atom C5       Shell    48 S   1     bf  128 -   128          0.277538372054          5.378022624185          5.755453881595
      0.2297283136D+00  0.1000000000D+01
 Atom C5       Shell    49 S   1     bf  129 -   129          0.277538372054          5.378022624185          5.755453881595
      0.9516444003D-01  0.1000000000D+01
 Atom C5       Shell    50 P   4     bf  130 -   132          0.277538372054          5.378022624185          5.755453881595
      0.3469723224D+02  0.1132722000D-01
      0.7958262283D+01  0.7616965920D-01
      0.2378082688D+01  0.3019225220D+00
      0.8143320818D+00  0.7278502735D+00
 Atom C5       Shell    51 P   1     bf  133 -   135          0.277538372054          5.378022624185          5.755453881595
      0.2888754725D+00  0.1000000000D+01
 Atom C5       Shell    52 P   1     bf  136 -   138          0.277538372054          5.378022624185          5.755453881595
      0.1005682367D+00  0.1000000000D+01
 Atom C5       Shell    53 D   1     bf  139 -   143          0.277538372054          5.378022624185          5.755453881595
      0.1097000000D+01  0.1000000000D+01
 Atom C5       Shell    54 D   1     bf  144 -   148          0.277538372054          5.378022624185          5.755453881595
      0.3180000000D+00  0.1000000000D+01
 Atom C5       Shell    55 F   1     bf  149 -   155          0.277538372054          5.378022624185          5.755453881595
      0.7610000000D+00  0.1000000000D+01
 Atom C6       Shell    56 S   6     bf  156 -   156          0.212235225132          2.775497463153          5.736445126424
      0.1357534968D+05  0.6064550360D-03
      0.2035233368D+04  0.4697908888D-02
      0.4632256236D+03  0.2433247765D-01
[...]
 ,0.00000389,-0.00000342,0.00000025,0.00000020,0.00000341,-0.00000002,-
 0.00000396,-0.00000203,-0.00000022,0.00000129,-0.00000315,0.00000013,0
 .00073366,-0.00036022,-0.00030386,0.28444715,-0.00014670,-0.00051467,0
 .00002423,-0.00139338,0.00020339,0.00008365,-0.00028625,0.00001524,0.0
 0001171,0.00038774,0.00002211,-0.00001305,0.00010794,0.00026707,0.0000
 0232,0.00014143,-0.00022400,-0.00001069,-0.00010330,0.00003580,0.00000
 541,-0.00000467,-0.00002665,0.00000338,0.00003082,-0.00005395,0.000001
 57,0.00000810,0.00002326,0.00000137,-0.00001159,-0.00001848,-0.0000025
 2,0.00000081,0.00001220,0.00000198,0.00000560,0.00003078,-0.00000176,0
 .00001152,-0.00002310,0.00000033,-0.00001160,-0.00000073,-0.00000065,-
 0.00001024,-0.00001751,-0.00000114,0.00000351,-0.00001948,0.00000044,-
 0.00002536,-0.00001102,-0.00000078,0.00000625,-0.00001194,-0.00000078,
 -0.00000108,0.00001102,0.00000006,0.00000417,-0.00000178,0.00000004,0.
 00000373,0.00000206,0.00000027,0.00134475,-0.00575291,-0.00022755,-0.0
 2920442,-0.01036700,0.00171955,-0.12230955,-0.13228014,0.00689566,0.01
 496154,0.01197249,-0.00085972,0.00079065,-0.00071352,-0.00005042,0.003
 53026,-0.00109875,-0.00032048,0.00017310,0.00062064,-0.00000721,0.0003
 2776,0.00008380,-0.00001142,-0.00021284,-0.00029936,0.00000297,-0.0000
 4392,0.00007223,0.00000813,0.00003927,-0.00001835,-0.00000898,-0.00000
 655,0.00000231,-0.00000038,-0.00000471,-0.00000289,-0.00000064,-0.0000
 1132,0.00000701,-0.00000126,-0.00000119,0.00000141,-0.00000107,-0.0000
 0317,-0.00000238,-0.00000017,-0.00000061,-0.00000219,0.00000008,0.0000
 0342,-0.00000554,0.00000037,0.00000115,0.00000392,0.00000050,-0.000003
 15,-0.00000216,-0.00000021,0.00000046,-0.00000288,0.00000008,0.0004088
 0,0.00085114,0.00002419,0.13185425,0.13645183,-0.00000103,-0.00001614,
 -0.00042029,-0.00002949,-0.00003872,0.00020333,0.00000268,0.00000158,0
 .00003154,0.00000372,0.00000942,0.00007651,0.00000221,-0.00000001,0.00
 004604,-0.00000286,0.00000082,-0.00000071,-0.00000422,-0.00000316,-0.0
 0003301,0.00000221,0.00000224,-0.00000461,-0.00000137,0.00000127,0.000
 01602,-0.00000047,-0.00000275,-0.00000444,0.00000105,0.00000153,-0.000
 00602,-0.00000135,-0.00000038,0.00000060,-0.00000112,-0.00000229,-0.00
 000047,-0.00000088,0.00000135,-0.00000124,0.00000081,-0.00000025,-0.00
 000136,0.00000097,0.00000141,-0.00000332,0.00000034,0.00000106,0.00000
 216,0.00000004,-0.00000073,0.00000269,0.00000055,0.00000078,-0.0000029
 2,-0.00000046,-0.00000084,-0.00000044,0.00000019,0.00000044,-0.0000006
 6,-0.00000018,-0.00000010,-0.00000043,0.00039101,-0.00015243,0.0079096
 0,-0.00040481,-0.00025886,0.00268031,0.01360454,0.00688632,-0.03842559
 ,0.00149982,0.00116505,0.00250881,-0.00004459,-0.00006503,-0.00088821,
 0.00070674,-0.00035793,0.00776508,0.00005387,0.00008445,0.00018649,0.0
 0000701,-0.00001333,-0.00040829,0.00000736,-0.00001582,0.00008732,-0.0
 0005106,0.00002315,-0.00082359,0.00001043,0.00000427,0.00010113,-0.000
 00107,0.00000012,-0.00000504,0.00000087,0.00000029,0.00000676,0.000000
 11,-0.00000212,0.00000330,-0.00000046,-0.00000020,0.00000139,0.0000000
 6,0.00000010,0.00000157,0.,0.00000004,0.00000100,-0.00000025,0.0000003
 7,0.00000130,-0.00000045,-0.00000019,0.00000360,0.00000007,0.00000005,
 0.00000053,-0.00000012,0.00000014,0.00000068,-0.00029067,0.00006419,-0
 .00396726,-0.01516629,-0.00734088,0.02717067,-0.00029403,0.00004475,0.
 00001782,0.00029590,0.00029179,-0.00007535,-0.00016898,-0.00012054,0.0
 0000701,-0.00014604,-0.00006877,0.00001003,0.00012638,0.00031653,0.000
 00189,0.00009096,-0.00022498,-0.00000856,0.00001798,-0.00000493,0.0000
 0356,-0.00001741,0.00000511,-0.00000409,-0.00000480,0.00000844,0.00000
 045,-0.00004018,-0.00001626,-0.00001003,0.00000723,-0.00001871,-0.0000
 0053,-0.00001327,0.00000432,0.00000053,0.00000366,-0.00001540,0.000001
 72,0.00000019,0.00000486,0.00000024,0.00000417,-0.00000514,0.,-0.00000
 708,0.00000522,-0.00000084,0.00000184,-0.00000035,0.00000024,0.0000024
 2,0.00000315,0.00000130,0.00000940,0.00000329,0.00000038,-0.00000207,-
 0.00000322,-0.00000056,0.00000153,0.00000048,0.00000021,-0.00000216,0.
 00000527,-0.00000037,-0.00123870,-0.00031296,0.00001350,-0.00448557,0.
 00235792,0.00078080,0.00491047,0.02849994,0.00014353,-0.06013751,-0.00
 023646,0.00153761,-0.00470783,-0.00189106,0.00068700,0.00415574,-0.027
 53865,-0.00033946,0.00127535,-0.00166643,-0.00034155,0.00013449,0.0005
 0858,-0.00001175,0.00000049,-0.00026685,0.00000787,0.00065462,-0.00128
 335,-0.00004057,0.00000746,-0.00008650,0.00000248,-0.00002386,-0.00000
 782,0.00000177,0.00000058,0.00000384,-0.00000077,0.00000178,-0.0000017
 5,0.00000046,0.00000032,0.00000050,-0.00000061,0.00000084,-0.00000081,
 0.00000014,0.00000067,0.00000072,0.00000006,-0.00000115,0.00000061,0.,
 0.00000114,-0.00000134,0.00000055,0.00000107,0.00000041,0.00000009,-0.
 00000029,0.00000071,0.00000002,0.00001908,0.00136476,0.00002005,0.0008
 3795,-0.00041548,-0.00030444,0.05924144,-0.00006520,0.00002051,0.00000
 060,0.00003791,0.00001312,0.00000916,0.00011803,-0.00004693,-0.0000031
 5,-0.00031650,-0.00010083,0.00001772,-0.00005647,-0.00001727,0.0000013
 5,-0.00009313,0.00003364,0.00000200,-0.00000610,0.00004046,-0.00000501
 ,0.00001394,-0.00002370,0.00000392,0.00001405,-0.00002293,0.00000083,-
 0.00003073,0.00002352,0.00000290,-0.00000098,-0.00002164,-0.00000097,-
 0.00000270,0.00000087,-0.00000043,-0.00000795,0.00001866,-0.00000018,0
 .00000225,-0.00000861,0.00000004,-0.00000340,0.00000107,0.,0.00000233,
 -0.00000895,0.00000021,-0.00000151,-0.00001388,-0.00000008,-0.00000516
 ,0.00000142,0.00000042,-0.00000175,-0.00000539,-0.00000057,0.00000230,
 0.00000698,0.00000032,0.00000270,-0.00000362,0.00000010,0.00000149,0.0
 0000020,0.00000009,-0.00015992,0.00057024,0.00002973,0.00309143,0.0007
 3540,-0.00026326,-0.00303572,-0.01117574,0.00006164,-0.00045493,-0.339
 07911,-0.00303839,-0.00290878,0.00053300,0.00010567,0.00252483,-0.0129
 0705,-0.00031839,0.00177739,0.00099568,-0.00004848,-0.00038302,0.00003
 569,0.00001889,0.00012803,0.00020919,-0.00000225,0.00068062,-0.0005958
 6,-0.00004136,0.00002014,0.00000700,-0.00000183,-0.00002782,-0.0000047
 4,0.00000134,-0.00000860,0.00000255,0.00000124,-0.00000928,0.00000857,
 -0.00000266,0.00000240,0.00000655,0.00000055,-0.00000293,-0.00000460,-
 0.00000011,-0.00000072,-0.00000300,-0.00000011,0.00000274,-0.00000219,
 0.00000004,-0.00000136,0.00000326,-0.00000041,-0.00000313,-0.00000164,
 -0.00000025,0.00000068,-0.00000317,-0.00000004,-0.00015745,-0.00066503
 ,0.00000095,0.00034484,0.00075850,0.00002045,-0.00008101,0.36034066,-0
 .00002062,-0.00000383,0.00012098,-0.00005935,-0.00000099,-0.00094837,0
 .00001045,0.00001480,0.00001126,0.00005284,-0.00004502,-0.00003884,-0.
 00001029,-0.00001852,-0.00000875,-0.00000351,0.00001339,0.00001615,0.0
 0000892,0.00000429,0.00009222,0.00000003,-0.00000242,-0.00001032,-0.00
 000265,0.00000155,-0.00000466,-0.00000217,0.00000367,-0.00012801,0.000
 00228,0.00000031,-0.00000371,-0.00000096,-0.00000296,0.00001977,-0.000
 00054,0.00000148,-0.00000706,-0.00000076,-0.00000026,0.00000113,0.0000
 0007,0.00000039,-0.00000121,0.00000107,-0.00000042,-0.00000207,-0.0000
 0046,-0.00000015,0.00000202,0.00000165,0.00000060,0.00000535,-0.000001
 76,0.00000090,-0.00000248,0.00000036,-0.00000039,-0.00000389,-0.000000
 24,0.00000023,-0.00000018,0.00000069,-0.00000027,-0.00000042,-0.000019
 23,0.00002087,-0.00107807,0.00083001,-0.00018203,0.00727613,-0.0001538
 4,-0.00201526,0.00268962,0.00150423,-0.00301653,-0.03575894,0.00066042
 ,0.00005809,0.00664846,-0.00004997,0.00158992,0.00311465,-0.00029292,0
 .00015158,-0.00386385,-0.00002540,-0.00003548,-0.00015099,0.00000061,0
 .00001476,0.00015275,-0.00001476,0.00013237,0.00009708,0.00000099,0.00
 000660,0.00004303,0.00000293,-0.00000026,0.00002937,-0.00000020,0.0000
 0002,-0.00000620,-0.00000099,0.00000010,0.00000767,0.00000045,0.000000
 28,-0.00000531,-0.00000007,-0.00000028,0.00000111,-0.00000006,-0.00000
 011,-0.00000010,0.00000002,0.00000008,0.00000100,-0.00000034,0.0000000
 4,0.00000228,-0.00000016,-0.00000005,0.00000076,-0.00000005,-0.0000000
 9,0.00000070,0.00000612,-0.00009803,0.00013627,-0.00029839,0.00007599,
 -0.00386725,-0.00217486,0.00339316,0.02495193,0.00002235,-0.00003409,0
 .00000115,-0.00044204,0.00002087,0.00003185,-0.00022887,0.00009292,0.0
 0002443,0.00017524,0.00017671,-0.00005454,0.00074158,-0.00099944,-0.00
 005254,-0.00026993,-0.00032587,-0.00003834,0.00002671,-0.00002153,0.00
 000221,-0.00000661,0.00001758,-0.00000324,-0.00003728,-0.00000664,-0.0
 0000338,0.00002307,0.00000647,0.00000646,-0.00000224,-0.00001350,-0.00
 000451,0.00002370,-0.00000100,0.00000275,0.00001539,-0.00000508,0.0000
 0110,0.00000457,0.00000171,0.00000024,-0.00000242,0.00000011,-0.000000
 34,0.00000231,0.00000144,0.00000015,-0.00000591,0.00000473,0.00000002,
 -0.00000167,0.00000044,-0.00000210,-0.00000799,-0.00000942,-0.00000030
 ,0.00001135,0.00000798,0.00000049,-0.00000424,-0.00000850,-0.00000061,
 -0.00000111,-0.00000794,-0.00000013,0.00052280,0.00136982,-0.00002938,
 0.00009421,0.00009148,-0.00000323,0.00007883,-0.00037833,-0.00002273,0
 .00153405,0.00144790,-0.00019509,-0.00488893,0.00130531,0.00054020,0.0
 0366882,0.02744825,0.00030928,-0.05911620,0.00202835,0.00130067,0.0045
 3977,-0.02944332,-0.00042808,-0.00477289,-0.00161302,0.00081172,-0.000
 71013,-0.00030976,-0.00000772,-0.00000129,0.00014130,-0.00000141,-0.00
 003372,0.00002767,0.00001552,-0.00000544,-0.00013347,-0.00000735,0.000
 01081,-0.00000366,0.00000243,0.00001259,0.00000806,0.00000027,-0.00000
 206,-0.00000301,-0.00000002,-0.00000029,-0.00000068,0.00000005,0.00000
 129,-0.00000046,0.00000012,0.00000138,0.00000024,0.00000021,-0.0000015
 9,-0.00000109,-0.00000005,0.00000142,-0.00000082,0.00000023,-0.0000265
 1,-0.00006512,0.00000337,-0.00000840,-0.00000505,0.00000479,-0.0005140
 9,-0.00088440,0.00003974,0.05877936,-0.00008061,0.00002319,-0.00000338
 ,0.00028349,0.00001622,-0.00001626,-0.00002101,0.00005802,0.00000357,0
 .00006766,-0.00004117,0.00001406,0.00042613,-0.00063716,-0.00003777,-0
 .00032200,-0.00011167,0.00002210,0.00002355,0.00002904,-0.00000167,-0.
 00000042,-0.00002425,0.00000402,0.00001579,-0.00002399,0.00000009,-0.0
 0000720,0.00002196,-0.00000165,-0.00001134,-0.00002013,-0.00000184,0.0
 0000347,0.00000348,0.00000003,-0.00000413,0.00001877,-0.00000149,0.000
 00419,-0.00001266,0.00000005,-0.00000628,0.00000015,-0.00000037,-0.000
 00139,-0.00001042,0.00000049,-0.00000043,-0.00001586,0.00000037,-0.000
 00390,-0.00000161,0.00000089,-0.00000176,-0.00000660,-0.00000061,0.000
 00243,0.00000798,0.00000030,0.00000314,-0.00000254,0.00000002,0.000004
 45,-0.00000018,0.00000049,-0.00070909,-0.00069226,0.00004361,0.0000984
 7,0.00030511,-0.00000385,0.00037286,-0.00005985,-0.00001763,-0.0015363
 6,0.00104724,0.00013797,0.00270998,0.00055771,-0.00021538,-0.00267244,
 -0.01205000,-0.00003768,0.00083374,-0.33931482,-0.00427244,0.00279953,
 -0.01199814,-0.00037552,-0.00279061,0.00104314,0.00002189,0.00012391,0
 .00050491,0.00000827,0.00001823,-0.00008203,-0.00000049,-0.00003739,0.
 00001255,-0.00000068,0.00000005,-0.00007448,-0.00000284,-0.00001032,0.
 00000737,-0.00000208,0.00000852,0.00000945,0.00000145,-0.00000344,-0.0
 0000462,-0.00000031,-0.00000071,-0.00000317,-0.00000009,0.00000315,-0.
 00000288,0.00000014,-0.00000083,0.00000340,-0.00000048,-0.00000356,-0.
 00000172,-0.00000019,0.00000082,-0.00000360,-0.00000002,0.00003575,0.0
 0003032,-0.00000301,0.00004959,-0.00001715,-0.00000464,0.00082649,0.00
 037106,-0.00005606,-0.00015427,0.36027177,0.00000030,0.00000318,0.0000
 4297,0.00002396,-0.00000864,0.00001562,0.00001422,-0.00002266,0.000126
 55,-0.00002967,0.00002410,-0.00074375,-0.00003567,0.00004611,0.0000809
 7,-0.00004062,0.00004947,-0.00078862,-0.00001036,0.,-0.00000311,0.0000
 0525,0.00000059,0.00000874,0.00001572,0.00000066,-0.00000649,-0.000000
 54,0.00001765,0.00010068,-0.00000829,0.00000187,-0.00000939,-0.0000009
 7,-0.00000132,0.00001523,-0.00000169,0.00000017,0.00000098,-0.00000087
 ,-0.00000002,-0.00000040,0.00000053,0.00000029,-0.00000219,-0.00000006
 ,-0.00000028,-0.00000049,0.00000052,-0.00000059,-0.00000045,0.00000058
 ,-0.00000064,-0.00000781,0.00000039,0.00000111,0.00000157,-0.00000023,
 -0.00000118,-0.00000508,0.00000001,0.00000070,-0.00000108,0.00000064,0
 .00000066,-0.00000185,-0.00003229,-0.00008081,0.00008218,-0.00000868,-
 0.00001532,-0.00001048,-0.00002354,0.00003881,-0.00019210,-0.00020633,
 -0.00005305,-0.00192735,0.00053638,-0.00011064,0.00385132,-0.00014667,
 -0.00172789,0.00268714,0.00136642,-0.00428498,-0.03723247,-0.00006301,
 0.00132592,0.00426766,0.00075565,-0.00002671,0.01038494,0.00005510,0.0
 0001645,-0.00079686,0.00000095,-0.00001315,-0.00002772,0.00001425,-0.0
 0000685,0.00022956,-0.00000277,0.00000125,-0.00001135,-0.00000137,0.00
 000108,0.00000746,0.00000158,0.00000026,-0.00001683,0.,0.00000013,0.00
 000108,-0.00000002,-0.00000004,0.00000070,-0.00000013,0.00000008,0.000
 00068,-0.00000032,-0.00000002,0.00000131,-0.00000003,0.,0.00000087,-0.
 00000023,-0.00000002,0.00000229,0.00000472,0.00000379,0.00004266,0.000
 00637,-0.00000072,0.00008450,0.00005716,0.00005458,0.00022900,-0.00188
 206,0.00468246,0.02536286,0.00005640,0.00001026,0.00000212,-0.00001767
 ,-0.00002687,0.00000069,0.00033784,-0.00011347,-0.00001797,-0.00010945
 ,-0.00032056,0.00000469,0.00114694,-0.00142103,-0.00020398,-0.00002828
 ,0.00046369,0.00000342,-0.00004291,-0.00002985,-0.00000161,0.00000433,
 0.00000910,-0.00000355,0.00002563,0.00001800,0.00000116,0.00000504,-0.
 00000140,0.00000014,-0.00000351,0.00002196,0.00000526,-0.00001863,0.00
 000221,-0.00000348,-0.00000769,-0.00001853,0.00000091,-0.00000922,0.00
 001476,-0.00000039,0.00001246,-0.00000090,0.00000022,-0.00000047,0.000
 00900,0.00000025,0.00000143,0.00001286,0.00000020,0.00001196,0.0000057
 9,0.00000115,0.00000932,0.00001223,0.00000135,-0.00000991,-0.00001245,
 -0.00000093,0.00000178,0.00000729,0.00000028,-0.00000379,0.00000671,-0
 .00000035,0.00012386,0.00007750,-0.00004415,0.00001555,-0.00013690,0.0
 0000390,-0.00043805,-0.00024369,-0.00001464,-0.00054163,0.00117802,0.0
 0005374,0.00016252,-0.00037681,-0.00006122,-0.00224686,-0.00427940,0.0
 0062538,-0.01944283,0.01605637,0.00150228,-0.27144642,0.11841572,0.014
 39901,0.00211954,-0.00179695,-0.00000341,0.00098430,-0.00060050,0.0001
 5444,-0.00001319,0.00001955,0.00000118,0.00014187,0.00046117,0.0000150
 1,0.00000281,0.00004025,0.00000635,0.00000324,-0.00000299,0.00000097,-
 0.00000455,-0.00000623,0.00000047,0.00000475,0.00000629,0.00000034,0.0
 0000107,0.00000313,0.00000016,-0.00000396,0.00000315,-0.00000007,0.000
 00031,-0.00000336,0.00000023,0.00000468,0.00000286,0.00000047,-0.00000
 159,0.00000356,0.00000003,-0.00001931,0.00001421,0.00000686,-0.0001181
 4,0.00006909,0.00000633,-0.00000019,-0.00005751,0.00001059,0.00080027,
 -0.00033594,-0.00036416,0.28855032,-0.00025811,-0.00045284,0.00001613,
 0.00000177,0.00005334,0.00000066,-0.00001154,0.00010205,0.00001307,0.0
 0169077,-0.00004649,-0.00007266,0.00174490,0.00143556,-0.00002896,-0.0
 0033438,0.00006386,0.00001196,0.00015567,-0.00001750,-0.00000600,-0.00
 001875,-0.00004688,-0.00000026,0.00000844,-0.00000043,-0.00000015,-0.0
 0009354,0.00008336,0.00000411,0.00001744,-0.00005196,-0.00000057,-0.00
 000234,0.00000718,0.00000261,0.00001961,0.00000508,0.00000448,0.000005
 89,-0.00000512,0.00000036,-0.00000293,-0.00000029,-0.00000041,-0.00000
 019,-0.00000809,-0.00000016,-0.00000286,-0.00000423,-0.00000057,-0.000
 01971,0.00000746,-0.00000133,-0.00000094,-0.00002223,-0.00000120,0.000
 00522,0.00001486,0.00000049,0.00000133,-0.00001095,-0.00000016,-0.0000
 0396,-0.00000392,-0.00000016,0.00021823,0.00000931,-0.00000116,-0.0000
 8300,-0.00014898,0.00000101,-0.00023959,0.00002615,0.00003046,-0.00028
 367,0.00068524,0.00002476,-0.00081682,-0.00033335,0.00005123,-0.003065
 97,-0.00160562,-0.00000830,-0.01621913,0.01199038,0.00098704,0.1194670
 0,-0.12579301,-0.00786514,0.02832307,-0.01092695,-0.00171044,-0.001946
 36,-0.00528283,-0.00007832,0.00001832,0.00000852,-0.00000179,-0.001268
 88,-0.00028836,0.00005775,-0.00001388,-0.00003848,0.00000158,0.0000026
 6,0.00000384,-0.00000139,-0.00000841,-0.00000103,-0.00000476,-0.000003
 13,-0.00000743,-0.00000017,-0.00000041,-0.00000164,-0.00000005,0.00000
 203,-0.00000216,0.00000005,0.00000046,0.00000179,0.00000003,-0.0000028
 6,-0.00000283,-0.00000036,0.00000109,-0.00000172,0.,0.00001096,0.00000
 955,-0.00000293,-0.00007513,0.00004024,0.00000601,0.00001106,-0.000021
 86,-0.00000588,0.00023010,0.00087008,0.00008418,-0.12715946,0.12970933
 ,-0.00000760,-0.00001157,0.00001227,0.00000651,-0.00000131,0.00004532,
 -0.00001381,0.00000552,-0.00000914,0.00003807,0.00002309,0.00015565,-0
 .00013210,0.00012362,-0.00203277,-0.00001519,-0.00001917,-0.00017112,0
 .00000671,-0.00000141,-0.00000808,-0.00000093,0.00000139,-0.00001623,-
 0.00000101,-0.00000223,-0.00001523,-0.00000226,-0.00000133,0.00004440,
 0.00000307,-0.00000079,-0.00000598,0.00000133,-0.00000102,-0.00000324,
 0.00000060,-0.00000039,0.00000435,0.00000071,-0.00000077,-0.00000054,-
 0.00000094,-0.00000022,-0.00000172,-0.00000057,-0.00000002,0.00000057,
 0.00000065,-0.00000087,-0.00000208,-0.00000162,0.00000001,0.00000259,-
 0.00000087,-0.00000090,-0.00000222,0.00000083,0.00000067,-0.00000042,-
 0.00000024,-0.00000046,-0.00000146,0.00000041,-0.00000030,0.00000040,-
 0.00002593,0.00000699,-0.00075230,-0.00001160,-0.00001889,0.00011589,-
 0.00004296,0.00003994,-0.00080097,0.00004010,-0.00003889,0.00006196,-0
 .00011024,-0.00000142,-0.00077948,0.00062077,0.00004997,0.01045287,0.0
 0110824,-0.00071045,0.00420137,0.01433858,-0.00785192,-0.03813561,0.00
 045347,-0.00002052,0.00267094,0.00017887,-0.00012580,0.00381410,0.0000
 0197,-0.00000165,0.00001282,-0.00000867,-0.00003870,0.00022397,0.00000
 431,-0.00000717,0.00008956,-0.00000038,0.00000055,0.00000285,-0.000000
 78,-0.00000005,0.00000672,-0.00000057,-0.00000083,0.00000238,-0.000000
 09,-0.00000025,0.00000076,0.00000022,-0.00000021,0.00000053,-0.0000001
 6,0.00000022,0.00000131,-0.00000047,-0.00000036,0.00000121,0.00000005,
 -0.00000019,0.00000087,0.00000824,-0.00000157,0.00010620,0.00000183,-0
 .00000179,-0.00002776,0.00001585,0.00000003,0.00023998,-0.00036231,0.0
 0011615,-0.00584364,-0.01608969,0.00849529,0.02633814\\-0.00000001,-0.
 00000004,0.00000002,-0.00000005,-0.00000004,-0.00000004,0.,0.,-0.00000
 003,0.00000007,0.00000002,0.,0.,0.00000003,-0.00000002,0.,0.,0.,-0.000
 00001,0.00000004,-0.00000002,-0.00000005,0.00000004,0.00000004,0.00000
 007,-0.00000002,0.,0.,0.,0.00000003,0.,0.,0.,0.,-0.00000003,0.00000002
 ,-0.00000006,0.00000005,0.00000002,-0.00000006,-0.00000004,0.00000004,
 0.00000005,0.00000005,0.00000004,0.00000005,-0.00000003,0.00000004,-0.
 00000001,0.00000005,0.00000003,-0.00000002,0.00000001,0.00000002,0.,0.
 00000005,0.00000004,-0.00000002,-0.00000003,0.00000004,-0.00000004,0.,
 0.00000005,-0.00000001,-0.00000002,0.00000004,-0.00000006,-0.00000005,
 -0.00000002,0.00000005,0.00000003,-0.00000004,0.00000005,-0.00000005,-
 0.00000004,-0.00000006,0.00000004,-0.00000004,-0.00000001,-0.00000005,
 -0.00000003,-0.00000001,0.00000002,-0.00000004,-0.00000004,0.,-0.00000
 005,-0.00000002,0.00000003,-0.00000004,0.,-0.00000005,-0.00000004,-0.0
 0000002,-0.00000001,-0.00000002,0.,0.,0.,0.00000003,-0.00000002,-0.000
 00003,0.00000002,0.,0.,0.,0.,0.,0.00000002,0.,0.,0.00000003,0.00000002
 ,0.00000003,0.,-0.00000004,0.00000006,0.00000001,-0.00000002,0.0000000
 5,0.00000002,0.00000002,0.00000003,0.00000002,0.00000001,0.00000004,0.
 00000001,-0.00000003,0.00000006,0.00000002,-0.00000002,-0.00000003,0.0
 0000001,0.00000002,-0.00000005,0.,0.00000004,-0.00000006,0.00000001,0.
 00000003,-0.00000006,0.00000002,-0.00000001,-0.00000004\\\@


 THE FIRST AND LAST THING REQUIRED OF GENIUS IS THE LOVE OF TRUTH.

                          -- GOETHE
 Job cpu time:      16 days  9 hours 36 minutes 20.1 seconds.
 File lengths (MBytes):  RWF=   2993 Int=      0 D2E=      0 Chk=     85 Scr=      1
 Normal termination of Gaussian 09 at Thu Jul 25 09:38:29 2019.
