 Entering Gaussian System, Link 0=g09
 Initial command:
 /home/minenky/programs//g09/l1.exe "/local/scratch/minenky/m1_00_31541-02-3-C32H18_wB97XD/Gau-161528.inp" -scrdir="/local/scratch/minenky/m1_00_31541-02-3-C32H18_wB97XD/"
 Entering Link 1 = /home/minenky/programs//g09/l1.exe PID=    161529.
  
 Copyright (c) 1988,1990,1992,1993,1995,1998,2003,2009,2013,
            Gaussian, Inc.  All Rights Reserved.
  
 This is part of the Gaussian(R) 09 program.  It is based on
 the Gaussian(R) 03 system (copyright 2003, Gaussian, Inc.),
 the Gaussian(R) 98 system (copyright 1998, Gaussian, Inc.),
 the Gaussian(R) 94 system (copyright 1995, Gaussian, Inc.),
 the Gaussian 92(TM) system (copyright 1992, Gaussian, Inc.),
 the Gaussian 90(TM) system (copyright 1990, Gaussian, Inc.),
 the Gaussian 88(TM) system (copyright 1988, Gaussian, Inc.),
 the Gaussian 86(TM) system (copyright 1986, Carnegie Mellon
 University), and the Gaussian 82(TM) system (copyright 1983,
 Carnegie Mellon University). Gaussian is a federally registered
 trademark of Gaussian, Inc.
  
 This software contains proprietary and confidential information,
 including trade secrets, belonging to Gaussian, Inc.
  
 This software is provided under written license and may be
 used, copied, transmitted, or stored only in accord with that
 written license.
  
 The following legend is applicable only to US Government
 contracts under FAR:
  
                    RESTRICTED RIGHTS LEGEND
  
 Use, reproduction and disclosure by the US Government is
 subject to restrictions as set forth in subparagraphs (a)
 and (c) of the Commercial Computer Software - Restricted
 Rights clause in FAR 52.227-19.
  
 Gaussian, Inc.
 340 Quinnipiac St., Bldg. 40, Wallingford CT 06492
  
  
 ---------------------------------------------------------------
 Warning -- This program may not be used in any manner that
 competes with the business of Gaussian, Inc. or will provide
 assistance to any competitor of Gaussian, Inc.  The licensee
 of this program is prohibited from giving any competitor of
 Gaussian, Inc. access to this program.  By using this program,
 the user acknowledges that Gaussian, Inc. is engaged in the
 business of creating and licensing software in the field of
 computational chemistry and represents and warrants to the
 licensee that it is not a competitor of Gaussian, Inc. and that
 it will not use this program in any manner prohibited above.
 ---------------------------------------------------------------
  

 Cite this work as:
 Gaussian 09, Revision D.01,
 M. J. Frisch, G. W. Trucks, H. B. Schlegel, G. E. Scuseria, 
 M. A. Robb, J. R. Cheeseman, G. Scalmani, V. Barone, B. Mennucci, 
 G. A. Petersson, H. Nakatsuji, M. Caricato, X. Li, H. P. Hratchian, 
 A. F. Izmaylov, J. Bloino, G. Zheng, J. L. Sonnenberg, M. Hada, 
 M. Ehara, K. Toyota, R. Fukuda, J. Hasegawa, M. Ishida, T. Nakajima, 
 Y. Honda, O. Kitao, H. Nakai, T. Vreven, J. A. Montgomery, Jr., 
 J. E. Peralta, F. Ogliaro, M. Bearpark, J. J. Heyd, E. Brothers, 
 K. N. Kudin, V. N. Staroverov, T. Keith, R. Kobayashi, J. Normand, 
 K. Raghavachari, A. Rendell, J. C. Burant, S. S. Iyengar, J. Tomasi, 
 M. Cossi, N. Rega, J. M. Millam, M. Klene, J. E. Knox, J. B. Cross, 
 V. Bakken, C. Adamo, J. Jaramillo, R. Gomperts, R. E. Stratmann, 
 O. Yazyev, A. J. Austin, R. Cammi, C. Pomelli, J. W. Ochterski, 
 R. L. Martin, K. Morokuma, V. G. Zakrzewski, G. A. Voth, 
 P. Salvador, J. J. Dannenberg, S. Dapprich, A. D. Daniels, 
 O. Farkas, J. B. Foresman, J. V. Ortiz, J. Cioslowski, 
 and D. J. Fox, Gaussian, Inc., Wallingford CT, 2013.
 
 ******************************************
 Gaussian 09:  AM64L-G09RevD.01 24-Apr-2013
                27-Jul-2019 
 ******************************************
 %Mem=32000MB
 %NProcShared=16
 Will use up to   16 processors via shared memory.
 %Chk=m1_00_31541-02-3-C32H18_wB97XD
 ----------------------------------------------------------------------
 #P wB97XD/def2tzvp opt=(tight) freq integral(Grid=ultrafine) # SCF(Max
 Cycle=380) 5d 7f GFPrint
 ----------------------------------------------------------------------
 1/7=10,14=-1,18=20,19=15,26=4,38=1/1,3;
 2/9=110,12=2,17=6,18=5,40=1/2;
 3/5=44,7=101,8=11,11=2,16=1,24=100,25=1,30=1,71=1,74=-58,75=-5/1,2,3;
 4//1;
 5/5=2,7=380,38=5/2;
 6/7=2,8=2,9=2,10=2,28=1/1;
 7//1,2,3,16;
 1/7=10,14=-1,18=20,19=15,26=4/3(2);
 2/9=110/2;
 99//99;
 2/9=110/2;
 3/5=44,7=101,8=11,11=2,16=1,25=1,30=1,71=1,74=-58,75=-5/1,2,3;
 4/5=5,16=3,69=1/1;
 5/5=2,7=380,38=5/2;
 7//1,2,3,16;
 1/7=10,14=-1,18=20,19=15,26=4/3(-5);
 2/9=110/2;
 6/7=2,8=2,9=2,10=2,19=2,28=1/1;
 99/9=1/99;
 Leave Link    1 at Sat Jul 27 14:53:39 2019, MaxMem=  4194304000 cpu:         1.6
 (Enter /home/minenky/programs//g09/l101.exe)
 ---------------------------------------
 The PBEPBE optimization and frequencies
 ---------------------------------------
 Symbolic Z-matrix:
 Charge =  0 Multiplicity = 1
 C                     1.4767    5.413     6.9724 
 C                     0.8575    6.1967    6.0147 
 C                     2.2179    4.2576    6.6269 
 C                     0.9922    5.8722    4.6582 
 C                     1.7426    4.7702    4.2876 
 C                     2.3543    3.9267    5.2457 
 C                     3.2424    2.8376    4.856 
 C                     2.9711    3.5017    7.6209 
 C                     4.2595    2.4825    5.7689 
 C                     3.163     2.1568    3.5872 
 C                     4.1226    2.8197    7.1702 
 C                     5.38      1.6887    5.3326 
 C                     5.1085    2.3597    8.1147 
 C                     2.6307    3.4631    9.0214 
 C                     4.2661    1.339     3.1825 
 C                     2.0118    2.1616    2.7504 
 C                     5.3682    1.1723    4.0531 
 C                     4.2272    0.6732    1.928 
 C                     6.5102    1.4709    6.2493 
 C                     1.9892    1.4794    1.5517 
 C                     3.1185    0.7502    1.1173 
 C                     6.3766    1.8011    7.6192 
 C                     7.7403    0.9557    5.7934 
 C                     7.4788    1.6014    8.4746 
 C                     4.8404    2.4781    9.4632 
 C                     3.605     2.969     9.9464 
 C                     3.308     2.9409    11.3354 
 C                     1.3459    3.7911    9.5388 
 C                     2.0728    3.3233    11.8052 
 C                     1.0741    3.7232    10.8894 
 C                     8.8079    0.7539    6.6542 
 C                     8.6757    1.08      8.0087 
 H                     1.4496    5.7333    8.0063 
 H                     0.3125    7.0873    6.3152 
 H                     0.5531    6.5084    3.8946 
 H                     1.922     4.5907    3.235 
 H                     1.1139    2.668     3.0824 
 H                     6.1886    0.5555    3.7019 
 H                     5.0879    0.078     1.6318 
 H                     1.0871    1.4893    0.9459 
 H                     3.0964    0.2281    0.1647 
 H                     7.8734    0.7332    4.7405 
 H                     7.4075    1.884     9.5191 
 H                     5.5554    2.1256    10.1989 
 H                     4.0738    2.5853    12.0208 
 H                     0.5466    4.0499    8.8554 
 H                     1.8537    3.2877    12.8688 
 H                     0.0769    3.9628    11.2485 
 H                     9.7459    0.3613    6.2717 
 H                     9.5098    0.9437    8.6915 
 
 NAtoms=     50 NQM=       50 NQMF=       0 NMMI=      0 NMMIF=      0
                NMic=       0 NMicF=      0.
                    Isotopes and Nuclear Properties:
 (Nuclear quadrupole moments (NQMom) in fm**2, nuclear magnetic moments (NMagM)
  in nuclear magnetons)

  Atom         1           2           3           4           5           6           7           8           9          10
 IAtWgt=          12          12          12          12          12          12          12          12          12          12
 AtmWgt=  12.0000000  12.0000000  12.0000000  12.0000000  12.0000000  12.0000000  12.0000000  12.0000000  12.0000000  12.0000000
 NucSpn=           0           0           0           0           0           0           0           0           0           0
 AtZEff=   0.0000000   0.0000000   0.0000000   0.0000000   0.0000000   0.0000000   0.0000000   0.0000000   0.0000000   0.0000000
 NQMom=    0.0000000   0.0000000   0.0000000   0.0000000   0.0000000   0.0000000   0.0000000   0.0000000   0.0000000   0.0000000
 NMagM=    0.0000000   0.0000000   0.0000000   0.0000000   0.0000000   0.0000000   0.0000000   0.0000000   0.0000000   0.0000000
 AtZNuc=   6.0000000   6.0000000   6.0000000   6.0000000   6.0000000   6.0000000   6.0000000   6.0000000   6.0000000   6.0000000

  Atom        11          12          13          14          15          16          17          18          19          20
 IAtWgt=          12          12          12          12          12          12          12          12          12          12
 AtmWgt=  12.0000000  12.0000000  12.0000000  12.0000000  12.0000000  12.0000000  12.0000000  12.0000000  12.0000000  12.0000000
 NucSpn=           0           0           0           0           0           0           0           0           0           0
 AtZEff=   0.0000000   0.0000000   0.0000000   0.0000000   0.0000000   0.0000000   0.0000000   0.0000000   0.0000000   0.0000000
 NQMom=    0.0000000   0.0000000   0.0000000   0.0000000   0.0000000   0.0000000   0.0000000   0.0000000   0.0000000   0.0000000
 NMagM=    0.0000000   0.0000000   0.0000000   0.0000000   0.0000000   0.0000000   0.0000000   0.0000000   0.0000000   0.0000000
 AtZNuc=   6.0000000   6.0000000   6.0000000   6.0000000   6.0000000   6.0000000   6.0000000   6.0000000   6.0000000   6.0000000

  Atom        21          22          23          24          25          26          27          28          29          30
 IAtWgt=          12          12          12          12          12          12          12          12          12          12
 AtmWgt=  12.0000000  12.0000000  12.0000000  12.0000000  12.0000000  12.0000000  12.0000000  12.0000000  12.0000000  12.0000000
 NucSpn=           0           0           0           0           0           0           0           0           0           0
 AtZEff=   0.0000000   0.0000000   0.0000000   0.0000000   0.0000000   0.0000000   0.0000000   0.0000000   0.0000000   0.0000000
 NQMom=    0.0000000   0.0000000   0.0000000   0.0000000   0.0000000   0.0000000   0.0000000   0.0000000   0.0000000   0.0000000
 NMagM=    0.0000000   0.0000000   0.0000000   0.0000000   0.0000000   0.0000000   0.0000000   0.0000000   0.0000000   0.0000000
 AtZNuc=   6.0000000   6.0000000   6.0000000   6.0000000   6.0000000   6.0000000   6.0000000   6.0000000   6.0000000   6.0000000

  Atom        31          32          33          34          35          36          37          38          39          40
 IAtWgt=          12          12           1           1           1           1           1           1           1           1
 AtmWgt=  12.0000000  12.0000000   1.0078250   1.0078250   1.0078250   1.0078250   1.0078250   1.0078250   1.0078250   1.0078250
 NucSpn=           0           0           1           1           1           1           1           1           1           1
 AtZEff=   0.0000000   0.0000000   0.0000000   0.0000000   0.0000000   0.0000000   0.0000000   0.0000000   0.0000000   0.0000000
 NQMom=    0.0000000   0.0000000   0.0000000   0.0000000   0.0000000   0.0000000   0.0000000   0.0000000   0.0000000   0.0000000
 NMagM=    0.0000000   0.0000000   2.7928460   2.7928460   2.7928460   2.7928460   2.7928460   2.7928460   2.7928460   2.7928460
 AtZNuc=   6.0000000   6.0000000   1.0000000   1.0000000   1.0000000   1.0000000   1.0000000   1.0000000   1.0000000   1.0000000

  Atom        41          42          43          44          45          46          47          48          49          50
 IAtWgt=           1           1           1           1           1           1           1           1           1           1
 AtmWgt=   1.0078250   1.0078250   1.0078250   1.0078250   1.0078250   1.0078250   1.0078250   1.0078250   1.0078250   1.0078250
 NucSpn=           1           1           1           1           1           1           1           1           1           1
 AtZEff=   0.0000000   0.0000000   0.0000000   0.0000000   0.0000000   0.0000000   0.0000000   0.0000000   0.0000000   0.0000000
 NQMom=    0.0000000   0.0000000   0.0000000   0.0000000   0.0000000   0.0000000   0.0000000   0.0000000   0.0000000   0.0000000
 NMagM=    2.7928460   2.7928460   2.7928460   2.7928460   2.7928460   2.7928460   2.7928460   2.7928460   2.7928460   2.7928460
 AtZNuc=   1.0000000   1.0000000   1.0000000   1.0000000   1.0000000   1.0000000   1.0000000   1.0000000   1.0000000   1.0000000
 Leave Link  101 at Sat Jul 27 14:53:39 2019, MaxMem=  4194304000 cpu:         4.0
 (Enter /home/minenky/programs//g09/l103.exe)

 GradGradGradGradGradGradGradGradGradGradGradGradGradGradGradGradGradGrad
 Berny optimization.
 Initialization pass.
                           ----------------------------
                           !    Initial Parameters    !
                           ! (Angstroms and Degrees)  !
 --------------------------                            --------------------------
 ! Name  Definition              Value          Derivative Info.                !
 --------------------------------------------------------------------------------
 ! R1    R(1,2)                  1.3838         estimate D2E/DX2                !
 ! R2    R(1,3)                  1.4155         estimate D2E/DX2                !
 ! R3    R(1,33)                 1.0827         estimate D2E/DX2                !
 ! R4    R(2,4)                  1.4013         estimate D2E/DX2                !
 ! R5    R(2,34)                 1.0865         estimate D2E/DX2                !
 ! R6    R(3,6)                  1.4268         estimate D2E/DX2                !
 ! R7    R(3,8)                  1.4583         estimate D2E/DX2                !
 ! R8    R(4,5)                  1.3838         estimate D2E/DX2                !
 ! R9    R(4,35)                 1.0866         estimate D2E/DX2                !
 ! R10   R(5,6)                  1.4155         estimate D2E/DX2                !
 ! R11   R(5,36)                 1.0828         estimate D2E/DX2                !
 ! R12   R(6,7)                  1.4583         estimate D2E/DX2                !
 ! R13   R(7,9)                  1.4121         estimate D2E/DX2                !
 ! R14   R(7,10)                 1.4421         estimate D2E/DX2                !
 ! R15   R(8,11)                 1.4122         estimate D2E/DX2                !
 ! R16   R(8,14)                 1.4418         estimate D2E/DX2                !
 ! R17   R(9,11)                 1.4478         estimate D2E/DX2                !
 ! R18   R(9,12)                 1.4408         estimate D2E/DX2                !
 ! R19   R(10,15)                1.4316         estimate D2E/DX2                !
 ! R20   R(10,16)                1.4232         estimate D2E/DX2                !
 ! R21   R(11,13)                1.4407         estimate D2E/DX2                !
 ! R22   R(12,17)                1.3798         estimate D2E/DX2                !
 ! R23   R(12,19)                1.4714         estimate D2E/DX2                !
 ! R24   R(13,22)                1.4716         estimate D2E/DX2                !
 ! R25   R(13,25)                1.38           estimate D2E/DX2                !
 ! R26   R(14,26)                1.4314         estimate D2E/DX2                !
 ! R27   R(14,28)                1.4234         estimate D2E/DX2                !
 ! R28   R(15,17)                1.4143         estimate D2E/DX2                !
 ! R29   R(15,18)                1.4208         estimate D2E/DX2                !
 ! R30   R(16,20)                1.3794         estimate D2E/DX2                !
 ! R31   R(16,37)                1.083          estimate D2E/DX2                !
 ! R32   R(17,38)                1.0848         estimate D2E/DX2                !
 ! R33   R(18,21)                1.3756         estimate D2E/DX2                !
 ! R34   R(18,39)                1.0876         estimate D2E/DX2                !
 ! R35   R(19,22)                1.4155         estimate D2E/DX2                !
 ! R36   R(19,23)                1.4094         estimate D2E/DX2                !
 ! R37   R(20,21)                1.4127         estimate D2E/DX2                !
 ! R38   R(20,40)                1.0867         estimate D2E/DX2                !
 ! R39   R(21,41)                1.0865         estimate D2E/DX2                !
 ! R40   R(22,24)                1.4094         estimate D2E/DX2                !
 ! R41   R(23,31)                1.3862         estimate D2E/DX2                !
 ! R42   R(23,42)                1.0844         estimate D2E/DX2                !
 ! R43   R(24,32)                1.3862         estimate D2E/DX2                !
 ! R44   R(24,43)                1.0844         estimate D2E/DX2                !
 ! R45   R(25,26)                1.4145         estimate D2E/DX2                !
 ! R46   R(25,44)                1.0848         estimate D2E/DX2                !
 ! R47   R(26,27)                1.4207         estimate D2E/DX2                !
 ! R48   R(27,29)                1.3757         estimate D2E/DX2                !
 ! R49   R(27,45)                1.0875         estimate D2E/DX2                !
 ! R50   R(28,30)                1.3793         estimate D2E/DX2                !
 ! R51   R(28,46)                1.083          estimate D2E/DX2                !
 ! R52   R(29,30)                1.4128         estimate D2E/DX2                !
 ! R53   R(29,47)                1.0865         estimate D2E/DX2                !
 ! R54   R(30,48)                1.0866         estimate D2E/DX2                !
 ! R55   R(31,32)                1.3995         estimate D2E/DX2                !
 ! R56   R(31,49)                1.0864         estimate D2E/DX2                !
 ! R57   R(32,50)                1.0865         estimate D2E/DX2                !
 ! A1    A(2,1,3)              121.8477         estimate D2E/DX2                !
 ! A2    A(2,1,33)             118.826          estimate D2E/DX2                !
 ! A3    A(3,1,33)             119.1861         estimate D2E/DX2                !
 ! A4    A(1,2,4)              119.724          estimate D2E/DX2                !
 ! A5    A(1,2,34)             119.8201         estimate D2E/DX2                !
 ! A6    A(4,2,34)             120.3831         estimate D2E/DX2                !
 ! A7    A(1,3,6)              118.4004         estimate D2E/DX2                !
 ! A8    A(1,3,8)              121.8137         estimate D2E/DX2                !
 ! A9    A(6,3,8)              119.3554         estimate D2E/DX2                !
 ! A10   A(2,4,5)              119.7232         estimate D2E/DX2                !
 ! A11   A(2,4,35)             120.3893         estimate D2E/DX2                !
 ! A12   A(5,4,35)             119.8159         estimate D2E/DX2                !
 ! A13   A(4,5,6)              121.8454         estimate D2E/DX2                !
 ! A14   A(4,5,36)             118.831          estimate D2E/DX2                !
 ! A15   A(6,5,36)             119.1843         estimate D2E/DX2                !
 ! A16   A(3,6,5)              118.4058         estimate D2E/DX2                !
 ! A17   A(3,6,7)              119.3467         estimate D2E/DX2                !
 ! A18   A(5,6,7)              121.8249         estimate D2E/DX2                !
 ! A19   A(6,7,9)              116.9805         estimate D2E/DX2                !
 ! A20   A(6,7,10)             123.6518         estimate D2E/DX2                !
 ! A21   A(9,7,10)             119.3237         estimate D2E/DX2                !
 ! A22   A(3,8,11)             116.9965         estimate D2E/DX2                !
 ! A23   A(3,8,14)             123.6432         estimate D2E/DX2                !
 ! A24   A(11,8,14)            119.3144         estimate D2E/DX2                !
 ! A25   A(7,9,11)             119.9375         estimate D2E/DX2                !
 ! A26   A(7,9,12)             120.1938         estimate D2E/DX2                !
 ! A27   A(11,9,12)            119.6658         estimate D2E/DX2                !
 ! A28   A(7,10,15)            118.4234         estimate D2E/DX2                !
 ! A29   A(7,10,16)            124.0734         estimate D2E/DX2                !
 ! A30   A(15,10,16)           117.322          estimate D2E/DX2                !
 ! A31   A(8,11,9)             119.9004         estimate D2E/DX2                !
 ! A32   A(8,11,13)            120.1963         estimate D2E/DX2                !
 ! A33   A(9,11,13)            119.6997         estimate D2E/DX2                !
 ! A34   A(9,12,17)            118.7069         estimate D2E/DX2                !
 ! A35   A(9,12,19)            119.3554         estimate D2E/DX2                !
 ! A36   A(17,12,19)           121.9291         estimate D2E/DX2                !
 ! A37   A(11,13,22)           119.3495         estimate D2E/DX2                !
 ! A38   A(11,13,25)           118.7036         estimate D2E/DX2                !
 ! A39   A(22,13,25)           121.9382         estimate D2E/DX2                !
 ! A40   A(8,14,26)            118.4401         estimate D2E/DX2                !
 ! A41   A(8,14,28)            124.058          estimate D2E/DX2                !
 ! A42   A(26,14,28)           117.3241         estimate D2E/DX2                !
 ! A43   A(10,15,17)           119.5877         estimate D2E/DX2                !
 ! A44   A(10,15,18)           119.7502         estimate D2E/DX2                !
 ! A45   A(17,15,18)           120.6384         estimate D2E/DX2                !
 ! A46   A(10,16,20)           121.5016         estimate D2E/DX2                !
 ! A47   A(10,16,37)           119.4695         estimate D2E/DX2                !
 ! A48   A(20,16,37)           118.9509         estimate D2E/DX2                !
 ! A49   A(12,17,15)           122.2319         estimate D2E/DX2                !
 ! A50   A(12,17,38)           120.4323         estimate D2E/DX2                !
 ! A51   A(15,17,38)           117.1958         estimate D2E/DX2                !
 ! A52   A(15,18,21)           121.0775         estimate D2E/DX2                !
 ! A53   A(15,18,39)           118.3773         estimate D2E/DX2                !
 ! A54   A(21,18,39)           120.5281         estimate D2E/DX2                !
 ! A55   A(12,19,22)           119.7304         estimate D2E/DX2                !
 ! A56   A(12,19,23)           121.5312         estimate D2E/DX2                !
 ! A57   A(22,19,23)           118.732          estimate D2E/DX2                !
 ! A58   A(16,20,21)           120.6231         estimate D2E/DX2                !
 ! A59   A(16,20,40)           119.5734         estimate D2E/DX2                !
 ! A60   A(21,20,40)           119.7941         estimate D2E/DX2                !
 ! A61   A(18,21,20)           119.4685         estimate D2E/DX2                !
 ! A62   A(18,21,41)           120.4101         estimate D2E/DX2                !
 ! A63   A(20,21,41)           120.0905         estimate D2E/DX2                !
 ! A64   A(13,22,19)           119.7195         estimate D2E/DX2                !
 ! A65   A(13,22,24)           121.5547         estimate D2E/DX2                !
 ! A66   A(19,22,24)           118.7195         estimate D2E/DX2                !
 ! A67   A(19,23,31)           121.6374         estimate D2E/DX2                !
 ! A68   A(19,23,42)           119.7505         estimate D2E/DX2                !
 ! A69   A(31,23,42)           118.5921         estimate D2E/DX2                !
 ! A70   A(22,24,32)           121.6382         estimate D2E/DX2                !
 ! A71   A(22,24,43)           119.7519         estimate D2E/DX2                !
 ! A72   A(32,24,43)           118.5897         estimate D2E/DX2                !
 ! A73   A(13,25,26)           122.2277         estimate D2E/DX2                !
 ! A74   A(13,25,44)           120.4509         estimate D2E/DX2                !
 ! A75   A(26,25,44)           117.1794         estimate D2E/DX2                !
 ! A76   A(14,26,25)           119.5726         estimate D2E/DX2                !
 ! A77   A(14,26,27)           119.7575         estimate D2E/DX2                !
 ! A78   A(25,26,27)           120.6456         estimate D2E/DX2                !
 ! A79   A(26,27,29)           121.0694         estimate D2E/DX2                !
 ! A80   A(26,27,45)           118.3887         estimate D2E/DX2                !
 ! A81   A(29,27,45)           120.5246         estimate D2E/DX2                !
 ! A82   A(14,28,30)           121.4966         estimate D2E/DX2                !
 ! A83   A(14,28,46)           119.464          estimate D2E/DX2                !
 ! A84   A(30,28,46)           118.9603         estimate D2E/DX2                !
 ! A85   A(27,29,30)           119.472          estimate D2E/DX2                !
 ! A86   A(27,29,47)           120.4132         estimate D2E/DX2                !
 ! A87   A(30,29,47)           120.0841         estimate D2E/DX2                !
 ! A88   A(28,30,29)           120.6202         estimate D2E/DX2                !
 ! A89   A(28,30,48)           119.5749         estimate D2E/DX2                !
 ! A90   A(29,30,48)           119.7958         estimate D2E/DX2                !
 ! A91   A(23,31,32)           119.6277         estimate D2E/DX2                !
 ! A92   A(23,31,49)           119.93           estimate D2E/DX2                !
 ! A93   A(32,31,49)           120.4332         estimate D2E/DX2                !
 ! A94   A(24,32,31)           119.6381         estimate D2E/DX2                !
 ! A95   A(24,32,50)           119.9224         estimate D2E/DX2                !
 ! A96   A(31,32,50)           120.4304         estimate D2E/DX2                !
 ! D1    D(3,1,2,4)             -1.9321         estimate D2E/DX2                !
 ! D2    D(3,1,2,34)          -178.8433         estimate D2E/DX2                !
 ! D3    D(33,1,2,4)           173.7271         estimate D2E/DX2                !
 ! D4    D(33,1,2,34)           -3.184          estimate D2E/DX2                !
 ! D5    D(2,1,3,6)              1.8665         estimate D2E/DX2                !
 ! D6    D(2,1,3,8)            174.2842         estimate D2E/DX2                !
 ! D7    D(33,1,3,6)          -173.7775         estimate D2E/DX2                !
 ! D8    D(33,1,3,8)            -1.3598         estimate D2E/DX2                !
 ! D9    D(1,2,4,5)              0.0422         estimate D2E/DX2                !
 ! D10   D(1,2,4,35)          -176.8763         estimate D2E/DX2                !
 ! D11   D(34,2,4,5)           176.9357         estimate D2E/DX2                !
 ! D12   D(34,2,4,35)            0.0171         estimate D2E/DX2                !
 ! D13   D(1,3,6,5)              0.0396         estimate D2E/DX2                !
 ! D14   D(1,3,6,7)            172.718          estimate D2E/DX2                !
 ! D15   D(8,3,6,5)           -172.569          estimate D2E/DX2                !
 ! D16   D(8,3,6,7)              0.1093         estimate D2E/DX2                !
 ! D17   D(1,3,8,11)          -150.6177         estimate D2E/DX2                !
 ! D18   D(1,3,8,14)            26.8947         estimate D2E/DX2                !
 ! D19   D(6,3,8,11)            21.7295         estimate D2E/DX2                !
 ! D20   D(6,3,8,14)          -160.758          estimate D2E/DX2                !
 ! D21   D(2,4,5,6)              1.889          estimate D2E/DX2                !
 ! D22   D(2,4,5,36)          -173.7852         estimate D2E/DX2                !
 ! D23   D(35,4,5,6)           178.8254         estimate D2E/DX2                !
 ! D24   D(35,4,5,36)            3.1511         estimate D2E/DX2                !
 ! D25   D(4,5,6,3)             -1.906          estimate D2E/DX2                !
 ! D26   D(4,5,6,7)           -174.3936         estimate D2E/DX2                !
 ! D27   D(36,5,6,3)           173.7534         estimate D2E/DX2                !
 ! D28   D(36,5,6,7)             1.2658         estimate D2E/DX2                !
 ! D29   D(3,6,7,9)            -21.8501         estimate D2E/DX2                !
 ! D30   D(3,6,7,10)           160.5854         estimate D2E/DX2                !
 ! D31   D(5,6,7,9)            150.5688         estimate D2E/DX2                !
 ! D32   D(5,6,7,10)           -26.9957         estimate D2E/DX2                !
 ! D33   D(6,7,9,11)            21.8889         estimate D2E/DX2                !
 ! D34   D(6,7,9,12)          -163.3035         estimate D2E/DX2                !
 ! D35   D(10,7,9,11)         -160.4364         estimate D2E/DX2                !
 ! D36   D(10,7,9,12)           14.3713         estimate D2E/DX2                !
 ! D37   D(6,7,10,15)          165.1594         estimate D2E/DX2                !
 ! D38   D(6,7,10,16)          -19.8716         estimate D2E/DX2                !
 ! D39   D(9,7,10,15)          -12.3512         estimate D2E/DX2                !
 ! D40   D(9,7,10,16)          162.6179         estimate D2E/DX2                !
 ! D41   D(3,8,11,9)           -21.9499         estimate D2E/DX2                !
 ! D42   D(3,8,11,13)          163.2506         estimate D2E/DX2                !
 ! D43   D(14,8,11,9)          160.4251         estimate D2E/DX2                !
 ! D44   D(14,8,11,13)         -14.3744         estimate D2E/DX2                !
 ! D45   D(3,8,14,26)         -164.9913         estimate D2E/DX2                !
 ! D46   D(3,8,14,28)           19.9915         estimate D2E/DX2                !
 ! D47   D(11,8,14,26)          12.4666         estimate D2E/DX2                !
 ! D48   D(11,8,14,28)        -162.5506         estimate D2E/DX2                !
 ! D49   D(7,9,11,8)             0.0755         estimate D2E/DX2                !
 ! D50   D(7,9,11,13)          174.9009         estimate D2E/DX2                !
 ! D51   D(12,9,11,8)         -174.7597         estimate D2E/DX2                !
 ! D52   D(12,9,11,13)           0.0657         estimate D2E/DX2                !
 ! D53   D(7,9,12,17)           -6.5787         estimate D2E/DX2                !
 ! D54   D(7,9,12,19)          172.3739         estimate D2E/DX2                !
 ! D55   D(11,9,12,17)         168.243          estimate D2E/DX2                !
 ! D56   D(11,9,12,19)         -12.8043         estimate D2E/DX2                !
 ! D57   D(7,10,15,17)           2.8004         estimate D2E/DX2                !
 ! D58   D(7,10,15,18)        -178.9594         estimate D2E/DX2                !
 ! D59   D(16,10,15,17)       -172.5099         estimate D2E/DX2                !
 ! D60   D(16,10,15,18)          5.7304         estimate D2E/DX2                !
 ! D61   D(7,10,16,20)        -179.3061         estimate D2E/DX2                !
 ! D62   D(7,10,16,37)          -2.5494         estimate D2E/DX2                !
 ! D63   D(15,10,16,20)         -4.2861         estimate D2E/DX2                !
 ! D64   D(15,10,16,37)        172.4706         estimate D2E/DX2                !
 ! D65   D(8,11,13,22)        -172.4924         estimate D2E/DX2                !
 ! D66   D(8,11,13,25)           6.4559         estimate D2E/DX2                !
 ! D67   D(9,11,13,22)          12.6977         estimate D2E/DX2                !
 ! D68   D(9,11,13,25)        -168.354          estimate D2E/DX2                !
 ! D69   D(9,12,17,15)          -3.2782         estimate D2E/DX2                !
 ! D70   D(9,12,17,38)        -178.8564         estimate D2E/DX2                !
 ! D71   D(19,12,17,15)        177.7973         estimate D2E/DX2                !
 ! D72   D(19,12,17,38)          2.2192         estimate D2E/DX2                !
 ! D73   D(9,12,19,22)          12.7849         estimate D2E/DX2                !
 ! D74   D(9,12,19,23)        -166.2796         estimate D2E/DX2                !
 ! D75   D(17,12,19,22)       -168.2975         estimate D2E/DX2                !
 ! D76   D(17,12,19,23)         12.638          estimate D2E/DX2                !
 ! D77   D(11,13,22,19)        -12.728          estimate D2E/DX2                !
 ! D78   D(11,13,22,24)        166.3473         estimate D2E/DX2                !
 ! D79   D(25,13,22,19)        168.359          estimate D2E/DX2                !
 ! D80   D(25,13,22,24)        -12.5657         estimate D2E/DX2                !
 ! D81   D(11,13,25,26)          3.4165         estimate D2E/DX2                !
 ! D82   D(11,13,25,44)        178.9609         estimate D2E/DX2                !
 ! D83   D(22,13,25,26)       -177.6638         estimate D2E/DX2                !
 ! D84   D(22,13,25,44)         -2.1193         estimate D2E/DX2                !
 ! D85   D(8,14,26,25)          -2.9033         estimate D2E/DX2                !
 ! D86   D(8,14,26,27)         178.88           estimate D2E/DX2                !
 ! D87   D(28,14,26,25)        172.4509         estimate D2E/DX2                !
 ! D88   D(28,14,26,27)         -5.7658         estimate D2E/DX2                !
 ! D89   D(8,14,28,30)         179.3489         estimate D2E/DX2                !
 ! D90   D(8,14,28,46)           2.6182         estimate D2E/DX2                !
 ! D91   D(26,14,28,30)          4.2805         estimate D2E/DX2                !
 ! D92   D(26,14,28,46)       -172.4502         estimate D2E/DX2                !
 ! D93   D(10,15,17,12)          5.0941         estimate D2E/DX2                !
 ! D94   D(10,15,17,38)       -179.1922         estimate D2E/DX2                !
 ! D95   D(18,15,17,12)       -173.1301         estimate D2E/DX2                !
 ! D96   D(18,15,17,38)          2.5836         estimate D2E/DX2                !
 ! D97   D(10,15,18,21)         -3.0235         estimate D2E/DX2                !
 ! D98   D(10,15,18,39)        178.4727         estimate D2E/DX2                !
 ! D99   D(17,15,18,21)        175.1979         estimate D2E/DX2                !
 ! D100  D(17,15,18,39)         -3.3059         estimate D2E/DX2                !
 ! D101  D(10,16,20,21)          0.0024         estimate D2E/DX2                !
 ! D102  D(10,16,20,40)        178.8821         estimate D2E/DX2                !
 ! D103  D(37,16,20,21)       -176.7707         estimate D2E/DX2                !
 ! D104  D(37,16,20,40)          2.109          estimate D2E/DX2                !
 ! D105  D(15,18,21,20)         -1.3744         estimate D2E/DX2                !
 ! D106  D(15,18,21,41)       -179.3523         estimate D2E/DX2                !
 ! D107  D(39,18,21,20)        177.0973         estimate D2E/DX2                !
 ! D108  D(39,18,21,41)         -0.8805         estimate D2E/DX2                !
 ! D109  D(12,19,22,13)         -0.0141         estimate D2E/DX2                !
 ! D110  D(12,19,22,24)       -179.1156         estimate D2E/DX2                !
 ! D111  D(23,19,22,13)        179.0765         estimate D2E/DX2                !
 ! D112  D(23,19,22,24)         -0.025          estimate D2E/DX2                !
 ! D113  D(12,19,23,31)        179.7781         estimate D2E/DX2                !
 ! D114  D(12,19,23,42)          1.4299         estimate D2E/DX2                !
 ! D115  D(22,19,23,31)          0.7046         estimate D2E/DX2                !
 ! D116  D(22,19,23,42)       -177.6436         estimate D2E/DX2                !
 ! D117  D(16,20,21,18)          2.9218         estimate D2E/DX2                !
 ! D118  D(16,20,21,41)       -179.0938         estimate D2E/DX2                !
 ! D119  D(40,20,21,18)       -175.9554         estimate D2E/DX2                !
 ! D120  D(40,20,21,41)          2.029          estimate D2E/DX2                !
 ! D121  D(13,22,24,32)       -179.7563         estimate D2E/DX2                !
 ! D122  D(13,22,24,43)         -1.4182         estimate D2E/DX2                !
 ! D123  D(19,22,24,32)         -0.672          estimate D2E/DX2                !
 ! D124  D(19,22,24,43)        177.6661         estimate D2E/DX2                !
 ! D125  D(19,23,31,32)         -0.6922         estimate D2E/DX2                !
 ! D126  D(19,23,31,49)       -179.6004         estimate D2E/DX2                !
 ! D127  D(42,23,31,32)        177.6745         estimate D2E/DX2                !
 ! D128  D(42,23,31,49)         -1.2336         estimate D2E/DX2                !
 ! D129  D(22,24,32,31)          0.6965         estimate D2E/DX2                !
 ! D130  D(22,24,32,50)        179.6018         estimate D2E/DX2                !
 ! D131  D(43,24,32,31)       -177.6603         estimate D2E/DX2                !
 ! D132  D(43,24,32,50)          1.245          estimate D2E/DX2                !
 ! D133  D(13,25,26,14)         -5.1204         estimate D2E/DX2                !
 ! D134  D(13,25,26,27)        173.0802         estimate D2E/DX2                !
 ! D135  D(44,25,26,14)        179.1971         estimate D2E/DX2                !
 ! D136  D(44,25,26,27)         -2.6024         estimate D2E/DX2                !
 ! D137  D(14,26,27,29)          3.0656         estimate D2E/DX2                !
 ! D138  D(14,26,27,45)       -178.4365         estimate D2E/DX2                !
 ! D139  D(25,26,27,29)       -175.1316         estimate D2E/DX2                !
 ! D140  D(25,26,27,45)          3.3663         estimate D2E/DX2                !
 ! D141  D(26,27,29,30)          1.3674         estimate D2E/DX2                !
 ! D142  D(26,27,29,47)        179.3547         estimate D2E/DX2                !
 ! D143  D(45,27,29,30)       -177.0986         estimate D2E/DX2                !
 ! D144  D(45,27,29,47)          0.8887         estimate D2E/DX2                !
 ! D145  D(14,28,30,29)          0.0381         estimate D2E/DX2                !
 ! D146  D(14,28,30,48)       -178.8636         estimate D2E/DX2                !
 ! D147  D(46,28,30,29)        176.7848         estimate D2E/DX2                !
 ! D148  D(46,28,30,48)         -2.1169         estimate D2E/DX2                !
 ! D149  D(27,29,30,28)         -2.9558         estimate D2E/DX2                !
 ! D150  D(27,29,30,48)        175.9435         estimate D2E/DX2                !
 ! D151  D(47,29,30,28)        179.0501         estimate D2E/DX2                !
 ! D152  D(47,29,30,48)         -2.0506         estimate D2E/DX2                !
 ! D153  D(23,31,32,24)         -0.0114         estimate D2E/DX2                !
 ! D154  D(23,31,32,50)       -178.9111         estimate D2E/DX2                !
 ! D155  D(49,31,32,24)        178.8911         estimate D2E/DX2                !
 ! D156  D(49,31,32,50)         -0.0085         estimate D2E/DX2                !
 --------------------------------------------------------------------------------
 Trust Radius=3.00D-01 FncErr=1.00D-07 GrdErr=1.00D-06
 Number of steps in this run=    300 maximum allowed number of steps=    300.
 GradGradGradGradGradGradGradGradGradGradGradGradGradGradGradGradGradGrad

 Leave Link  103 at Sat Jul 27 14:53:39 2019, MaxMem=  4194304000 cpu:         0.1
 (Enter /home/minenky/programs//g09/l202.exe)
                          Input orientation:                          
 ---------------------------------------------------------------------
 Center     Atomic      Atomic             Coordinates (Angstroms)
 Number     Number       Type             X           Y           Z
 ---------------------------------------------------------------------
      1          6           0        1.476700    5.413000    6.972400
      2          6           0        0.857500    6.196700    6.014700
      3          6           0        2.217900    4.257600    6.626900
      4          6           0        0.992200    5.872200    4.658200
      5          6           0        1.742600    4.770200    4.287600
      6          6           0        2.354300    3.926700    5.245700
      7          6           0        3.242400    2.837600    4.856000
      8          6           0        2.971100    3.501700    7.620900
      9          6           0        4.259500    2.482500    5.768900
     10          6           0        3.163000    2.156800    3.587200
     11          6           0        4.122600    2.819700    7.170200
     12          6           0        5.380000    1.688700    5.332600
     13          6           0        5.108500    2.359700    8.114700
     14          6           0        2.630700    3.463100    9.021400
     15          6           0        4.266100    1.339000    3.182500
     16          6           0        2.011800    2.161600    2.750400
     17          6           0        5.368200    1.172300    4.053100
     18          6           0        4.227200    0.673200    1.928000
     19          6           0        6.510200    1.470900    6.249300
     20          6           0        1.989200    1.479400    1.551700
     21          6           0        3.118500    0.750200    1.117300
     22          6           0        6.376600    1.801100    7.619200
     23          6           0        7.740300    0.955700    5.793400
     24          6           0        7.478800    1.601400    8.474600
     25          6           0        4.840400    2.478100    9.463200
     26          6           0        3.605000    2.969000    9.946400
     27          6           0        3.308000    2.940900   11.335400
     28          6           0        1.345900    3.791100    9.538800
     29          6           0        2.072800    3.323300   11.805200
     30          6           0        1.074100    3.723200   10.889400
     31          6           0        8.807900    0.753900    6.654200
     32          6           0        8.675700    1.080000    8.008700
     33          1           0        1.449600    5.733300    8.006300
     34          1           0        0.312500    7.087300    6.315200
     35          1           0        0.553100    6.508400    3.894600
     36          1           0        1.922000    4.590700    3.235000
     37          1           0        1.113900    2.668000    3.082400
     38          1           0        6.188600    0.555500    3.701900
     39          1           0        5.087900    0.078000    1.631800
     40          1           0        1.087100    1.489300    0.945900
     41          1           0        3.096400    0.228100    0.164700
     42          1           0        7.873400    0.733200    4.740500
     43          1           0        7.407500    1.884000    9.519100
     44          1           0        5.555400    2.125600   10.198900
     45          1           0        4.073800    2.585300   12.020800
     46          1           0        0.546600    4.049900    8.855400
     47          1           0        1.853700    3.287700   12.868800
     48          1           0        0.076900    3.962800   11.248500
     49          1           0        9.745900    0.361300    6.271700
     50          1           0        9.509800    0.943700    8.691500
 ---------------------------------------------------------------------
                    Distance matrix (angstroms):
                    1          2          3          4          5
     1  C    0.000000
     2  C    1.383757   0.000000
     3  C    1.415520   2.446546   0.000000
     4  C    2.408553   1.401262   2.825784   0.000000
     5  C    2.773454   2.408564   2.441515   1.383781   0.000000
     6  C    2.441467   2.825716   1.426819   2.446516   1.415495
     7  C    3.772205   4.279473   2.490399   3.783031   2.511458
     8  C    2.511345   3.782884   1.458332   4.279358   3.772160
     9  C    4.216660   5.042748   2.838182   4.837248   3.709799
    10  C    4.990594   5.246797   3.813968   4.434367   3.055807
    11  C    3.710137   4.837374   2.447573   5.042549   4.216424
    12  C    5.638715   6.421863   4.274732   6.099941   4.880404
    13  C    4.880314   6.099473   3.764458   6.420979   5.637951
    14  C    3.054869   4.433627   2.556416   5.246519   4.990601
    15  C    6.224273   6.575497   4.957544   5.783253   4.400276
    16  C    5.355672   5.316963   4.411683   4.295095   3.039777
    17  C    6.453652   7.031279   5.105675   6.450161   5.113203
    18  C    7.448283   7.652780   6.242185   6.704388   5.341007
    19  C    6.434217   7.371651   5.131483   7.235424   6.120756
    20  C    6.717131   6.591816   5.790367   5.471841   4.286645
    21  C    7.662859   7.665573   6.593074   6.579818   5.301349
    22  C    6.121535   7.235757   4.930906   7.371102   6.433434
    23  C    7.777548   8.653900   6.488002   8.426002   7.265690
    24  C    7.267056   8.426714   6.176282   8.653359   7.776648
    25  C    5.111966   6.448537   4.253084   7.029693   6.452668
    26  C    4.398576   5.781442   3.821468   6.574219   6.223735
    27  C    5.338605   6.701868   5.009190   7.651173   7.447704
    28  C    3.038762   4.294732   3.075251   5.317550   5.356408
    29  C    5.298881   6.577482   5.263911   7.664476   7.662693
    30  C    4.284904   5.470632   4.445533   6.591871   6.717653
    31  C    8.692235   9.656184   7.463562   9.553333   8.464628
    32  C    8.466074   9.554104   7.328690   9.655424   8.690917
    33  H    1.082717   2.128801   2.161185   3.382053   3.852550
    34  H    2.142558   1.086505   3.425625   2.164280   3.394893
    35  H    3.394966   2.164403   3.911921   1.086575   2.142592
    36  H    3.852613   3.382178   3.421038   2.128913   1.082761
    37  H    4.774804   4.595198   4.038456   3.572794   2.503401
    38  H    7.516214   8.098939   6.166655   7.495624   6.154158
    39  H    8.368094   8.633921   7.117372   7.714053   6.345159
    40  H    7.201799   6.921348   6.419965   5.744562   4.728736
    41  H    8.709271   8.652130   7.666072   7.514989   6.281859
    42  H    8.234056   8.983110   6.925647   8.588772   7.354536
    43  H    7.356216   8.589686   6.397714   8.982770   8.233458
    44  H    6.152487   7.493440   5.333246   8.096861   7.514973
    45  H    6.342488   7.711033   5.944334   8.631793   8.367238
    46  H    2.503760   3.574211   2.793313   4.597371   4.776405
    47  H    6.279057   7.512216   6.327295   8.650767   8.709027
    48  H    4.727320   5.743893   5.101958   6.922112   7.202818
    49  H    9.715468  10.635864   8.483991  10.469034   9.350287
    50  H    9.352040  10.470032   8.271415  10.635184   9.714208
                    6          7          8          9         10
     6  C    0.000000
     7  C    1.458330   0.000000
     8  C    2.490510   2.856450   0.000000
     9  C    2.447292   1.412082   2.475610   0.000000
    10  C    2.556788   1.442098   4.256327   2.463373   0.000000
    11  C    2.838315   2.476004   1.412164   1.447787   3.768044
    12  C    3.764446   2.473146   3.784982   1.440832   2.860180
    13  C    4.274607   3.785478   2.473152   2.497731   4.931977
    14  C    3.814083   4.256288   1.441791   3.767403   5.614294
    15  C    3.822037   2.468677   5.104282   2.827915   1.431576
    16  C    3.075615   2.530791   5.141779   3.777099   1.423207
    17  C    4.253541   2.817250   4.888905   2.426893   2.459514
    18  C    5.010005   3.771955   6.479762   4.245836   2.467090
    19  C    4.930484   3.806267   4.304726   2.513915   4.331395
    20  C    4.446146   3.785976   6.472172   4.893388   2.445391
    21  C    5.264774   4.283745   7.063235   5.093145   2.842694
    22  C    5.131333   4.304976   3.806504   2.893100   5.168246
    23  C    6.175420   4.965015   5.706763   3.801011   5.221268
    24  C    6.487936   5.706973   4.965813   4.296631   6.543797
    25  C    5.105530   4.889697   2.817110   3.739695   6.119173
    26  C    4.957622   5.104989   2.468511   4.256355   6.426076
    27  C    6.242259   6.480555   3.771672   5.665810   7.789123
    28  C    4.412025   5.141448   2.530488   4.941017   6.433843
    29  C    6.593207   7.063657   4.283356   6.474992   8.371665
    30  C    5.790654   6.472073   3.785599   6.156755   7.754949
    31  C    7.327993   6.208874   6.523277   4.945681   6.575676
    32  C    7.463107   6.522992   6.209467   5.146507   7.148358
    33  H    3.420994   4.639353   2.728284   4.844502   5.937637
    34  H    3.911799   5.364096   4.650756   6.089453   6.314837
    35  H    3.425634   4.650957   5.363980   5.784313   5.083551
    36  H    2.161179   2.728453   4.639251   4.040923   2.754632
    37  H    2.793347   2.775776   4.974156   4.140832   2.171396
    38  H    5.333870   3.901285   5.864381   3.421585   3.425138
    39  H    5.945194   4.627821   7.216085   4.856281   3.442418
    40  H    5.102450   4.663916   7.221830   5.857636   3.425111
    41  H    6.328263   5.370205   8.144144   6.151600   3.929100
    42  H    6.396416   5.088025   6.324068   4.144627   5.054167
    43  H    6.925995   6.324707   5.089377   4.932758   7.299153
    44  H    6.166457   5.865449   3.901069   4.629431   7.031296
    45  H    7.117444   7.217288   4.627619   6.255502   8.493455
    46  H    4.038922   4.973149   2.775376   5.076303   6.179264
    47  H    7.666197   8.144694   5.369808   7.539549   9.441467
    48  H    6.420394   7.221532   4.663527   7.050635   8.454654
    49  H    8.270460   7.101534   7.588173   5.903633   7.332457
    50  H    8.483691   7.588031   7.102404   6.202834   8.234522
                   11         12         13         14         15
    11  C    0.000000
    12  C    2.497397   0.000000
    13  C    1.440722   2.874723   0.000000
    14  C    2.463061   4.930963   2.859911   0.000000
    15  C    4.256150   2.446629   5.106668   6.424880   0.000000
    16  C    4.941984   4.270382   6.197137   6.434468   2.438288
    17  C    3.739219   1.379829   4.239570   6.117653   1.414340
    18  C    5.665604   3.735169   6.472730   7.787726   1.420765
    19  C    2.892741   1.471437   2.496887   5.167584   3.802452
    20  C    6.157543   5.082965   7.319695   7.755192   2.804192
    21  C    6.475233   4.874825   7.450785   8.370936   2.434897
    22  C    2.513894   2.496875   1.471609   4.331302   4.934780
    23  C    4.296257   2.514089   3.779685   6.543321   4.362772
    24  C    3.801288   3.779517   2.514532   5.221972   6.196500
    25  C    2.426886   4.239832   1.379981   2.459306   6.408944
    26  C    2.827983   5.106559   2.446811   1.431440   6.988869
    27  C    4.245840   6.472619   3.735305   2.466987   8.363840
    28  C    3.776764   6.195657   4.270144   1.423375   7.412349
    29  C    5.092987   7.450103   4.874812   2.842594   9.115863
    30  C    4.893068   7.318333   5.082763   2.445420   8.675804
    31  C    5.146438   3.790907   4.289197   7.148510   5.746563
    32  C    4.945741   4.288784   3.791277   6.576226   6.542466
    33  H    4.041418   6.241435   4.977999   2.753041   7.107151
    34  H    5.784488   7.469266   6.970654   5.082558   7.647726
    35  H    6.089121   6.971106   7.468107   6.314614   6.404385
    36  H    4.844056   4.977880   6.240402   5.937690   4.008879
    37  H    5.077932   4.921589   6.432412   6.180986   3.422371
    38  H    4.628613   2.144099   4.888206   7.029215   2.140013
    39  H    6.254806   4.046677   6.872741   8.491344   2.161052
    40  H    7.051676   6.141001   8.265649   8.455311   3.889860
    41  H    7.539662   5.835698   8.473179   9.440510   3.421902
    42  H    4.932081   2.735070   4.655685   7.298244   3.975798
    43  H    4.145291   4.655715   2.735696   5.055599   7.093512
    44  H    3.421654   4.889021   2.144391   3.424804   7.177110
    45  H    4.856505   6.873287   4.047112   3.442306   8.927810
    46  H    4.140177   6.430174   4.921010   2.171489   7.305166
    47  H    6.151502   8.472656   5.835784   3.928992  10.170620
    48  H    5.857209   8.263914   6.140654   3.425138   9.460131
    49  H    6.202623   4.658861   5.375475   8.234566   6.366103
    50  H    5.903868   5.375173   4.659313   7.333364   7.615887
                   16         17         18         19         20
    16  C    0.000000
    17  C    3.733787   0.000000
    18  C    2.792790   2.463135   0.000000
    19  C    5.740642   2.493315   4.951974   0.000000
    20  C    1.379416   4.215324   2.408361   6.519736   0.000000
    21  C    2.425665   3.722666   1.375638   6.193582   1.412712
    22  C    6.548790   3.758900   6.187232   1.415453   7.494486
    23  C    6.597708   2.949986   5.230965   1.409405   7.165294
    24  C    7.935262   4.918173   7.368340   2.430468   8.836127
    25  C    7.291285   5.590427   7.772575   3.759234   8.468682
    26  C    7.414351   6.408431   8.363765   4.934880   8.677598
    27  C    8.717205   7.772018   9.720420   6.187358   9.979780
    28  C    7.012921   7.289027   8.714784   6.547834   8.339758
    29  C    9.129221   8.693763  10.451007   7.347784  10.418312
    30  C    8.340336   8.466486   9.977536   7.493635   9.647004
    31  C    7.962930   4.332703   6.582271   2.440791   8.547311
    32  C    8.557286   5.157019   7.545167   2.817389   9.303851
    33  H    6.379467   7.196245   8.382446   6.845785   7.749109
    34  H    6.313315   8.103359   8.701326   8.364196   7.546575
    35  H    4.725640   7.189178   7.170501   8.149114   5.730829
    36  H    2.478594   4.922503   4.729588   6.314328   3.538107
    37  H    1.083000   4.612857   3.873565   6.370428   2.126491
    38  H    4.574994   1.084822   2.647199   2.725918   4.807485
    39  H    3.880083   2.671845   1.087567   5.028361   3.401805
    40  H    2.136183   5.299339   3.389803   7.585275   1.086681
    41  H    3.405969   4.601331   2.141506   7.086673   2.171500
    42  H    6.352887   2.634645   4.605272   2.163098   6.734172
    43  H    8.660597   5.877280   8.318963   3.415756   9.643710
    44  H    8.248548   6.222112   8.501845   4.115776   9.376003
    45  H    9.506402   8.194894  10.273474   6.363030  10.731758
    46  H    6.556181   7.388538   8.540362   7.000537   7.876078
    47  H   10.182098   9.723332  11.496531   8.294669  11.461460
    48  H    8.899768   9.357271  10.719990   8.519913  10.190785
    49  H    8.686595   4.974351   7.030011   3.420741   9.148494
    50  H    9.643648   6.222529   8.586266   3.903829  10.383792
                   21         22         23         24         25
    21  C    0.000000
    22  C    7.348082   0.000000
    23  C    6.577931   2.430622   0.000000
    24  C    8.594569   1.409409   2.770225   0.000000
    25  C    8.695092   2.493707   4.918796   2.950777   0.000000
    26  C    9.116620   3.802843   6.196894   4.363812   1.414453
    27  C   10.452016   4.952332   7.368858   5.232018   2.463243
    28  C    9.127478   5.740462   7.934473   6.598467   3.733794
    29  C   11.042895   6.193737   8.594639   6.578957   3.722759
    30  C   10.416921   6.519600   8.835525   7.166134   4.215369
    31  C    7.938926   2.817636   1.386171   2.408032   5.157946
    32  C    8.859042   2.440811   2.407899   1.386178   4.333564
    33  H    8.664573   6.315645   8.203371   7.324149   4.921017
    34  H    8.663177   8.149702   9.645777   9.279761   7.187246
    35  H    6.888508   8.363281   9.278672   9.644707   8.101455
    36  H    4.545955   6.844453   7.321970   8.201667   7.195180
    37  H    3.399705   7.002148   7.361431   8.409840   7.391717
    38  H    4.017907   4.114864   2.634825   5.053433   6.221464
    39  H    2.143618   6.362294   5.012434   7.406825   8.194667
    40  H    2.168463   8.521089   8.249125   9.876625   9.359989
    41  H    1.086519   8.294794   7.333313   9.494515   9.724512
    42  H    5.978038   3.415807   1.084352   3.853957   5.877726
    43  H    9.501119   2.163157   3.854003   1.084402   2.635542
    44  H    9.502929   2.726632   5.054788   2.635804   1.084775
    45  H   11.098040   5.029109   7.408058   5.013743   2.672169
    46  H    8.796640   6.369787   8.408284   7.361763   4.612667
    47  H   12.088688   7.086953   9.494818   7.334463   4.601515
    48  H   11.055014   7.584918   9.875650   8.249779   5.299298
    49  H    8.404851   3.903968   2.145813   3.395638   6.223379
    50  H    9.912349   3.420805   3.395623   2.145828   4.975259
                   26         27         28         29         30
    26  C    0.000000
    27  C    1.420676   0.000000
    28  C    2.438343   2.792928   0.000000
    29  C    2.434811   1.375740   2.425652   0.000000
    30  C    2.804197   2.408572   1.379350   1.412803   0.000000
    31  C    6.543349   7.546224   8.557274   8.859808   9.304049
    32  C    5.747608   6.583471   7.963494   7.940031   8.548056
    33  H    4.006381   4.725892   2.476177   4.541819   3.534652
    34  H    6.402075   7.167152   4.724875   6.885234   5.728919
    35  H    7.646289   8.699542   6.314210   8.662098   7.546920
    36  H    7.106707   8.382083   6.380372   8.664720   7.749925
    37  H    7.308261   8.544036   6.557460   8.799781   7.878089
    38  H    7.175915   8.500489   8.245620   9.500737   9.372971
    39  H    8.926895  10.272492   9.503174  11.095984  10.728524
    40  H    9.462470  10.722931   8.899617  11.057104  10.191353
    41  H   10.171178  11.497330  10.180028  12.088394  11.459695
    42  H    7.093619   8.319226   8.659255   9.500819   9.642591
    43  H    3.977288   4.606722   6.354558   5.979704   6.735899
    44  H    2.139893   2.647103   4.574878   4.017859   4.807407
    45  H    2.161049   1.087508   3.880170   2.143625   3.401923
    46  H    3.422344   3.873708   1.083002   3.399787   2.126534
    47  H    3.421848   2.141629   3.405903   1.086516   2.171511
    48  H    3.889806   3.389961   2.136098   2.168523   1.086632
    49  H    7.616703   8.587313   9.643520   9.913099  10.383913
    50  H    6.367360   7.031453   8.687627   8.406342   9.149722
                   31         32         33         34         35
    31  C    0.000000
    32  C    1.399460   0.000000
    33  H    8.987056   8.594750   0.000000
    34  H   10.601825  10.435454   2.446657   0.000000
    35  H   10.434145  10.600471   4.279085   2.500464   0.000000
    36  H    8.592298   8.984748   4.928894   4.279151   2.446739
    37  H    8.695928   9.163569   5.809781   5.533846   3.965203
    38  H    3.951730   5.000929   8.233808   9.166368   8.199574
    39  H    6.286473   7.385199   9.265738   9.688600   8.187473
    40  H    9.629966  10.374850   8.245738   7.795319   5.845627
    41  H    8.660907   9.663470   9.721619   9.624312   7.734513
    42  H    2.129781   3.383059   8.771069  10.001074   9.362440
    43  H    3.383179   2.129802   7.252741   9.363671  10.000144
    44  H    5.002521   3.953040   5.889023   8.196926   9.163850
    45  H    7.386889   6.288112   5.736945   8.183474   9.686133
    46  H    9.162858   8.695946   2.090506   3.966512   5.536587
    47  H    9.664486   8.662228   5.457853   7.730584   9.622928
    48  H   10.374729   9.630483   3.940918   5.844267   7.796582
    49  H    1.086409   2.163106  10.034730  11.585767  11.311278
    50  H    2.163164   1.086516   9.400882  11.312867  11.584412
                   36         37         38         39         40
    36  H    0.000000
    37  H    2.091193   0.000000
    38  H    5.891070   5.531638   0.000000
    39  H    5.740874   4.960344   2.392668   0.000000
    40  H    3.944074   2.440222   5.873059   4.297514   0.000000
    41  H    5.462439   4.289101   4.709636   2.478101   2.497636
    42  H    7.250241   7.223821   1.987163   4.225200   7.811821
    43  H    8.769655   9.036325   6.090193   8.417344  10.658471
    44  H    8.232510   8.406289   6.713953   8.820795  10.295076
    45  H    9.265104   9.416095   8.820236  10.735282  11.522804
    46  H    5.811462   5.963137   8.402473   9.411684   8.331207
    47  H    9.721758   9.833868  10.501825  12.125691  12.082113
    48  H    8.247111   8.332891  10.291440  11.518798  10.643415
    49  H    9.398020   9.487040   4.392718   6.580721  10.227969
    50  H   10.032383  10.243356   6.006428   8.375082  11.455735
                   41         42         43         44         45
    41  H    0.000000
    42  H    6.634214   0.000000
    43  H   10.432276   4.937248   0.000000
    44  H   10.503921   6.091472   1.987655   0.000000
    45  H   12.127605   8.418432   4.226568   2.392861   0.000000
    46  H    9.830356   9.034096   7.225204   5.531365   4.960439
    47  H   13.126295  10.432235   6.635929   4.709716   2.478167
    48  H   12.079569  10.656913   7.813445   5.872898   4.297576
    49  H    9.029343   2.447272   4.281628   6.007990   8.376816
    50  H   10.693461   4.281649   2.447193   4.393907   6.582491
                   46         47         48         49         50
    46  H    0.000000
    47  H    4.289154   0.000000
    48  H    2.440314   2.497629   0.000000
    49  H   10.242480  10.694502  11.455518   0.000000
    50  H    9.487586   9.031060  10.229018   2.500073   0.000000
 Stoichiometry    C32H18
 Framework group  C1[X(C32H18)]
 Deg. of freedom   144
 Full point group                 C1      NOp   1
 Largest Abelian subgroup         C1      NOp   1
 Largest concise Abelian subgroup C1      NOp   1
                         Standard orientation:                         
 ---------------------------------------------------------------------
 Center     Atomic      Atomic             Coordinates (Angstroms)
 Number     Number       Type             X           Y           Z
 ---------------------------------------------------------------------
      1          6           0        1.387938   -3.194489    1.077334
      2          6           0        0.702470   -4.278962    1.595827
      3          6           0        0.713937   -2.088389    0.506403
      4          6           0       -0.698790   -4.278507    1.598482
      5          6           0       -1.385512   -3.193943    1.081779
      6          6           0       -0.712881   -2.088352    0.508316
      7          6           0       -1.428151   -0.894242    0.073327
      8          6           0        1.428298   -0.893588    0.071812
      9          6           0       -0.723923    0.328631    0.124503
     10          6           0       -2.807248   -0.897937   -0.348248
     11          6           0        0.723864    0.329195    0.124563
     12          6           0       -1.437532    1.578869    0.063987
     13          6           0        1.437191    1.579540    0.065565
     14          6           0        2.807045   -0.896345   -0.349864
     15          6           0       -3.494216    0.354473   -0.442865
     16          6           0       -3.506735   -2.060727   -0.777382
     17          6           0       -2.795087    1.555913   -0.181871
     18          6           0       -4.859821    0.381737   -0.833956
     19          6           0       -0.708363    2.837193    0.287728
     20          6           0       -4.823705   -2.000874   -1.183334
     21          6           0       -5.521256   -0.772389   -1.184495
     22          6           0        0.707090    2.837690    0.288376
     23          6           0       -1.386416    4.050211    0.522786
     24          6           0        1.383808    4.051435    0.523556
     25          6           0        2.795338    1.556914   -0.177895
     26          6           0        3.494653    0.355840   -0.440687
     27          6           0        4.860598    0.383574   -0.830231
     28          6           0        3.506184   -2.058489   -0.781863
     29          6           0        5.521639   -0.769992   -1.183742
     30          6           0        4.823298   -1.998129   -1.187048
     31          6           0       -0.701677    5.236023    0.738317
     32          6           0        0.697782    5.236604    0.738576
     33          1           0        2.465787   -3.163007    1.174936
     34          1           0        1.252585   -5.102072    2.043439
     35          1           0       -1.247874   -5.101127    2.048424
     36          1           0       -2.463101   -3.162050    1.182553
     37          1           0       -2.982177   -3.006322   -0.837199
     38          1           0       -3.356601    2.481479   -0.251654
     39          1           0       -5.366896    1.343019   -0.874135
     40          1           0       -5.322081   -2.905107   -1.522246
     41          1           0       -6.562781   -0.737635   -1.491971
     42          1           0       -2.469922    4.061757    0.564031
     43          1           0        2.467325    4.064081    0.565478
     44          1           0        3.357349    2.482328   -0.244886
     45          1           0        5.368383    1.344552   -0.866970
     46          1           0        2.980955   -3.003510   -0.844811
     47          1           0        6.563513   -0.735065   -1.490003
     48          1           0        5.321332   -2.901550   -1.528458
     49          1           0       -1.252396    6.154052    0.923292
     50          1           0        1.247677    6.155235    0.923642
 ---------------------------------------------------------------------
 Rotational constants (GHZ):      0.1744684      0.1405114      0.0843345
 Leave Link  202 at Sat Jul 27 14:53:40 2019, MaxMem=  4194304000 cpu:         1.4
 (Enter /home/minenky/programs//g09/l301.exe)
 Standard basis: def2TZVP (5D, 7F)
 ======================================================================================================
                                       Pseudopotential Parameters
 ======================================================================================================
  Center     Atomic      Valence      Angular      Power
  Number     Number     Electrons     Momentum     of R      Exponent        Coefficient   SO-Coeffient
 ======================================================================================================
    1          6
                                   No pseudopotential on this center.
    2          6
                                   No pseudopotential on this center.
    3          6
                                   No pseudopotential on this center.
    4          6
                                   No pseudopotential on this center.
    5          6
                                   No pseudopotential on this center.
    6          6
                                   No pseudopotential on this center.
    7          6
                                   No pseudopotential on this center.
    8          6
                                   No pseudopotential on this center.
    9          6
                                   No pseudopotential on this center.
   10          6
                                   No pseudopotential on this center.
   11          6
                                   No pseudopotential on this center.
   12          6
                                   No pseudopotential on this center.
   13          6
                                   No pseudopotential on this center.
   14          6
                                   No pseudopotential on this center.
   15          6
                                   No pseudopotential on this center.
   16          6
                                   No pseudopotential on this center.
   17          6
                                   No pseudopotential on this center.
   18          6
                                   No pseudopotential on this center.
   19          6
                                   No pseudopotential on this center.
   20          6
                                   No pseudopotential on this center.
   21          6
                                   No pseudopotential on this center.
   22          6
                                   No pseudopotential on this center.
   23          6
                                   No pseudopotential on this center.
   24          6
                                   No pseudopotential on this center.
   25          6
                                   No pseudopotential on this center.
   26          6
                                   No pseudopotential on this center.
   27          6
                                   No pseudopotential on this center.
   28          6
                                   No pseudopotential on this center.
   29          6
                                   No pseudopotential on this center.
   30          6
                                   No pseudopotential on this center.
   31          6
                                   No pseudopotential on this center.
   32          6
                                   No pseudopotential on this center.
   33          1
                                   No pseudopotential on this center.
   34          1
                                   No pseudopotential on this center.
   35          1
                                   No pseudopotential on this center.
   36          1
                                   No pseudopotential on this center.
   37          1
                                   No pseudopotential on this center.
   38          1
                                   No pseudopotential on this center.
   39          1
                                   No pseudopotential on this center.
   40          1
                                   No pseudopotential on this center.
   41          1
                                   No pseudopotential on this center.
   42          1
                                   No pseudopotential on this center.
   43          1
                                   No pseudopotential on this center.
   44          1
                                   No pseudopotential on this center.
   45          1
                                   No pseudopotential on this center.
   46          1
                                   No pseudopotential on this center.
   47          1
                                   No pseudopotential on this center.
   48          1
                                   No pseudopotential on this center.
   49          1
                                   No pseudopotential on this center.
   50          1
                                   No pseudopotential on this center.
 ======================================================================================================
 Ernie: Thresh=  0.10000D-02 Tol=  0.10000D-05 Strict=F.
 AO basis set (Overlap normalization):
 Atom C1       Shell     1 S   6     bf    1 -     1          2.622823355667         -6.036709599541          2.035866630962
      0.1357534968D+05  0.6064550360D-03
      0.2035233368D+04  0.4697908888D-02
      0.4632256236D+03  0.2433247765D-01
      0.1312001960D+03  0.9739996831D-01
      0.4285301589D+02  0.3019558425D+00
      0.1558418577D+02  0.6623360914D+00
 Atom C1       Shell     2 S   2     bf    2 -     2          2.622823355667         -6.036709599541          2.035866630962
      0.6206713851D+01  0.6559530854D+00
      0.2576489653D+01  0.3758563329D+00
 Atom C1       Shell     3 S   1     bf    3 -     3          2.622823355667         -6.036709599541          2.035866630962
      0.5769633942D+00  0.1000000000D+01
 Atom C1       Shell     4 S   1     bf    4 -     4          2.622823355667         -6.036709599541          2.035866630962
      0.2297283136D+00  0.1000000000D+01
 Atom C1       Shell     5 S   1     bf    5 -     5          2.622823355667         -6.036709599541          2.035866630962
      0.9516444003D-01  0.1000000000D+01
 Atom C1       Shell     6 P   4     bf    6 -     8          2.622823355667         -6.036709599541          2.035866630962
      0.3469723224D+02  0.1132722000D-01
      0.7958262283D+01  0.7616965920D-01
      0.2378082688D+01  0.3019225220D+00
      0.8143320818D+00  0.7278502735D+00
 Atom C1       Shell     7 P   1     bf    9 -    11          2.622823355667         -6.036709599541          2.035866630962
      0.2888754725D+00  0.1000000000D+01
 Atom C1       Shell     8 P   1     bf   12 -    14          2.622823355667         -6.036709599541          2.035866630962
      0.1005682367D+00  0.1000000000D+01
 Atom C1       Shell     9 D   1     bf   15 -    19          2.622823355667         -6.036709599541          2.035866630962
      0.1097000000D+01  0.1000000000D+01
 Atom C1       Shell    10 D   1     bf   20 -    24          2.622823355667         -6.036709599541          2.035866630962
      0.3180000000D+00  0.1000000000D+01
 Atom C1       Shell    11 F   1     bf   25 -    31          2.622823355667         -6.036709599541          2.035866630962
      0.7610000000D+00  0.1000000000D+01
 Atom C2       Shell    12 S   6     bf   32 -    32          1.327475611198         -8.086066699990          3.015675893256
      0.1357534968D+05  0.6064550360D-03
      0.2035233368D+04  0.4697908888D-02
      0.4632256236D+03  0.2433247765D-01
      0.1312001960D+03  0.9739996831D-01
      0.4285301589D+02  0.3019558425D+00
      0.1558418577D+02  0.6623360914D+00
 Atom C2       Shell    13 S   2     bf   33 -    33          1.327475611198         -8.086066699990          3.015675893256
      0.6206713851D+01  0.6559530854D+00
      0.2576489653D+01  0.3758563329D+00
 Atom C2       Shell    14 S   1     bf   34 -    34          1.327475611198         -8.086066699990          3.015675893256
      0.5769633942D+00  0.1000000000D+01
 Atom C2       Shell    15 S   1     bf   35 -    35          1.327475611198         -8.086066699990          3.015675893256
      0.2297283136D+00  0.1000000000D+01
 Atom C2       Shell    16 S   1     bf   36 -    36          1.327475611198         -8.086066699990          3.015675893256
      0.9516444003D-01  0.1000000000D+01
 Atom C2       Shell    17 P   4     bf   37 -    39          1.327475611198         -8.086066699990          3.015675893256
      0.3469723224D+02  0.1132722000D-01
      0.7958262283D+01  0.7616965920D-01
      0.2378082688D+01  0.3019225220D+00
      0.8143320818D+00  0.7278502735D+00
 Atom C2       Shell    18 P   1     bf   40 -    42          1.327475611198         -8.086066699990          3.015675893256
      0.2888754725D+00  0.1000000000D+01
 Atom C2       Shell    19 P   1     bf   43 -    45          1.327475611198         -8.086066699990          3.015675893256
      0.1005682367D+00  0.1000000000D+01
 Atom C2       Shell    20 D   1     bf   46 -    50          1.327475611198         -8.086066699990          3.015675893256
      0.1097000000D+01  0.1000000000D+01
 Atom C2       Shell    21 D   1     bf   51 -    55          1.327475611198         -8.086066699990          3.015675893256
      0.3180000000D+00  0.1000000000D+01
 Atom C2       Shell    22 F   1     bf   56 -    62          1.327475611198         -8.086066699990          3.015675893256
      0.7610000000D+00  0.1000000000D+01
 Atom C3       Shell    23 S   6     bf   63 -    63          1.349145845536         -3.946483650986          0.956963257200
      0.1357534968D+05  0.6064550360D-03
      0.2035233368D+04  0.4697908888D-02
      0.4632256236D+03  0.2433247765D-01
      0.1312001960D+03  0.9739996831D-01
      0.4285301589D+02  0.3019558425D+00
      0.1558418577D+02  0.6623360914D+00
 Atom C3       Shell    24 S   2     bf   64 -    64          1.349145845536         -3.946483650986          0.956963257200
      0.6206713851D+01  0.6559530854D+00
      0.2576489653D+01  0.3758563329D+00
 Atom C3       Shell    25 S   1     bf   65 -    65          1.349145845536         -3.946483650986          0.956963257200
      0.5769633942D+00  0.1000000000D+01
 Atom C3       Shell    26 S   1     bf   66 -    66          1.349145845536         -3.946483650986          0.956963257200
      0.2297283136D+00  0.1000000000D+01
 Atom C3       Shell    27 S   1     bf   67 -    67          1.349145845536         -3.946483650986          0.956963257200
      0.9516444003D-01  0.1000000000D+01
 Atom C3       Shell    28 P   4     bf   68 -    70          1.349145845536         -3.946483650986          0.956963257200
      0.3469723224D+02  0.1132722000D-01
      0.7958262283D+01  0.7616965920D-01
      0.2378082688D+01  0.3019225220D+00
      0.8143320818D+00  0.7278502735D+00
 Atom C3       Shell    29 P   1     bf   71 -    73          1.349145845536         -3.946483650986          0.956963257200
      0.2888754725D+00  0.1000000000D+01
 Atom C3       Shell    30 P   1     bf   74 -    76          1.349145845536         -3.946483650986          0.956963257200
      0.1005682367D+00  0.1000000000D+01
 Atom C3       Shell    31 D   1     bf   77 -    81          1.349145845536         -3.946483650986          0.956963257200
      0.1097000000D+01  0.1000000000D+01
 Atom C3       Shell    32 D   1     bf   82 -    86          1.349145845536         -3.946483650986          0.956963257200
      0.3180000000D+00  0.1000000000D+01
 Atom C3       Shell    33 F   1     bf   87 -    93          1.349145845536         -3.946483650986          0.956963257200
      0.7610000000D+00  0.1000000000D+01
 Atom C4       Shell    34 S   6     bf   94 -    94         -1.320521856904         -8.085207195789          3.020694137057
      0.1357534968D+05  0.6064550360D-03
      0.2035233368D+04  0.4697908888D-02
      0.4632256236D+03  0.2433247765D-01
      0.1312001960D+03  0.9739996831D-01
      0.4285301589D+02  0.3019558425D+00
      0.1558418577D+02  0.6623360914D+00
 Atom C4       Shell    35 S   2     bf   95 -    95         -1.320521856904         -8.085207195789          3.020694137057
      0.6206713851D+01  0.6559530854D+00
      0.2576489653D+01  0.3758563329D+00
 Atom C4       Shell    36 S   1     bf   96 -    96         -1.320521856904         -8.085207195789          3.020694137057
      0.5769633942D+00  0.1000000000D+01
 Atom C4       Shell    37 S   1     bf   97 -    97         -1.320521856904         -8.085207195789          3.020694137057
      0.2297283136D+00  0.1000000000D+01
 Atom C4       Shell    38 S   1     bf   98 -    98         -1.320521856904         -8.085207195789          3.020694137057
      0.9516444003D-01  0.1000000000D+01
 Atom C4       Shell    39 P   4     bf   99 -   101         -1.320521856904         -8.085207195789          3.020694137057
      0.3469723224D+02  0.1132722000D-01
      0.7958262283D+01  0.7616965920D-01
      0.2378082688D+01  0.3019225220D+00
      0.8143320818D+00  0.7278502735D+00
 Atom C4       Shell    40 P   1     bf  102 -   104         -1.320521856904         -8.085207195789          3.020694137057
      0.2888754725D+00  0.1000000000D+01
 Atom C4       Shell    41 P   1     bf  105 -   107         -1.320521856904         -8.085207195789          3.020694137057
      0.1005682367D+00  0.1000000000D+01
 Atom C4       Shell    42 D   1     bf  108 -   112         -1.320521856904         -8.085207195789          3.020694137057
      0.1097000000D+01  0.1000000000D+01
 Atom C4       Shell    43 D   1     bf  113 -   117         -1.320521856904         -8.085207195789          3.020694137057
      0.3180000000D+00  0.1000000000D+01
 Atom C4       Shell    44 F   1     bf  118 -   124         -1.320521856904         -8.085207195789          3.020694137057
      0.7610000000D+00  0.1000000000D+01
 Atom C5       Shell    45 S   6     bf  125 -   125         -2.618237838436         -6.035678334677          2.044265473205
      0.1357534968D+05  0.6064550360D-03
      0.2035233368D+04  0.4697908888D-02
      0.4632256236D+03  0.2433247765D-01
      0.1312001960D+03  0.9739996831D-01
      0.4285301589D+02  0.3019558425D+00
      0.1558418577D+02  0.6623360914D+00
 Atom C5       Shell    46 S   2     bf  126 -   126         -2.618237838436         -6.035678334677          2.044265473205
      0.6206713851D+01  0.6559530854D+00
      0.2576489653D+01  0.3758563329D+00
[...]
 275,-0.00000612,-0.00001960,-0.00003180,-0.00001189,-0.00001737,-0.000
 00990,0.00001058,0.00001694,0.00002125,-0.00001206,-0.00000194,0.00000
 335,0.00006586,-0.00000012,0.00001361,-0.00001076,0.00000346,0.0000041
 5,-0.00001297,0.00000936,-0.00068784,-0.00055607,0.00028708,-0.0000290
 3,-0.00095318,-0.00042314,0.00201758,0.00502191,0.00236921,-0.00301211
 ,0.00404512,0.00282980,0.00858069,0.00023738,-0.00330210,0.06124012,-0
 .05128534,-0.01899665,-0.00000533,-0.00000279,-0.00000971,-0.00000343,
 0.00000660,0.00000512,0.00003281,0.00005054,0.00009052,-0.00001597,-0.
 00002147,0.00001001,0.00000491,0.00000770,0.00000050,-0.00000093,-0.00
 000276,-0.00000254,0.00000244,0.00000404,-0.00000028,0.00000829,0.0000
 1042,-0.00000923,0.00000131,0.00000042,-0.00000126,-0.00000088,0.00000
 153,-0.00000219,0.00000085,0.00000030,-0.00000158,0.00000007,0.0000000
 8,-0.00000066,-0.00000128,0.00000052,0.00000028,-0.00001069,0.00004317
 ,0.00000228,0.00030192,-0.00001865,-0.00012617,-0.00143738,-0.00469569
 ,-0.00086884,-0.00101407,-0.00241863,-0.00024692,-0.06870178,0.0426597
 4,-0.00001287,-0.00007215,-0.00001863,-0.00004925,0.00001341,-0.000032
 00,0.00002184,0.00000009,0.00004290,-0.00002273,0.00003639,0.00001218,
 0.00002645,-0.00002770,0.00000916,-0.00007201,0.00005899,0.00001024,0.
 00004415,-0.00004639,-0.00003922,0.00117709,-0.00044745,0.00067027,0.0
 0012082,-0.00012472,0.00001312,0.00000112,0.00003553,0.00005282,0.0002
 6309,-0.00014372,-0.00037092,-0.00001892,0.00001405,-0.00000758,-0.000
 14610,0.00011832,-0.00041875,0.00070676,0.00188421,-0.00564867,0.00003
 692,-0.00001398,0.00002123,-0.00000378,-0.00001304,-0.00002402,-0.0000
 0611,-0.00001650,-0.00005166,-0.00001571,-0.00000243,-0.00001508,-0.00
 003029,-0.00000060,-0.00002603,-0.00000974,0.00001076,0.00001292,0.000
 01756,-0.00001226,-0.00000690,-0.00003470,0.00002050,0.00002702,0.0000
 1497,-0.00000555,0.00000600,0.00001884,-0.00001242,-0.00000424,-0.0003
 2061,0.00002214,0.00048118,-0.00014239,-0.00006332,-0.00124938,-0.0030
 8946,0.00205903,-0.00226245,0.03001582,-0.00705026,-0.00547805,-0.0199
 1371,0.00438327,0.01107685,0.08394793,-0.01712095,-0.08952748,-0.00000
 108,-0.00000301,-0.00001316,-0.00000452,0.00000583,0.00001039,0.000077
 10,-0.00001352,0.00003150,-0.00000336,0.00002241,-0.00001326,0.0000028
 5,0.00000561,-0.00000155,-0.00000307,0.00000343,-0.00000547,-0.0000005
 6,0.00000250,-0.00000086,0.00000197,-0.00000227,-0.00000859,0.00000112
 ,-0.00000046,-0.00000079,-0.00000185,-0.00000037,-0.00000327,0.0000000
 9,-0.00000032,-0.00000141,0.00000009,-0.00000041,-0.00000131,-0.000001
 06,0.00000070,-0.00000015,0.00007449,-0.00002538,-0.00001041,-0.000955
 69,0.00045923,0.00036577,-0.00037193,-0.00062886,0.00071207,0.00045115
 ,-0.00058563,0.00070626,-0.09179526,0.01727780,0.09097936,-0.00000109,
 0.00000194,-0.00000701,-0.00000386,0.00000576,0.00000184,-0.00000235,-
 0.00000478,0.00000979,-0.00000207,0.00000334,-0.00000483,-0.00000743,0
 .00001835,0.00001368,-0.00000652,-0.00000836,-0.00004563,-0.00006384,0
 .00005966,0.00007060,0.00000416,0.00001906,0.00001436,-0.00023254,-0.0
 0011112,-0.00032645,-0.00001035,0.00002780,-0.00000850,0.00002956,-0.0
 0000959,-0.00002645,-0.00056284,0.00046847,0.00089471,-0.00008926,-0.0
 0026872,0.00009243,-0.00000948,0.00000872,-0.00001677,0.00003836,-0.00
 003223,0.00000510,0.00002010,-0.00001391,-0.00000384,-0.00003903,0.000
 06287,-0.00002683,-0.00004475,0.00002597,-0.00000004,-0.00099099,0.002
 18962,-0.00417997,-0.00002443,-0.00000007,-0.00002122,-0.00000309,-0.0
 0000626,-0.00000655,0.00019938,-0.00054584,-0.00066891,-0.01642581,0.0
 0841030,0.01129077,0.00227424,0.00159315,-0.00003319,-0.00004727,0.000
 02768,0.00000831,0.00001886,-0.00002931,-0.00000003,-0.00001391,0.0000
 0570,0.00000051,0.00000520,-0.00000162,0.00000795,-0.00000126,-0.00000
 287,0.00000709,-0.00000683,0.00000223,0.00000364,-0.26999977,0.0931472
 4,0.08507109,0.00134156,0.00002004,-0.00144759,0.00000016,0.00000025,0
 .00000236,-0.00000195,0.00000326,0.00000103,-0.00000313,0.00000362,-0.
 00000209,0.00000134,-0.00000392,-0.00000058,-0.00000473,0.00000102,0.0
 0000031,-0.00001611,0.00000470,-0.00000424,0.00000765,-0.00000419,-0.0
 0000348,-0.00000249,-0.00000037,-0.00000372,-0.00000484,-0.00000243,-0
 .00000909,0.00032662,-0.00159451,-0.00002700,-0.00009012,-0.00001622,-
 0.00011685,0.00002195,0.00003084,-0.00000511,0.00000389,0.00000005,0.0
 0000010,-0.00000029,0.00000114,-0.00000237,-0.00000179,0.00000048,0.00
 000408,-0.00000323,0.00000114,0.00000157,0.28414549,-0.00000256,-0.000
 00055,0.00000379,0.00000268,-0.00000422,-0.00000016,0.00000281,-0.0000
 0273,-0.00000832,0.,-0.00000425,0.00000126,0.00000357,-0.00000587,-0.0
 0000646,-0.00000080,0.00000095,0.00001622,0.00001575,-0.00002345,0.000
 00270,0.00001882,0.00003335,0.00001725,-0.00007114,-0.00019879,0.00011
 278,0.00001714,-0.00001375,-0.00002072,0.00008059,0.00006285,0.0000703
 9,0.00002955,0.00009507,-0.00032200,-0.00049306,-0.00076961,0.00028947
 ,-0.00001228,-0.00000418,-0.00000196,-0.00005388,0.00000062,-0.0000101
 8,-0.00000227,0.00000380,0.00000973,0.00004670,0.00002298,-0.00003411,
 0.00001313,-0.00000091,0.00001780,0.00266862,0.00726560,-0.00049594,0.
 00001348,-0.00000764,0.00000174,-0.00000993,-0.00000054,-0.00000148,-0
 .00033692,-0.00088577,0.00027574,0.00240101,0.00165671,-0.00219500,0.0
 0125738,0.00629667,-0.00262837,-0.00006783,0.00005081,-0.00011756,0.00
 001320,-0.00003587,0.00000764,0.00000099,0.00000235,0.00000363,0.00001
 044,0.00000448,0.00000239,-0.00000283,-0.00000566,-0.00000807,-0.00000
 717,0.00000082,0.00000437,0.09308966,-0.07477198,-0.03868809,0.0061838
 2,0.00008802,-0.00145662,0.00000133,-0.00000015,-0.00000156,0.00000228
 ,-0.00000107,-0.00000046,0.00000238,-0.00000120,0.00000095,0.00000066,
 0.00000369,0.00000036,0.00000259,0.00000103,-0.00000022,-0.00001305,0.
 00004634,-0.00002893,0.00000146,0.00000550,-0.00000390,0.00000214,0.00
 000178,-0.00000010,0.00000098,0.00000255,0.00000116,-0.00146866,-0.003
 85399,0.00091040,0.00028520,-0.00014330,-0.00007944,0.00003756,0.00007
 381,0.00004129,-0.00000025,0.00000328,0.00000259,0.00000108,0.00000142
 ,-0.00000044,0.00000070,0.00000095,-0.00000066,0.00000170,0.00000037,-
 0.00000024,-0.10242919,0.06790477,0.00000170,-0.00000339,0.00000539,-0
 .00000116,0.00000303,0.00000196,-0.00000411,-0.00000056,-0.00000740,0.
 00000239,-0.00000106,0.00000025,-0.00000504,0.00000854,0.00000617,-0.0
 0000444,0.00000075,-0.00002828,-0.00005788,0.00006701,0.00003037,0.000
 00041,0.00000346,0.00002957,-0.00014211,0.00004501,-0.00020093,0.00000
 125,0.00001312,0.00003418,0.00002330,-0.00006095,-0.00012238,-0.000585
 45,0.00033133,0.00077454,0.00022177,0.00011584,0.00002035,0.00001899,-
 0.00001017,-0.00001928,0.00004635,-0.00002890,-0.00000669,-0.00000128,
 -0.00000508,-0.00001110,0.00003217,0.00001488,-0.00000240,-0.00002183,
 0.00000675,-0.00001343,-0.00389749,-0.00065763,-0.00171940,-0.00000924
 ,0.00000823,0.00000639,0.00001631,-0.00000782,-0.00000260,-0.00083806,
 0.00029205,-0.00119963,-0.01837667,0.00743385,0.01075340,-0.00059278,-
 0.00247621,-0.00534822,0.00002998,0.00002793,-0.00003129,0.00001059,-0
 .00000192,0.00006596,-0.00000269,0.00000301,0.00000302,-0.00000588,-0.
 00000322,0.00001263,0.00000882,-0.00000159,0.00000078,0.00000125,0.000
 00132,-0.00000946,0.08547374,-0.03940267,-0.09549550,0.02819576,-0.010
 49339,-0.00458369,-0.00000119,0.00000286,0.,0.00000062,-0.00000113,0.0
 0000005,-0.00000096,0.00000039,0.00000114,-0.00000016,-0.00000092,0.00
 000072,-0.00000028,-0.00000099,-0.00000010,-0.00000135,-0.00003096,-0.
 00001363,-0.00000097,-0.00000540,-0.00000242,0.00000094,-0.00000094,0.
 00000033,-0.00000161,-0.00000012,-0.00000039,0.00055885,0.00083871,0.0
 0074628,0.00128046,-0.00056906,-0.00042318,-0.00002416,-0.00003174,0.0
 0008396,-0.00000391,-0.00000103,0.00000630,0.00000398,-0.00000140,-0.0
 0000042,0.00000174,-0.00000065,-0.00000241,0.00000233,-0.00000077,-0.0
 0000038,-0.09114316,0.04364771,0.09592914,-0.00000445,0.00001044,-0.00
 002267,-0.00000229,0.00000461,0.00000246,-0.00001652,0.00001474,0.0000
 4534,-0.00000316,0.00000423,-0.00000532,-0.00000186,0.00000366,0.00000
 428,-0.00000165,-0.00000807,-0.00000522,0.00000954,0.00000964,-0.00002
 619,-0.00005447,0.00002524,-0.00011033,0.00002710,0.00000617,0.0000543
 7,-0.00000965,0.00001458,0.00001345,-0.00032240,0.00004979,0.00031010,
 -0.00006006,-0.00029800,0.00001840,-0.00043927,-0.00001478,-0.00123669
 ,-0.00000828,0.00002689,-0.00001219,0.00002159,-0.00003205,0.00000688,
 0.00000620,-0.00000619,-0.00000721,-0.00004212,0.00003010,-0.00002121,
 -0.00001336,0.00000440,-0.00000647,-0.00015476,-0.00007394,0.00099552,
 -0.00000619,0.00000098,-0.00000413,0.00000134,-0.00000603,-0.00000433,
 -0.00225264,0.00402879,0.00253294,0.00199534,0.00184301,0.00076016,-0.
 01624200,0.00194350,-0.01925113,-0.00003212,0.00006980,-0.00001038,0.0
 0004199,-0.00003249,0.00002177,-0.00004565,0.00002249,-0.00001922,0.00
 001744,-0.00000958,0.00001475,-0.00000208,-0.00000366,0.00000943,-0.00
 002818,0.00000871,0.00001201,0.00612827,-0.00034713,0.00412836,-0.2256
 0804,0.03234076,-0.13768236,0.00000104,-0.00000319,0.00000235,-0.00000
 326,0.00000386,-0.00000061,-0.00000136,0.00000210,-0.00000252,0.000000
 45,-0.00000034,-0.00000231,0.00000008,0.00000194,0.00000179,0.00002191
 ,0.00002005,-0.00001971,0.00000329,-0.00000047,-0.00000063,-0.00000231
 ,0.00000011,-0.00000222,-0.00000071,-0.00000130,-0.00000353,0.00011450
 ,-0.00001754,0.00025728,0.00030978,-0.00146254,0.00064759,-0.00001776,
 0.00000372,0.00000344,0.00000632,-0.00000219,0.00000707,-0.00000441,0.
 00000045,-0.00000148,-0.00000666,0.00000177,0.00000793,-0.00000281,0.0
 0000112,0.00000295,0.00027893,-0.00123759,-0.00020983,0.23640538,0.000
 00322,-0.00000357,0.00001161,-0.00000113,-0.00000323,0.00000051,0.0000
 0561,-0.00001119,-0.00002189,0.00000230,-0.00000379,0.00000353,-0.0000
 0287,0.00000058,-0.00000163,0.00000340,-0.00000030,0.00000505,0.000018
 25,0.00002540,-0.00001234,0.00003301,-0.00003790,0.00003584,0.00008659
 ,0.00002419,-0.00012797,-0.00001837,-0.00000257,-0.00000963,0.00001403
 ,-0.00026056,-0.00006489,-0.00052046,-0.00080683,0.00001760,0.00014934
 ,0.00024159,0.00058983,0.00000698,0.00000097,0.00004018,0.00000205,-0.
 00001821,0.00003607,0.00001162,0.00000678,0.00000262,-0.00008977,0.000
 06762,0.00004966,0.00000185,0.00000009,-0.00000183,0.00018184,-0.00118
 042,-0.00021937,-0.00000559,-0.00000387,-0.00000870,-0.00000796,-0.000
 00100,0.00000713,0.00434952,0.00623858,-0.00247705,0.00177408,0.006098
 10,-0.00285115,0.00830424,0.00193110,0.00796600,0.00002009,0.00002963,
 0.00002385,-0.00006657,0.00001051,-0.00001272,0.00002312,-0.00001143,-
 0.00001434,0.00000215,-0.00000161,-0.00001419,-0.00001601,0.00000194,-
 0.00000386,0.00001395,-0.00000769,0.00000950,-0.00667060,0.00365597,-0
 .00409295,0.03223994,-0.04404382,0.01539811,0.00000086,0.00000319,-0.0
 0000144,0.00000237,-0.00000097,0.00000072,0.00000156,-0.00000002,0.000
 00078,0.00000140,-0.00000060,0.00000207,-0.00000080,0.00000183,-0.0000
 0076,0.00004789,0.00007521,-0.00002732,0.00000173,0.00000334,-0.000000
 76,0.00000035,0.00000065,-0.00000030,-0.00000006,0.00000072,-0.0000011
 6,-0.00029445,0.00004800,-0.00021801,-0.00160359,-0.00374486,0.0010536
 1,-0.00001271,0.00005788,-0.00000984,0.00000189,0.00000761,-0.00000062
 ,0.00000222,0.00000142,-0.00000011,0.00000161,0.00000168,-0.00000146,0
 .00000137,0.00000202,-0.00000029,-0.00105891,-0.00289509,0.00093389,-0
 .03694058,0.03450294,0.00000135,-0.00000124,0.00000089,-0.00000258,0.0
 0000373,-0.00000055,0.00000453,-0.00000627,-0.00000615,-0.00000111,0.0
 0000082,0.00000084,-0.00000178,0.00000663,0.00000503,0.00000409,-0.000
 00458,-0.00001053,-0.00001425,0.00000062,0.00003214,0.00002684,-0.0000
 2494,0.00003545,-0.00003643,-0.00001333,-0.00008127,-0.00000933,0.0000
 0386,-0.00002072,0.00012475,0.00000246,-0.00004930,-0.00000343,0.00023
 495,0.00002837,0.00030959,-0.00003661,0.00050444,-0.00001458,0.0000093
 3,0.00001739,-0.00002218,0.00003814,0.00004557,-0.00000057,0.00000530,
 0.00000934,0.00000895,-0.00007474,-0.00005325,-0.00000151,-0.00000050,
 0.00000473,0.00105285,-0.00028116,-0.00055084,0.00000209,-0.00000409,-
 0.00000541,-0.00000561,0.00000084,-0.00000648,0.00205802,-0.00239361,0
 .00056926,0.00141714,-0.00296371,-0.00487075,0.01033175,-0.00169723,0.
 01029521,-0.00005353,-0.00001869,-0.00001596,-0.00000608,0.00001146,-0
 .00002021,0.00000551,-0.00000210,-0.00000200,0.00000657,-0.00000167,-0
 .00000304,-0.00000958,0.00000404,-0.00000609,-0.00000449,0.00000117,0.
 00001020,-0.02547656,0.00495945,-0.01293836,-0.13804689,0.01612819,-0.
 17061539,-0.00000015,-0.00000100,0.00000152,-0.00000109,0.00000155,0.0
 0000104,-0.00000173,0.00000159,-0.00000159,0.00000057,-0.00000262,0.00
 000016,-0.00000389,0.00000047,-0.00000121,-0.00000898,0.00004234,0.000
 08261,0.00000292,0.00000268,0.00000684,-0.00000316,0.00000016,-0.00000
 158,-0.00000154,-0.00000132,-0.00000325,-0.00114593,0.00026921,-0.0008
 1911,0.00006539,0.00112679,0.00065399,0.00000878,-0.00000446,-0.000023
 53,0.00000222,-0.00000008,-0.00000319,-0.00000168,0.00000034,-0.000000
 81,-0.00000033,-0.00000049,0.00000230,-0.00000238,0.00000028,0.0000004
 2,0.00064019,0.00066962,0.00073176,0.14880724,-0.01599159,0.17707108\\
 0.00000008,0.00000017,-0.00000033,0.00000018,0.00000016,0.00000023,0.0
 0000013,-0.00000007,0.00000014,0.00000020,0.00000007,-0.00000020,0.,0.
 00000031,0.00000025,0.00000017,-0.00000012,-0.00000002,0.00000025,0.00
 000009,0.00000011,0.00000033,0.,-0.00000008,0.00000018,-0.00000015,0.0
 0000057,0.00000005,0.00000021,0.00000024,0.00000017,-0.00000037,-0.000
 00032,-0.00000023,0.00000016,0.00000005,-0.00000021,0.00000020,-0.0000
 0015,0.00000011,0.00000009,-0.00000025,0.00000016,-0.00000013,-0.00000
 001,0.00000003,-0.00000003,-0.00000014,-0.00000019,-0.00000003,0.00000
 031,-0.00000023,0.00000002,-0.00000010,-0.00000019,0.00000003,0.000000
 34,-0.00000003,0.00000011,-0.00000010,0.,0.00000004,0.,-0.00000012,-0.
 00000021,-0.00000037,-0.00000031,-0.00000008,0.00000009,-0.00000023,-0
 .00000014,-0.00000009,-0.00000019,-0.00000020,-0.00000028,0.00000007,-
 0.00000007,0.00000004,-0.00000024,0.00000002,0.00000001,0.00000006,0.0
 0000003,0.00000006,0.,0.00000004,-0.00000003,-0.00000003,0.00000016,0.
 00000002,-0.00000015,-0.00000026,-0.00000025,-0.00000019,-0.00000012,0
 .00000030,0.00000012,0.00000009,0.00000002,0.00000022,0.00000017,0.,0.
 00000023,0.00000016,-0.00000007,0.00000015,0.00000004,-0.00000015,-0.0
 0000004,0.00000019,-0.00000004,-0.00000003,-0.00000010,0.00000005,-0.0
 0000007,-0.00000004,0.,0.,0.00000018,0.00000002,0.,0.00000007,-0.00000
 002,-0.00000004,-0.00000018,0.00000002,-0.00000003,-0.00000018,0.00000
 003,-0.00000006,-0.00000012,0.,-0.00000007,-0.00000005,0.00000002,0.,0
 .00000018,0.,0.,0.00000007,0.,0.,0.00000016,-0.00000009,0.,-0.00000030
 ,0.00000004,0.00000001,-0.00000029,0.00000010\\\@


                                                                                    A
                                                                                  AA
                                                                                 AAA
                                                                                AAAA
                                                                               AAAAA
                                                                              AAAAAA   KKKKKKKK
                                                                             AAAAAAA   KKKKKKKK
                                                                            AAAAAAAA   KKKKKKKK
                                       ZZZZZZZZZZZZZZZZZZZZ                AAAA  AAA   KKKKKKKK
                                       ZZZZZZZZZZZZZZZZZZZ                AAAA   AAA   KKKKKKKK          K
                                       ZZZZZZZZZZZZZZZZZZ                AAAA    AAA   KKKKKKKK         KKK
                                       ZZZZZZZZZZZZZZZZZ                AAAA     AAA   KKKKKKKK        KKKKK
                                       ZZZZZZZZZZZZZZZZ                AAAA      AAA   KKKKKKKK       KKKKKKK
                                                ZZZZZZ                AAAA       AAA   KKKKKKKK      KKKKKKK
                                               ZZZZZZ                AAAA        AAA   KKKKKKKK     KKKKKKK
                                              ZZZZZZ                AAAA         AAA   KKKKKKKK    KKKKKKK
                                             ZZZZZZ                AAAA          AAA   KKKKKKKK   KKKKKKK
                                            ZZZZZZ                AAAAAAAAAAAAAAAAAA   KKKKKKKK  KKKKKKK
                                           ZZZZZZ                AAAAAAAAAAAAAAAAAAA   KKKKKKKK KKKKKKK
                                          ZZZZZZ                AAAAAAAAAAAAAAAAAAAA   KKKKKKKKKKKKKKK
                                         ZZZZZZ                AAAAAAAAAAAAAAAAAAAAA   KKKKKKKKKKKKKK
                                        ZZZZZZ                AAAAAA        AAAAAAAA   KKKKKKKKKKKKK
                                       ZZZZZZ                AAAAAA         AAAAAAAA   KKKKKKKKKKKK
                                      ZZZZZZ                AAAAAA          AAAAAAAA   KKKKKKKKKKK
                                     ZZZZZZ                AAAAAA           AAAAAAAA   KKKKKKKKKKKK
                                    ZZZZZZ                AAAAAA            AAAAAAAA   KKKKKKKKKKKKK
                                   ZZZZZZ                AAAAAA             AAAAAAAA   KKKKKKKKKKKKKK
                                  ZZZZZZ                AAAAAA              AAAAAAAA   KKKKKKKKKKKKKKK
                                 ZZZZZZ                AAAAAA               AAAAAAAA   KKKKK KKKKKKKKKK
                                ZZZZZZ                AAAAAA                AAAAAAAA   KKKKK  KKKKKKKKKK
                               ZZZZZZ                AAAAAA                            KKKKK   KKKKKKKKKK
                              ZZZZZZ                AAAAAA                             KKKKK    KKKKKKKKKK
                             ZZZZZZ                                                    KKKKK     KKKKKKKKKK
                            ZZZZZZ                                                     KKKKK      KKKKKKKKKK
                           ZZZZZZ                                                      KKKKK       KKKKKKKKKK
                          ZZZZZZ                                                       KKKKK        KKKKKKKKKK
                         ZZZZZZZZZZZZZZZZZZZZZZZZZZZZZZZZZZZZZZZZ                      KKKKK         KKKKKKKKKK
                        ZZZZZZZZZZZZZZZZZZZZZZZZZZZZZZZZZZZZZZZZZ                      KKKKK          KKKKKKKKKK
                       ZZZZZZZZZZZZZZZZZZZZZZZZZZZZZZZZZZZZZZZZZZ                      KKKKK           KKKKKKKKKK
                       ZZZZZZZZZZZZZZZZZZZZZZZZZZZZZZZZZZZZZZZZZZ                      KKKKK            KKKKKKKKKK
                       ZZZZZZZZZZZZZZZZZZZZZZZZZZZZZZZZZZZZZZZZZZ                      KKKKK             KKKKKKKKKK
                       ZZZZZZZZZZZZZZZZZZZZZZZZZZZZZZZZZZZZZZZZZZ                      KKKKK              KKKKKKKKKK
                       ZZZZZZZZZZZZZZZZZZZZZZZZZZZZZZZZZZZZZZZZZZ                      KKKKK               KKKKKKKKKK
                       ZZZZZZZZZZZZZZZZZZZZZZZZZZZZZZZZZZZZZZZZZZ                      KKKKK                KKKKKKKKKK
                       ZZZZZZZZZZZZZZZZZZZZZZZZZZZZZZZZZZZZZZZZZZ                      KKKKK
                                                                                       KKKKK
                                                                                          (J.P.)
 Job cpu time:       7 days 15 hours  2 minutes 30.4 seconds.
 File lengths (MBytes):  RWF=   4673 Int=      0 D2E=      0 Chk=     87 Scr=      1
 Normal termination of Gaussian 09 at Sun Jul 28 10:22:21 2019.
