 Entering Gaussian System, Link 0=g09
 Initial command:
 /home/minenky/programs//g09/l1.exe "/local/scratch/minenky/m1_00_536-74-30_C8H6_wB97XD/Gau-110499.inp" -scrdir="/local/scratch/minenky/m1_00_536-74-30_C8H6_wB97XD/"
 Entering Link 1 = /home/minenky/programs//g09/l1.exe PID=    110500.
  
 Copyright (c) 1988,1990,1992,1993,1995,1998,2003,2009,2013,
            Gaussian, Inc.  All Rights Reserved.
  
 This is part of the Gaussian(R) 09 program.  It is based on
 the Gaussian(R) 03 system (copyright 2003, Gaussian, Inc.),
 the Gaussian(R) 98 system (copyright 1998, Gaussian, Inc.),
 the Gaussian(R) 94 system (copyright 1995, Gaussian, Inc.),
 the Gaussian 92(TM) system (copyright 1992, Gaussian, Inc.),
 the Gaussian 90(TM) system (copyright 1990, Gaussian, Inc.),
 the Gaussian 88(TM) system (copyright 1988, Gaussian, Inc.),
 the Gaussian 86(TM) system (copyright 1986, Carnegie Mellon
 University), and the Gaussian 82(TM) system (copyright 1983,
 Carnegie Mellon University). Gaussian is a federally registered
 trademark of Gaussian, Inc.
  
 This software contains proprietary and confidential information,
 including trade secrets, belonging to Gaussian, Inc.
  
 This software is provided under written license and may be
 used, copied, transmitted, or stored only in accord with that
 written license.
  
 The following legend is applicable only to US Government
 contracts under FAR:
  
                    RESTRICTED RIGHTS LEGEND
  
 Use, reproduction and disclosure by the US Government is
 subject to restrictions as set forth in subparagraphs (a)
 and (c) of the Commercial Computer Software - Restricted
 Rights clause in FAR 52.227-19.
  
 Gaussian, Inc.
 340 Quinnipiac St., Bldg. 40, Wallingford CT 06492
  
  
 ---------------------------------------------------------------
 Warning -- This program may not be used in any manner that
 competes with the business of Gaussian, Inc. or will provide
 assistance to any competitor of Gaussian, Inc.  The licensee
 of this program is prohibited from giving any competitor of
 Gaussian, Inc. access to this program.  By using this program,
 the user acknowledges that Gaussian, Inc. is engaged in the
 business of creating and licensing software in the field of
 computational chemistry and represents and warrants to the
 licensee that it is not a competitor of Gaussian, Inc. and that
 it will not use this program in any manner prohibited above.
 ---------------------------------------------------------------
  

 Cite this work as:
 Gaussian 09, Revision D.01,
 M. J. Frisch, G. W. Trucks, H. B. Schlegel, G. E. Scuseria, 
 M. A. Robb, J. R. Cheeseman, G. Scalmani, V. Barone, B. Mennucci, 
 G. A. Petersson, H. Nakatsuji, M. Caricato, X. Li, H. P. Hratchian, 
 A. F. Izmaylov, J. Bloino, G. Zheng, J. L. Sonnenberg, M. Hada, 
 M. Ehara, K. Toyota, R. Fukuda, J. Hasegawa, M. Ishida, T. Nakajima, 
 Y. Honda, O. Kitao, H. Nakai, T. Vreven, J. A. Montgomery, Jr., 
 J. E. Peralta, F. Ogliaro, M. Bearpark, J. J. Heyd, E. Brothers, 
 K. N. Kudin, V. N. Staroverov, T. Keith, R. Kobayashi, J. Normand, 
 K. Raghavachari, A. Rendell, J. C. Burant, S. S. Iyengar, J. Tomasi, 
 M. Cossi, N. Rega, J. M. Millam, M. Klene, J. E. Knox, J. B. Cross, 
 V. Bakken, C. Adamo, J. Jaramillo, R. Gomperts, R. E. Stratmann, 
 O. Yazyev, A. J. Austin, R. Cammi, C. Pomelli, J. W. Ochterski, 
 R. L. Martin, K. Morokuma, V. G. Zakrzewski, G. A. Voth, 
 P. Salvador, J. J. Dannenberg, S. Dapprich, A. D. Daniels, 
 O. Farkas, J. B. Foresman, J. V. Ortiz, J. Cioslowski, 
 and D. J. Fox, Gaussian, Inc., Wallingford CT, 2013.
 
 ******************************************
 Gaussian 09:  AM64L-G09RevD.01 24-Apr-2013
                 9-Jul-2021 
 ******************************************
 %Mem=32000MB
 %NProcShared=16
 Will use up to   16 processors via shared memory.
 %Chk=m1_00_536-74-30_C8H6_wB97XD
 ----------------------------------------------------------------------
 #P wB97XD/def2tzvp opt=(tight) freq integral(Grid=ultrafine) # SCF(Max
 Cycle=380) 5d 7f GFPrint
 ----------------------------------------------------------------------
 1/7=10,14=-1,18=20,19=15,26=4,38=1/1,3;
 2/9=110,12=2,17=6,18=5,40=1/2;
 3/5=44,7=101,8=11,11=2,16=1,24=100,25=1,30=1,71=1,74=-58,75=-5/1,2,3;
 4//1;
 5/5=2,7=380,38=5/2;
 6/7=2,8=2,9=2,10=2,28=1/1;
 7//1,2,3,16;
 1/7=10,14=-1,18=20,19=15,26=4/3(2);
 2/9=110/2;
 99//99;
 2/9=110/2;
 3/5=44,7=101,8=11,11=2,16=1,25=1,30=1,71=1,74=-58,75=-5/1,2,3;
 4/5=5,16=3,69=1/1;
 5/5=2,7=380,38=5/2;
 7//1,2,3,16;
 1/7=10,14=-1,18=20,19=15,26=4/3(-5);
 2/9=110/2;
 6/7=2,8=2,9=2,10=2,19=2,28=1/1;
 99/9=1/99;
 Leave Link    1 at Fri Jul  9 19:19:35 2021, MaxMem=  4194304000 cpu:         1.1
 (Enter /home/minenky/programs//g09/l101.exe)
 ---------------------------------------
 The PBEPBE optimization and frequencies
 ---------------------------------------
 Symbolic Z-matrix:
 Charge =  0 Multiplicity = 1
 C                     0.       -0.59112   0. 
 C                     1.20755   0.1191    0. 
 C                    -1.20755   0.1191    0. 
 C                     1.2032    1.50553   0. 
 C                    -1.2032    1.50553   0. 
 C                     0.        2.20289   0. 
 H                     2.14057  -0.42768   0. 
 H                    -2.14057  -0.42768   0. 
 H                     2.14202   2.04397   0. 
 H                    -2.14202   2.04397   0. 
 H                     0.        3.28507   0. 
 C                     0.       -2.01582   0. 
 C                     0.       -3.21812   0. 
 H                     0.       -4.28009   0. 
 
 NAtoms=     14 NQM=       14 NQMF=       0 NMMI=      0 NMMIF=      0
                NMic=       0 NMicF=      0.
                    Isotopes and Nuclear Properties:
 (Nuclear quadrupole moments (NQMom) in fm**2, nuclear magnetic moments (NMagM)
  in nuclear magnetons)

  Atom         1           2           3           4           5           6           7           8           9          10
 IAtWgt=          12          12          12          12          12          12           1           1           1           1
 AtmWgt=  12.0000000  12.0000000  12.0000000  12.0000000  12.0000000  12.0000000   1.0078250   1.0078250   1.0078250   1.0078250
 NucSpn=           0           0           0           0           0           0           1           1           1           1
 AtZEff=   0.0000000   0.0000000   0.0000000   0.0000000   0.0000000   0.0000000   0.0000000   0.0000000   0.0000000   0.0000000
 NQMom=    0.0000000   0.0000000   0.0000000   0.0000000   0.0000000   0.0000000   0.0000000   0.0000000   0.0000000   0.0000000
 NMagM=    0.0000000   0.0000000   0.0000000   0.0000000   0.0000000   0.0000000   2.7928460   2.7928460   2.7928460   2.7928460
 AtZNuc=   6.0000000   6.0000000   6.0000000   6.0000000   6.0000000   6.0000000   1.0000000   1.0000000   1.0000000   1.0000000

  Atom        11          12          13          14
 IAtWgt=           1          12          12           1
 AtmWgt=   1.0078250  12.0000000  12.0000000   1.0078250
 NucSpn=           1           0           0           1
 AtZEff=   0.0000000   0.0000000   0.0000000   0.0000000
 NQMom=    0.0000000   0.0000000   0.0000000   0.0000000
 NMagM=    2.7928460   0.0000000   0.0000000   2.7928460
 AtZNuc=   1.0000000   6.0000000   6.0000000   1.0000000
 Leave Link  101 at Fri Jul  9 19:19:36 2021, MaxMem=  4194304000 cpu:         1.0
 (Enter /home/minenky/programs//g09/l103.exe)

 GradGradGradGradGradGradGradGradGradGradGradGradGradGradGradGradGradGrad
 Berny optimization.
 Initialization pass.
                           ----------------------------
                           !    Initial Parameters    !
                           ! (Angstroms and Degrees)  !
 --------------------------                            --------------------------
 ! Name  Definition              Value          Derivative Info.                !
 --------------------------------------------------------------------------------
 ! R1    R(1,2)                  1.4009         estimate D2E/DX2                !
 ! R2    R(1,3)                  1.4009         estimate D2E/DX2                !
 ! R3    R(1,12)                 1.4247         estimate D2E/DX2                !
 ! R4    R(2,4)                  1.3864         estimate D2E/DX2                !
 ! R5    R(2,7)                  1.0814         estimate D2E/DX2                !
 ! R6    R(3,5)                  1.3864         estimate D2E/DX2                !
 ! R7    R(3,8)                  1.0814         estimate D2E/DX2                !
 ! R8    R(4,6)                  1.3907         estimate D2E/DX2                !
 ! R9    R(4,9)                  1.0823         estimate D2E/DX2                !
 ! R10   R(5,6)                  1.3907         estimate D2E/DX2                !
 ! R11   R(5,10)                 1.0823         estimate D2E/DX2                !
 ! R12   R(6,11)                 1.0822         estimate D2E/DX2                !
 ! R13   R(12,13)                1.2023         estimate D2E/DX2                !
 ! R14   R(13,14)                1.062          estimate D2E/DX2                !
 ! A1    A(2,1,3)              119.0761         estimate D2E/DX2                !
 ! A2    A(2,1,12)             120.462          estimate D2E/DX2                !
 ! A3    A(3,1,12)             120.4619         estimate D2E/DX2                !
 ! A4    A(1,2,4)              120.2823         estimate D2E/DX2                !
 ! A5    A(1,2,7)              119.1664         estimate D2E/DX2                !
 ! A6    A(4,2,7)              120.5513         estimate D2E/DX2                !
 ! A7    A(1,3,5)              120.2823         estimate D2E/DX2                !
 ! A8    A(1,3,8)              119.1664         estimate D2E/DX2                !
 ! A9    A(5,3,8)              120.5513         estimate D2E/DX2                !
 ! A10   A(2,4,6)              120.2758         estimate D2E/DX2                !
 ! A11   A(2,4,9)              119.6561         estimate D2E/DX2                !
 ! A12   A(6,4,9)              120.068          estimate D2E/DX2                !
 ! A13   A(3,5,6)              120.2758         estimate D2E/DX2                !
 ! A14   A(3,5,10)             119.6561         estimate D2E/DX2                !
 ! A15   A(6,5,10)             120.0681         estimate D2E/DX2                !
 ! A16   A(4,6,5)              119.8076         estimate D2E/DX2                !
 ! A17   A(4,6,11)             120.0962         estimate D2E/DX2                !
 ! A18   A(5,6,11)             120.0962         estimate D2E/DX2                !
 ! A19   L(1,12,13,7,-1)       180.0            estimate D2E/DX2                !
 ! A20   L(12,13,14,7,-1)      179.9999         estimate D2E/DX2                !
 ! A21   L(1,12,13,7,-2)       180.0            estimate D2E/DX2                !
 ! A22   L(12,13,14,7,-2)      180.0            estimate D2E/DX2                !
 ! D1    D(3,1,2,4)              0.0            estimate D2E/DX2                !
 ! D2    D(3,1,2,7)            180.0            estimate D2E/DX2                !
 ! D3    D(12,1,2,4)           180.0            estimate D2E/DX2                !
 ! D4    D(12,1,2,7)             0.0            estimate D2E/DX2                !
 ! D5    D(2,1,3,5)              0.0            estimate D2E/DX2                !
 ! D6    D(2,1,3,8)            180.0            estimate D2E/DX2                !
 ! D7    D(12,1,3,5)           180.0            estimate D2E/DX2                !
 ! D8    D(12,1,3,8)             0.0            estimate D2E/DX2                !
 ! D9    D(1,2,4,6)              0.0            estimate D2E/DX2                !
 ! D10   D(1,2,4,9)            180.0            estimate D2E/DX2                !
 ! D11   D(7,2,4,6)            180.0            estimate D2E/DX2                !
 ! D12   D(7,2,4,9)              0.0            estimate D2E/DX2                !
 ! D13   D(1,3,5,6)              0.0            estimate D2E/DX2                !
 ! D14   D(1,3,5,10)           180.0            estimate D2E/DX2                !
 ! D15   D(8,3,5,6)            180.0            estimate D2E/DX2                !
 ! D16   D(8,3,5,10)             0.0            estimate D2E/DX2                !
 ! D17   D(2,4,6,5)              0.0            estimate D2E/DX2                !
 ! D18   D(2,4,6,11)           180.0            estimate D2E/DX2                !
 ! D19   D(9,4,6,5)            180.0            estimate D2E/DX2                !
 ! D20   D(9,4,6,11)             0.0            estimate D2E/DX2                !
 ! D21   D(3,5,6,4)              0.0            estimate D2E/DX2                !
 ! D22   D(3,5,6,11)           180.0            estimate D2E/DX2                !
 ! D23   D(10,5,6,4)           180.0            estimate D2E/DX2                !
 ! D24   D(10,5,6,11)            0.0            estimate D2E/DX2                !
 --------------------------------------------------------------------------------
 Trust Radius=3.00D-01 FncErr=1.00D-07 GrdErr=1.00D-06
 Number of steps in this run=     70 maximum allowed number of steps=    100.
 GradGradGradGradGradGradGradGradGradGradGradGradGradGradGradGradGradGrad

 Leave Link  103 at Fri Jul  9 19:19:36 2021, MaxMem=  4194304000 cpu:         0.0
 (Enter /home/minenky/programs//g09/l202.exe)
                          Input orientation:                          
 ---------------------------------------------------------------------
 Center     Atomic      Atomic             Coordinates (Angstroms)
 Number     Number       Type             X           Y           Z
 ---------------------------------------------------------------------
      1          6           0        0.000000   -0.591123    0.000000
      2          6           0        1.207551    0.119100    0.000000
      3          6           0       -1.207551    0.119099    0.000000
      4          6           0        1.203204    1.505525    0.000000
      5          6           0       -1.203204    1.505525    0.000000
      6          6           0        0.000000    2.202891    0.000000
      7          1           0        2.140567   -0.427676    0.000000
      8          1           0       -2.140566   -0.427677    0.000000
      9          1           0        2.142017    2.043967    0.000000
     10          1           0       -2.142017    2.043966    0.000000
     11          1           0        0.000000    3.285065    0.000000
     12          6           0        0.000000   -2.015822    0.000000
     13          6           0        0.000000   -3.218122    0.000000
     14          1           0        0.000001   -4.280087    0.000000
 ---------------------------------------------------------------------
                    Distance matrix (angstroms):
                    1          2          3          4          5
     1  C    0.000000
     2  C    1.400927   0.000000
     3  C    1.400926   2.415102   0.000000
     4  C    2.417361   1.386432   2.780992   0.000000
     5  C    2.417361   2.780992   1.386433   2.406408   0.000000
     6  C    2.794014   2.408395   2.408395   1.390690   1.390690
     7  H    2.146798   1.081426   3.392471   2.148468   3.862392
     8  H    2.146797   3.392470   1.081425   3.862391   2.148469
     9  H    3.395870   2.139706   3.863253   1.082261   3.388277
    10  H    3.395870   3.863252   2.139706   3.388277   1.082261
    11  H    3.876188   3.388438   3.388439   2.148130   2.148130
    12  C    1.424699   2.452768   2.452767   3.721234   3.721234
    13  C    2.626999   3.548976   3.548975   4.874479   4.874479
    14  H    3.688964   4.561910   4.561910   5.909400   5.909400
                    6          7          8          9         10
     6  C    0.000000
     7  H    3.391447   0.000000
     8  H    3.391447   4.281133   0.000000
     9  H    2.147904   2.471643   4.944648   0.000000
    10  H    2.147905   4.944648   2.471643   4.284034   0.000000
    11  H    1.082174   4.285612   4.285613   2.475593   2.475594
    12  C    4.218713   2.665377   2.665376   4.590220   4.590220
    13  C    5.421013   3.516904   3.516903   5.681357   5.681356
    14  H    6.482978   4.407164   4.407163   6.676967   6.676967
                   11         12         13         14
    11  H    0.000000
    12  C    5.300887   0.000000
    13  C    6.503187   1.202300   0.000000
    14  H    7.565152   2.264265   1.061965   0.000000
 Stoichiometry    C8H6
 Framework group  CS[SG(C8H6)]
 Deg. of freedom    25
 Full point group                 CS      NOp   2
 Largest Abelian subgroup         CS      NOp   2
 Largest concise Abelian subgroup C1      NOp   1
                         Standard orientation:                         
 ---------------------------------------------------------------------
 Center     Atomic      Atomic             Coordinates (Angstroms)
 Number     Number       Type             X           Y           Z
 ---------------------------------------------------------------------
      1          6           0        0.000000    0.591123    0.000000
      2          6           0       -1.207551   -0.119100    0.000000
      3          6           0        1.207551   -0.119099    0.000000
      4          6           0       -1.203204   -1.505525    0.000000
      5          6           0        1.203204   -1.505525    0.000000
      6          6           0        0.000000   -2.202891    0.000000
      7          1           0       -2.140567    0.427676    0.000000
      8          1           0        2.140566    0.427677    0.000000
      9          1           0       -2.142017   -2.043967    0.000000
     10          1           0        2.142017   -2.043966    0.000000
     11          1           0        0.000000   -3.285065    0.000000
     12          6           0        0.000000    2.015822    0.000000
     13          6           0        0.000000    3.218122    0.000000
     14          1           0       -0.000001    4.280087    0.000000
 ---------------------------------------------------------------------
 Rotational constants (GHZ):      5.7282878      1.5394616      1.2133714
 Leave Link  202 at Fri Jul  9 19:19:36 2021, MaxMem=  4194304000 cpu:         0.9
 (Enter /home/minenky/programs//g09/l301.exe)
 Standard basis: def2TZVP (5D, 7F)
 ======================================================================================================
                                       Pseudopotential Parameters
 ======================================================================================================
  Center     Atomic      Valence      Angular      Power
  Number     Number     Electrons     Momentum     of R      Exponent        Coefficient   SO-Coeffient
 ======================================================================================================
    1          6
                                   No pseudopotential on this center.
    2          6
                                   No pseudopotential on this center.
    3          6
                                   No pseudopotential on this center.
    4          6
                                   No pseudopotential on this center.
    5          6
                                   No pseudopotential on this center.
    6          6
                                   No pseudopotential on this center.
    7          1
                                   No pseudopotential on this center.
    8          1
                                   No pseudopotential on this center.
    9          1
                                   No pseudopotential on this center.
   10          1
                                   No pseudopotential on this center.
   11          1
                                   No pseudopotential on this center.
   12          6
                                   No pseudopotential on this center.
   13          6
                                   No pseudopotential on this center.
   14          1
                                   No pseudopotential on this center.
 ======================================================================================================
 Ernie: Thresh=  0.10000D-02 Tol=  0.10000D-05 Strict=F.
 AO basis set (Overlap normalization):
 Atom C1       Shell     1 S   6     bf    1 -     1          0.000000069990          1.117060440870          0.000000000000
      0.1357534968D+05  0.6064550360D-03
      0.2035233368D+04  0.4697908888D-02
      0.4632256236D+03  0.2433247765D-01
      0.1312001960D+03  0.9739996831D-01
      0.4285301589D+02  0.3019558425D+00
      0.1558418577D+02  0.6623360914D+00
 Atom C1       Shell     2 S   2     bf    2 -     2          0.000000069990          1.117060440870          0.000000000000
      0.6206713851D+01  0.6559530854D+00
      0.2576489653D+01  0.3758563329D+00
 Atom C1       Shell     3 S   1     bf    3 -     3          0.000000069990          1.117060440870          0.000000000000
      0.5769633942D+00  0.1000000000D+01
 Atom C1       Shell     4 S   1     bf    4 -     4          0.000000069990          1.117060440870          0.000000000000
      0.2297283136D+00  0.1000000000D+01
 Atom C1       Shell     5 S   1     bf    5 -     5          0.000000069990          1.117060440870          0.000000000000
      0.9516444003D-01  0.1000000000D+01
 Atom C1       Shell     6 P   4     bf    6 -     8          0.000000069990          1.117060440870          0.000000000000
      0.3469723224D+02  0.1132722000D-01
      0.7958262283D+01  0.7616965920D-01
      0.2378082688D+01  0.3019225220D+00
      0.8143320818D+00  0.7278502735D+00
 Atom C1       Shell     7 P   1     bf    9 -    11          0.000000069990          1.117060440870          0.000000000000
      0.2888754725D+00  0.1000000000D+01
 Atom C1       Shell     8 P   1     bf   12 -    14          0.000000069990          1.117060440870          0.000000000000
      0.1005682367D+00  0.1000000000D+01
 Atom C1       Shell     9 D   1     bf   15 -    19          0.000000069990          1.117060440870          0.000000000000
      0.1097000000D+01  0.1000000000D+01
 Atom C1       Shell    10 D   1     bf   20 -    24          0.000000069990          1.117060440870          0.000000000000
      0.3180000000D+00  0.1000000000D+01
 Atom C1       Shell    11 F   1     bf   25 -    31          0.000000069990          1.117060440870          0.000000000000
      0.7610000000D+00  0.1000000000D+01
 Atom C2       Shell    12 S   6     bf   32 -    32         -2.281940611502         -0.225066522406          0.000000000000
      0.1357534968D+05  0.6064550360D-03
      0.2035233368D+04  0.4697908888D-02
      0.4632256236D+03  0.2433247765D-01
      0.1312001960D+03  0.9739996831D-01
      0.4285301589D+02  0.3019558425D+00
      0.1558418577D+02  0.6623360914D+00
 Atom C2       Shell    13 S   2     bf   33 -    33         -2.281940611502         -0.225066522406          0.000000000000
      0.6206713851D+01  0.6559530854D+00
      0.2576489653D+01  0.3758563329D+00
 Atom C2       Shell    14 S   1     bf   34 -    34         -2.281940611502         -0.225066522406          0.000000000000
      0.5769633942D+00  0.1000000000D+01
 Atom C2       Shell    15 S   1     bf   35 -    35         -2.281940611502         -0.225066522406          0.000000000000
      0.2297283136D+00  0.1000000000D+01
 Atom C2       Shell    16 S   1     bf   36 -    36         -2.281940611502         -0.225066522406          0.000000000000
      0.9516444003D-01  0.1000000000D+01
 Atom C2       Shell    17 P   4     bf   37 -    39         -2.281940611502         -0.225066522406          0.000000000000
      0.3469723224D+02  0.1132722000D-01
      0.7958262283D+01  0.7616965920D-01
      0.2378082688D+01  0.3019225220D+00
      0.8143320818D+00  0.7278502735D+00
 Atom C2       Shell    18 P   1     bf   40 -    42         -2.281940611502         -0.225066522406          0.000000000000
      0.2888754725D+00  0.1000000000D+01
 Atom C2       Shell    19 P   1     bf   43 -    45         -2.281940611502         -0.225066522406          0.000000000000
      0.1005682367D+00  0.1000000000D+01
 Atom C2       Shell    20 D   1     bf   46 -    50         -2.281940611502         -0.225066522406          0.000000000000
      0.1097000000D+01  0.1000000000D+01
 Atom C2       Shell    21 D   1     bf   51 -    55         -2.281940611502         -0.225066522406          0.000000000000
      0.3180000000D+00  0.1000000000D+01
 Atom C2       Shell    22 F   1     bf   56 -    62         -2.281940611502         -0.225066522406          0.000000000000
      0.7610000000D+00  0.1000000000D+01
 Atom C3       Shell    23 S   6     bf   63 -    63          2.281940751482         -0.225064632680          0.000000000000
      0.1357534968D+05  0.6064550360D-03
      0.2035233368D+04  0.4697908888D-02
      0.4632256236D+03  0.2433247765D-01
      0.1312001960D+03  0.9739996831D-01
      0.4285301589D+02  0.3019558425D+00
      0.1558418577D+02  0.6623360914D+00
 Atom C3       Shell    24 S   2     bf   64 -    64          2.281940751482         -0.225064632680          0.000000000000
      0.6206713851D+01  0.6559530854D+00
      0.2576489653D+01  0.3758563329D+00
 Atom C3       Shell    25 S   1     bf   65 -    65          2.281940751482         -0.225064632680          0.000000000000
      0.5769633942D+00  0.1000000000D+01
 Atom C3       Shell    26 S   1     bf   66 -    66          2.281940751482         -0.225064632680          0.000000000000
      0.2297283136D+00  0.1000000000D+01
 Atom C3       Shell    27 S   1     bf   67 -    67          2.281940751482         -0.225064632680          0.000000000000
      0.9516444003D-01  0.1000000000D+01
 Atom C3       Shell    28 P   4     bf   68 -    70          2.281940751482         -0.225064632680          0.000000000000
      0.3469723224D+02  0.1132722000D-01
      0.7958262283D+01  0.7616965920D-01
      0.2378082688D+01  0.3019225220D+00
      0.8143320818D+00  0.7278502735D+00
 Atom C3       Shell    29 P   1     bf   71 -    73          2.281940751482         -0.225064632680          0.000000000000
      0.2888754725D+00  0.1000000000D+01
 Atom C3       Shell    30 P   1     bf   74 -    76          2.281940751482         -0.225064632680          0.000000000000
      0.1005682367D+00  0.1000000000D+01
 Atom C3       Shell    31 D   1     bf   77 -    81          2.281940751482         -0.225064632680          0.000000000000
      0.1097000000D+01  0.1000000000D+01
 Atom C3       Shell    32 D   1     bf   82 -    86          2.281940751482         -0.225064632680          0.000000000000
      0.3180000000D+00  0.1000000000D+01
 Atom C3       Shell    33 F   1     bf   87 -    93          2.281940751482         -0.225064632680          0.000000000000
      0.7610000000D+00  0.1000000000D+01
 Atom C4       Shell    34 S   6     bf   94 -    94         -2.273725972003         -2.845030076192          0.000000000000
      0.1357534968D+05  0.6064550360D-03
      0.2035233368D+04  0.4697908888D-02
      0.4632256236D+03  0.2433247765D-01
      0.1312001960D+03  0.9739996831D-01
      0.4285301589D+02  0.3019558425D+00
      0.1558418577D+02  0.6623360914D+00
 Atom C4       Shell    35 S   2     bf   95 -    95         -2.273725972003         -2.845030076192          0.000000000000
      0.6206713851D+01  0.6559530854D+00
      0.2576489653D+01  0.3758563329D+00
 Atom C4       Shell    36 S   1     bf   96 -    96         -2.273725972003         -2.845030076192          0.000000000000
      0.5769633942D+00  0.1000000000D+01
 Atom C4       Shell    37 S   1     bf   97 -    97         -2.273725972003         -2.845030076192          0.000000000000
      0.2297283136D+00  0.1000000000D+01
 Atom C4       Shell    38 S   1     bf   98 -    98         -2.273725972003         -2.845030076192          0.000000000000
      0.9516444003D-01  0.1000000000D+01
 Atom C4       Shell    39 P   4     bf   99 -   101         -2.273725972003         -2.845030076192          0.000000000000
      0.3469723224D+02  0.1132722000D-01
      0.7958262283D+01  0.7616965920D-01
      0.2378082688D+01  0.3019225220D+00
      0.8143320818D+00  0.7278502735D+00
 Atom C4       Shell    40 P   1     bf  102 -   104         -2.273725972003         -2.845030076192          0.000000000000
      0.2888754725D+00  0.1000000000D+01
 Atom C4       Shell    41 P   1     bf  105 -   107         -2.273725972003         -2.845030076192          0.000000000000
      0.1005682367D+00  0.1000000000D+01
 Atom C4       Shell    42 D   1     bf  108 -   112         -2.273725972003         -2.845030076192          0.000000000000
      0.1097000000D+01  0.1000000000D+01
 Atom C4       Shell    43 D   1     bf  113 -   117         -2.273725972003         -2.845030076192          0.000000000000
      0.3180000000D+00  0.1000000000D+01
 Atom C4       Shell    44 F   1     bf  118 -   124         -2.273725972003         -2.845030076192          0.000000000000
      0.7610000000D+00  0.1000000000D+01
 Atom C5       Shell    45 S   6     bf  125 -   125          2.273726111982         -2.845030076192          0.000000000000
      0.1357534968D+05  0.6064550360D-03
      0.2035233368D+04  0.4697908888D-02
      0.4632256236D+03  0.2433247765D-01
      0.1312001960D+03  0.9739996831D-01
      0.4285301589D+02  0.3019558425D+00
      0.1558418577D+02  0.6623360914D+00
 Atom C5       Shell    46 S   2     bf  126 -   126          2.273726111982         -2.845030076192          0.000000000000
      0.6206713851D+01  0.6559530854D+00
      0.2576489653D+01  0.3758563329D+00
 Atom C5       Shell    47 S   1     bf  127 -   127          2.273726111982         -2.845030076192          0.000000000000
      0.5769633942D+00  0.1000000000D+01
 Atom C5       Shell    48 S   1     bf  128 -   128          2.273726111982         -2.845030076192          0.000000000000
      0.2297283136D+00  0.1000000000D+01
 Atom C5       Shell    49 S   1     bf  129 -   129          2.273726111982         -2.845030076192          0.000000000000
      0.9516444003D-01  0.1000000000D+01
 Atom C5       Shell    50 P   4     bf  130 -   132          2.273726111982         -2.845030076192          0.000000000000
      0.3469723224D+02  0.1132722000D-01
      0.7958262283D+01  0.7616965920D-01
      0.2378082688D+01  0.3019225220D+00
      0.8143320818D+00  0.7278502735D+00
 Atom C5       Shell    51 P   1     bf  133 -   135          2.273726111982         -2.845030076192          0.000000000000
      0.2888754725D+00  0.1000000000D+01
 Atom C5       Shell    52 P   1     bf  136 -   138          2.273726111982         -2.845030076192          0.000000000000
      0.1005682367D+00  0.1000000000D+01
 Atom C5       Shell    53 D   1     bf  139 -   143          2.273726111982         -2.845030076192          0.000000000000
      0.1097000000D+01  0.1000000000D+01
 Atom C5       Shell    54 D   1     bf  144 -   148          2.273726111982         -2.845030076192          0.000000000000
      0.3180000000D+00  0.1000000000D+01
 Atom C5       Shell    55 F   1     bf  149 -   155          2.273726111982         -2.845030076192          0.000000000000
      0.7610000000D+00  0.1000000000D+01
 Atom C6       Shell    56 S   6     bf  156 -   156          0.000000069990         -4.162860830578          0.000000000000
      0.1357534968D+05  0.6064550360D-03
      0.2035233368D+04  0.4697908888D-02
      0.4632256236D+03  0.2433247765D-01
      0.1312001960D+03  0.9739996831D-01
      0.4285301589D+02  0.3019558425D+00
      0.1558418577D+02  0.6623360914D+00
 Atom C6       Shell    57 S   2     bf  157 -   157          0.000000069990         -4.162860830578          0.000000000000
      0.6206713851D+01  0.6559530854D+00
      0.2576489653D+01  0.3758563329D+00
 Atom C6       Shell    58 S   1     bf  158 -   158          0.000000069990         -4.162860830578          0.000000000000
      0.5769633942D+00  0.1000000000D+01
 Atom C6       Shell    59 S   1     bf  159 -   159          0.000000069990         -4.162860830578          0.000000000000
      0.2297283136D+00  0.1000000000D+01
 Atom C6       Shell    60 S   1     bf  160 -   160          0.000000069990         -4.162860830578          0.000000000000
      0.9516444003D-01  0.1000000000D+01
 Atom C6       Shell    61 P   4     bf  161 -   163          0.000000069990         -4.162860830578          0.000000000000
      0.3469723224D+02  0.1132722000D-01
      0.7958262283D+01  0.7616965920D-01
      0.2378082688D+01  0.3019225220D+00
      0.8143320818D+00  0.7278502735D+00
 Atom C6       Shell    62 P   1     bf  164 -   166          0.000000069990         -4.162860830578          0.000000000000
      0.2888754725D+00  0.1000000000D+01
 Atom C6       Shell    63 P   1     bf  167 -   169          0.000000069990         -4.162860830578          0.000000000000
      0.1005682367D+00  0.1000000000D+01
 Atom C6       Shell    64 D   1     bf  170 -   174          0.000000069990         -4.162860830578          0.000000000000
      0.1097000000D+01  0.1000000000D+01
 Atom C6       Shell    65 D   1     bf  175 -   179          0.000000069990         -4.162860830578          0.000000000000
      0.3180000000D+00  0.1000000000D+01
 Atom C6       Shell    66 F   1     bf  180 -   186          0.000000069990         -4.162860830578          0.000000000000
      0.7610000000D+00  0.1000000000D+01
 Atom H7       Shell    67 S   3     bf  187 -   187         -4.045085329103          0.808190373628          0.000000000000
      0.3406134100D+02  0.2543930721D-01
      0.5123574600D+01  0.1900859489D+00
      0.1164662600D+01  0.8524411301D+00
 Atom H7       Shell    68 S   1     bf  188 -   188         -4.045085329103          0.808190373628          0.000000000000
      0.3272304100D+00  0.1000000000D+01
 Atom H7       Shell    69 S   1     bf  189 -   189         -4.045085329103          0.808190373628          0.000000000000
      0.1030724100D+00  0.1000000000D+01
 Atom H7       Shell    70 P   1     bf  190 -   192         -4.045085329103          0.808190373628          0.000000000000
      0.8000000000D+00  0.1000000000D+01
 Atom H8       Shell    71 S   3     bf  193 -   193          4.045083579356          0.808192263354          0.000000000000
      0.3406134100D+02  0.2543930721D-01
      0.5123574600D+01  0.1900859489D+00
      0.1164662600D+01  0.8524411301D+00
 Atom H8       Shell    72 S   1     bf  194 -   194          4.045083579356          0.808192263354          0.000000000000
      0.3272304100D+00  0.1000000000D+01
 Atom H8       Shell    73 S   1     bf  195 -   195          4.045083579356          0.808192263354          0.000000000000
      0.1030724100D+00  0.1000000000D+01
 Atom H8       Shell    74 P   1     bf  196 -   198          4.045083579356          0.808192263354          0.000000000000
      0.8000000000D+00  0.1000000000D+01
 Atom H9       Shell    75 S   3     bf  199 -   199         -4.047825431995         -3.862537994636          0.000000000000
      0.3406134100D+02  0.2543930721D-01
      0.5123574600D+01  0.1900859489D+00
      0.1164662600D+01  0.8524411301D+00
 Atom H9       Shell    76 S   1     bf  200 -   200         -4.047825431995         -3.862537994636          0.000000000000
      0.3272304100D+00  0.1000000000D+01
 Atom H9       Shell    77 S   1     bf  201 -   201         -4.047825431995         -3.862537994636          0.000000000000
      0.1030724100D+00  0.1000000000D+01
 Atom H9       Shell    78 P   1     bf  202 -   204         -4.047825431995         -3.862537994636          0.000000000000
      0.8000000000D+00  0.1000000000D+01
 Atom H10      Shell    79 S   3     bf  205 -   205          4.047825571975         -3.862536104909          0.000000000000
      0.3406134100D+02  0.2543930721D-01
      0.5123574600D+01  0.1900859489D+00
      0.1164662600D+01  0.8524411301D+00
 Atom H10      Shell    80 S   1     bf  206 -   206          4.047825571975         -3.862536104909          0.000000000000
      0.3272304100D+00  0.1000000000D+01
 Atom H10      Shell    81 S   1     bf  207 -   207          4.047825571975         -3.862536104909          0.000000000000
      0.1030724100D+00  0.1000000000D+01
 Atom H10      Shell    82 P   1     bf  208 -   210          4.047825571975         -3.862536104909          0.000000000000
      0.8000000000D+00  0.1000000000D+01
 Atom H11      Shell    83 S   3     bf  211 -   211          0.000000069990         -6.207873318708          0.000000000000
      0.3406134100D+02  0.2543930721D-01
      0.5123574600D+01  0.1900859489D+00
      0.1164662600D+01  0.8524411301D+00
 Atom H11      Shell    84 S   1     bf  212 -   212          0.000000069990         -6.207873318708          0.000000000000
      0.3272304100D+00  0.1000000000D+01
 Atom H11      Shell    85 S   1     bf  213 -   213          0.000000069990         -6.207873318708          0.000000000000
      0.1030724100D+00  0.1000000000D+01
 Atom H11      Shell    86 P   1     bf  214 -   216          0.000000069990         -6.207873318708          0.000000000000
      0.8000000000D+00  0.1000000000D+01
 Atom C12      Shell    87 S   6     bf  217 -   217          0.000000069990          3.809351372666          0.000000000000
      0.1357534968D+05  0.6064550360D-03
      0.2035233368D+04  0.4697908888D-02
      0.4632256236D+03  0.2433247765D-01
      0.1312001960D+03  0.9739996831D-01
      0.4285301589D+02  0.3019558425D+00
      0.1558418577D+02  0.6623360914D+00
 Atom C12      Shell    88 S   2     bf  218 -   218          0.000000069990          3.809351372666          0.000000000000
      0.6206713851D+01  0.6559530854D+00
      0.2576489653D+01  0.3758563329D+00
 Atom C12      Shell    89 S   1     bf  219 -   219          0.000000069990          3.809351372666          0.000000000000
      0.5769633942D+00  0.1000000000D+01
 Atom C12      Shell    90 S   1     bf  220 -   220          0.000000069990          3.809351372666          0.000000000000
      0.2297283136D+00  0.1000000000D+01
 Atom C12      Shell    91 S   1     bf  221 -   221          0.000000069990          3.809351372666          0.000000000000
      0.9516444003D-01  0.1000000000D+01
 Atom C12      Shell    92 P   4     bf  222 -   224          0.000000069990          3.809351372666          0.000000000000
      0.3469723224D+02  0.1132722000D-01
      0.7958262283D+01  0.7616965920D-01
      0.2378082688D+01  0.3019225220D+00
      0.8143320818D+00  0.7278502735D+00
 Atom C12      Shell    93 P   1     bf  225 -   227          0.000000069990          3.809351372666          0.000000000000
      0.2888754725D+00  0.1000000000D+01
 Atom C12      Shell    94 P   1     bf  228 -   230          0.000000069990          3.809351372666          0.000000000000
      0.1005682367D+00  0.1000000000D+01
 Atom C12      Shell    95 D   1     bf  231 -   235          0.000000069990          3.809351372666          0.000000000000
      0.1097000000D+01  0.1000000000D+01
 Atom C12      Shell    96 D   1     bf  236 -   240          0.000000069990          3.809351372666          0.000000000000
      0.3180000000D+00  0.1000000000D+01
 Atom C12      Shell    97 F   1     bf  241 -   247          0.000000069990          3.809351372666          0.000000000000
      0.7610000000D+00  0.1000000000D+01
 Atom C13      Shell    98 S   6     bf  248 -   248          0.000000069990          6.081369102234          0.000000000000
      0.1357534968D+05  0.6064550360D-03
      0.2035233368D+04  0.4697908888D-02
      0.4632256236D+03  0.2433247765D-01
      0.1312001960D+03  0.9739996831D-01
      0.4285301589D+02  0.3019558425D+00
      0.1558418577D+02  0.6623360914D+00
 Atom C13      Shell    99 S   2     bf  249 -   249          0.000000069990          6.081369102234          0.000000000000
      0.6206713851D+01  0.6559530854D+00
      0.2576489653D+01  0.3758563329D+00
 Atom C13      Shell   100 S   1     bf  250 -   250          0.000000069990          6.081369102234          0.000000000000
      0.5769633942D+00  0.1000000000D+01
 Atom C13      Shell   101 S   1     bf  251 -   251          0.000000069990          6.081369102234          0.000000000000
      0.2297283136D+00  0.1000000000D+01
 Atom C13      Shell   102 S   1     bf  252 -   252          0.000000069990          6.081369102234          0.000000000000
      0.9516444003D-01  0.1000000000D+01
 Atom C13      Shell   103 P   4     bf  253 -   255          0.000000069990          6.081369102234          0.000000000000
      0.3469723224D+02  0.1132722000D-01
      0.7958262283D+01  0.7616965920D-01
      0.2378082688D+01  0.3019225220D+00
      0.8143320818D+00  0.7278502735D+00
 Atom C13      Shell   104 P   1     bf  256 -   258          0.000000069990          6.081369102234          0.000000000000
      0.2888754725D+00  0.1000000000D+01
 Atom C13      Shell   105 P   1     bf  259 -   261          0.000000069990          6.081369102234          0.000000000000
      0.1005682367D+00  0.1000000000D+01
 Atom C13      Shell   106 D   1     bf  262 -   266          0.000000069990          6.081369102234          0.000000000000
      0.1097000000D+01  0.1000000000D+01
 Atom C13      Shell   107 D   1     bf  267 -   271          0.000000069990          6.081369102234          0.000000000000
      0.3180000000D+00  0.1000000000D+01
 Atom C13      Shell   108 F   1     bf  272 -   278          0.000000069990          6.081369102234          0.000000000000
      0.7610000000D+00  0.1000000000D+01
 Atom H14      Shell   109 S   3     bf  279 -   279         -0.000001819736          8.088192114944          0.000000000000
      0.3406134100D+02  0.2543930721D-01
      0.5123574600D+01  0.1900859489D+00
      0.1164662600D+01  0.8524411301D+00
 Atom H14      Shell   110 S   1     bf  280 -   280         -0.000001819736          8.088192114944          0.000000000000
      0.3272304100D+00  0.1000000000D+01
 Atom H14      Shell   111 S   1     bf  281 -   281         -0.000001819736          8.088192114944          0.000000000000
      0.1030724100D+00  0.1000000000D+01
 Atom H14      Shell   112 P   1     bf  282 -   284         -0.000001819736          8.088192114944          0.000000000000
      0.8000000000D+00  0.1000000000D+01
 There are   230 symmetry adapted cartesian basis functions of A'  symmetry.
 There are    94 symmetry adapted cartesian basis functions of A"  symmetry.
 There are   198 symmetry adapted basis functions of A'  symmetry.
 There are    86 symmetry adapted basis functions of A"  symmetry.
   284 basis functions,   456 primitive gaussians,   324 cartesian basis functions
    27 alpha electrons       27 beta electrons
       nuclear repulsion energy       299.7567462037 Hartrees.
 IExCor= 4639 DFT=T Ex+Corr=wB97XD ExCW=0 ScaHFX=  1.000000
 ScaDFX=  1.000000  1.000000  1.000000  1.000000 ScalE2=  1.000000  1.000000
 IRadAn=      5 IRanWt=     -1 IRanGd=            0 ICorTp=0 IEmpDi=121
  HFx wShort=  0.000000 wLong=  0.200000 cFull=  0.222036 cShort=  0.000000 cLong=  0.777964
  DFx wShort=  0.000000 wLong=  0.200000 cFull=  0.000000 cShort=  0.000000 cLong=  1.000000
 NAtoms=   14 NActive=   14 NUniq=   14 SFac= 1.00D+00 NAtFMM=   60 NAOKFM=F Big=F
 Integral buffers will be    131072 words long.
 Raffenetti 2 integral format.
 Two-electron integral symmetry is turned on.
 R6Disp:  Grimme-D2 Dispersion energy=       -0.0055326399 Hartrees.
 Nuclear repulsion after empirical dispersion term =      299.7512135638 Hartrees.
 Leave Link  301 at Fri Jul  9 19:19:36 2021, MaxMem=  4194304000 cpu:         0.9
 (Enter /home/minenky/programs//g09/l302.exe)
 NPDir=0 NMtPBC=     1 NCelOv=     1 NCel=       1 NClECP=     1 NCelD=      1
         NCelK=      1 NCelE2=     1 NClLst=     1 CellRange=     0.0.
 One-electron integrals computed using PRISM.
   1 Symmetry operations used in ECPInt.
 ECPInt:  NShTT=    6328 NPrTT=   19500 LenC2=    6170 LenP2D=   15315.
 LDataN:  DoStor=T MaxTD1= 6 Len=  172
 NBasis=   284 RedAO= T EigKep=  1.15D-05  NBF=   198    86
 NBsUse=   284 1.00D-06 EigRej= -1.00D+00 NBFU=   198    86
 Precomputing XC quadrature grid using
 IXCGrd= 4 IRadAn=           5 IRanWt=          -1 IRanGd=           0 AccXCQ= 0.00D+00.
 Generated NRdTot=       0 NPtTot=           0 NUsed=           0 NTot=          32
 NSgBfM=   323   323   323   323   323 MxSgAt=    14 MxSgA2=    14.
 Leave Link  302 at Fri Jul  9 19:19:37 2021, MaxMem=  4194304000 cpu:        14.1
 (Enter /home/minenky/programs//g09/l303.exe)
 DipDrv:  MaxL=1.
 Leave Link  303 at Fri Jul  9 19:19:37 2021, MaxMem=  4194304000 cpu:         0.4
 (Enter /home/minenky/programs//g09/l401.exe)
 ExpMin= 9.52D-02 ExpMax= 1.36D+04 ExpMxC= 4.63D+02 IAcc=3 IRadAn=         5 AccDes= 0.00D+00
 Harris functional with IExCor= 4639 and IRadAn=       5 diagonalized for initial guess.
 HarFok:  IExCor= 4639 AccDes= 0.00D+00 IRadAn=         5 IDoV= 1 UseB2=F ITyADJ=14
 ICtDFT=  3500011 ScaDFX=  1.000000  1.000000  1.000000  1.000000
 FoFCou: FMM=F IPFlag=           0 FMFlag=      100000 FMFlg1=           0
         NFxFlg=           0 DoJE=T BraDBF=F KetDBF=T FulRan=T
         wScrn=  0.000000 ICntrl=     500 IOpCl=  0 I1Cent=   200000004 NGrid=           0
         NMat0=    1 NMatS0=      1 NMatT0=    0 NMatD0=    1 NMtDS0=    0 NMtDT0=    0
 Petite list used in FoFCou.
 Harris En= -294.329259851076    
 JPrj=0 DoOrth=F DoCkMO=F.
 Initial guess orbital symmetries:
       Occupied  (A') (A') (A') (A') (A') (A') (A') (A') (A') (A')
                 (A') (A') (A') (A') (A') (A') (A') (A') (A') (A')
                 (A") (A') (A') (A") (A') (A") (A")
       Virtual   (A") (A") (A') (A') (A") (A') (A') (A') (A') (A')
                 (A') (A") (A') (A') (A') (A") (A') (A') (A") (A')
                 (A") (A') (A') (A') (A") (A') (A") (A') (A') (A")
                 (A") (A') (A') (A') (A') (A') (A") (A') (A') (A')
                 (A') (A') (A') (A') (A') (A") (A') (A") (A') (A')
                 (A') (A') (A") (A') (A') (A') (A') (A") (A") (A')
                 (A") (A') (A') (A") (A') (A') (A') (A') (A') (A")
                 (A') (A") (A') (A') (A') (A') (A") (A") (A') (A')
                 (A") (A') (A') (A") (A') (A") (A') (A') (A") (A')
                 (A') (A') (A") (A') (A') (A") (A") (A') (A') (A')
                 (A') (A") (A') (A") (A") (A') (A') (A') (A") (A")
                 (A') (A') (A') (A') (A") (A") (A") (A') (A') (A')
                 (A") (A") (A') (A') (A') (A') (A') (A') (A') (A")
                 (A') (A") (A') (A') (A') (A") (A') (A') (A") (A")
                 (A') (A') (A") (A') (A') (A') (A') (A") (A') (A')
                 (A") (A') (A") (A") (A") (A') (A') (A') (A") (A')
                 (A') (A') (A") (A') (A') (A") (A") (A') (A") (A')
                 (A") (A') (A") (A") (A') (A') (A') (A") (A') (A")
                 (A') (A') (A") (A') (A") (A') (A") (A') (A') (A')
                 (A") (A") (A") (A') (A') (A") (A') (A') (A') (A")
                 (A') (A") (A') (A') (A") (A') (A') (A") (A') (A')
                 (A") (A') (A') (A") (A') (A') (A') (A') (A') (A')
                 (A") (A") (A') (A") (A') (A") (A') (A') (A") (A')
                 (A') (A') (A") (A") (A') (A') (A') (A') (A") (A')
                 (A') (A') (A') (A') (A') (A') (A') (A') (A') (A')
                 (A') (A') (A') (A') (A') (A') (A')
 The electronic state of the initial guess is 1-A'.
 Leave Link  401 at Fri Jul  9 19:19:39 2021, MaxMem=  4194304000 cpu:        17.5
 (Enter /home/minenky/programs//g09/l502.exe)
 Closed shell SCF:
 Using DIIS extrapolation, IDIIS=  1040.
 Integral symmetry usage will be decided dynamically.
 Keep R1 ints in memory in symmetry-blocked form, NReq=2477937326.
 IVT=      470422 IEndB=      470422 NGot=  4194304000 MDV=  3773988638
 LenX=  3773988638 LenY=  3773883221
 Requested convergence on RMS density matrix=1.00D-08 within 380 cycles.
 Requested convergence on MAX density matrix=1.00D-06.
 Requested convergence on             energy=1.00D-06.
 No special actions if energy rises.
 FoFCou: FMM=F IPFlag=           0 FMFlag=           0 FMFlg1=           0
         NFxFlg=           0 DoJE=F BraDBF=F KetDBF=F FulRan=T
         wScrn=  0.000000 ICntrl=     600 IOpCl=  0 I1Cent=           0 NGrid=           0
         NMat0=    1 NMatS0=  40470 NMatT0=    0 NMatD0=    1 NMtDS0=    0 NMtDT0=    0
 Petite list used in FoFCou.
 Integral accuracy reduced to 1.0D-05 until final iterations.

 Cycle   1  Pass 0  IDiag  1:
 E= -308.308068052213    
 DIIS: error= 4.51D-02 at cycle   1 NSaved=   1.
 NSaved= 1 IEnMin= 1 EnMin= -308.308068052213     IErMin= 1 ErrMin= 4.51D-02
 ErrMax= 4.51D-02  0.00D+00 EMaxC= 1.00D-01 BMatC= 6.64D-01 BMatP= 6.64D-01
 IDIUse=3 WtCom= 5.49D-01 WtEn= 4.51D-01
 Coeff-Com:  0.100D+01
 Coeff-En:   0.100D+01
 Coeff:      0.100D+01
 Gap=     0.333 Goal=   None    Shift=    0.000
 GapD=    0.333 DampG=1.000 DampE=0.500 DampFc=0.5000 IDamp=-1.
 Damping current iteration by 5.00D-01
 RMSDP=2.81D-03 MaxDP=1.76D-01              OVMax= 4.63D-02

 Cycle   2  Pass 0  IDiag  1:
 E= -308.349175002843     Delta-E=       -0.041106950630 Rises=F Damp=T
 DIIS: error= 2.19D-02 at cycle   2 NSaved=   2.
 NSaved= 2 IEnMin= 2 EnMin= -308.349175002843     IErMin= 2 ErrMin= 2.19D-02
 ErrMax= 2.19D-02  0.00D+00 EMaxC= 1.00D-01 BMatC= 1.48D-01 BMatP= 6.64D-01
 IDIUse=3 WtCom= 7.81D-01 WtEn= 2.19D-01
 Coeff-Com: -0.860D+00 0.186D+01
 Coeff-En:   0.000D+00 0.100D+01
 Coeff:     -0.671D+00 0.167D+01
 Gap=     0.342 Goal=   None    Shift=    0.000
 RMSDP=1.45D-03 MaxDP=7.13D-02 DE=-4.11D-02 OVMax= 3.76D-02

 Cycle   3  Pass 0  IDiag  1:
 E= -308.383896611109     Delta-E=       -0.034721608265 Rises=F Damp=F
 DIIS: error= 6.24D-03 at cycle   3 NSaved=   3.
 NSaved= 3 IEnMin= 3 EnMin= -308.383896611109     IErMin= 3 ErrMin= 6.24D-03
 ErrMax= 6.24D-03  0.00D+00 EMaxC= 1.00D-01 BMatC= 5.14D-03 BMatP= 1.48D-01
 IDIUse=3 WtCom= 9.38D-01 WtEn= 6.24D-02
 Coeff-Com: -0.386D+00 0.827D+00 0.559D+00
 Coeff-En:   0.000D+00 0.000D+00 0.100D+01
 Coeff:     -0.362D+00 0.776D+00 0.587D+00
 Gap=     0.339 Goal=   None    Shift=    0.000
 RMSDP=2.13D-04 MaxDP=7.10D-03 DE=-3.47D-02 OVMax= 2.23D-02

 Cycle   4  Pass 0  IDiag  1:
 E= -308.388039919883     Delta-E=       -0.004143308775 Rises=F Damp=F
 DIIS: error= 2.39D-03 at cycle   4 NSaved=   4.
 NSaved= 4 IEnMin= 4 EnMin= -308.388039919883     IErMin= 4 ErrMin= 2.39D-03
 ErrMax= 2.39D-03  0.00D+00 EMaxC= 1.00D-01 BMatC= 5.94D-04 BMatP= 5.14D-03
 IDIUse=3 WtCom= 9.76D-01 WtEn= 2.39D-02
 Coeff-Com: -0.155D+00 0.333D+00 0.324D+00 0.498D+00
 Coeff-En:   0.000D+00 0.000D+00 0.406D-01 0.959D+00
 Coeff:     -0.151D+00 0.325D+00 0.317D+00 0.509D+00
 Gap=     0.339 Goal=   None    Shift=    0.000
 RMSDP=6.07D-05 MaxDP=2.67D-03 DE=-4.14D-03 OVMax= 8.16D-03

 Cycle   5  Pass 0  IDiag  1:
 E= -308.388610464609     Delta-E=       -0.000570544726 Rises=F Damp=F
 DIIS: error= 2.99D-04 at cycle   5 NSaved=   5.
 NSaved= 5 IEnMin= 5 EnMin= -308.388610464609     IErMin= 5 ErrMin= 2.99D-04
 ErrMax= 2.99D-04  0.00D+00 EMaxC= 1.00D-01 BMatC= 1.10D-05 BMatP= 5.94D-04
 IDIUse=3 WtCom= 9.97D-01 WtEn= 2.99D-03
 Coeff-Com:  0.132D-03-0.417D-03 0.201D-01 0.128D+00 0.852D+00
 Coeff-En:   0.000D+00 0.000D+00 0.000D+00 0.000D+00 0.100D+01
 Coeff:      0.131D-03-0.416D-03 0.201D-01 0.128D+00 0.853D+00
 Gap=     0.339 Goal=   None    Shift=    0.000
 DSYEVD-2 returned Info=       29849 IAlg= 4 N=   198 NDim=   284 NE2=    13288320 trying  DSYEV.
 RMSDP=2.58D-05 MaxDP=6.09D-04 DE=-5.71D-04 OVMax= 1.55D-03

 Cycle   6  Pass 0  IDiag  1:
 E= -308.388620970541     Delta-E=       -0.000010505932 Rises=F Damp=F
 DIIS: error= 1.54D-04 at cycle   6 NSaved=   6.
 NSaved= 6 IEnMin= 6 EnMin= -308.388620970541     IErMin= 6 ErrMin= 1.54D-04
 ErrMax= 1.54D-04  0.00D+00 EMaxC= 1.00D-01 BMatC= 1.97D-06 BMatP= 1.10D-05
 IDIUse=3 WtCom= 9.98D-01 WtEn= 1.54D-03
 Coeff-Com:  0.136D-01-0.294D-01-0.203D-01 0.102D-01 0.373D+00 0.653D+00
 Coeff-En:   0.000D+00 0.000D+00 0.000D+00 0.000D+00 0.000D+00 0.100D+01
 Coeff:      0.136D-01-0.293D-01-0.203D-01 0.102D-01 0.373D+00 0.653D+00
 Gap=     0.339 Goal=   None    Shift=    0.000
 RMSDP=8.03D-06 MaxDP=2.08D-04 DE=-1.05D-05 OVMax= 7.16D-04

 Initial convergence to 1.0D-05 achieved.  Increase integral accuracy.
 Cycle   7  Pass 1  IDiag  1:
 E= -308.388716973560     Delta-E=       -0.000096003019 Rises=F Damp=F
 DIIS: error= 5.11D-05 at cycle   1 NSaved=   1.
 NSaved= 1 IEnMin= 1 EnMin= -308.388716973560     IErMin= 1 ErrMin= 5.11D-05
 ErrMax= 5.11D-05  0.00D+00 EMaxC= 1.00D-01 BMatC= 5.24D-07 BMatP= 5.24D-07
 IDIUse=1 WtCom= 1.00D+00 WtEn= 0.00D+00
 Coeff-Com:  0.100D+01
 Coeff:      0.100D+01
 Gap=     0.339 Goal=   None    Shift=    0.000
 RMSDP=8.03D-06 MaxDP=2.08D-04 DE=-9.60D-05 OVMax= 1.62D-04

 Cycle   8  Pass 1  IDiag  1:
 E= -308.388717311983     Delta-E=       -0.000000338423 Rises=F Damp=F
 DIIS: error= 2.31D-05 at cycle   2 NSaved=   2.
 NSaved= 2 IEnMin= 2 EnMin= -308.388717311983     IErMin= 2 ErrMin= 2.31D-05
 ErrMax= 2.31D-05  0.00D+00 EMaxC= 1.00D-01 BMatC= 5.14D-08 BMatP= 5.24D-07
 IDIUse=1 WtCom= 1.00D+00 WtEn= 0.00D+00
 Coeff-Com:  0.966D-01 0.903D+00
 Coeff:      0.966D-01 0.903D+00
 Gap=     0.339 Goal=   None    Shift=    0.000
 RMSDP=1.71D-06 MaxDP=5.01D-05 DE=-3.38D-07 OVMax= 1.65D-04

 Cycle   9  Pass 1  IDiag  1:
 E= -308.388717333971     Delta-E=       -0.000000021988 Rises=F Damp=F
 DIIS: error= 2.03D-05 at cycle   3 NSaved=   3.
 NSaved= 3 IEnMin= 3 EnMin= -308.388717333971     IErMin= 3 ErrMin= 2.03D-05
 ErrMax= 2.03D-05  0.00D+00 EMaxC= 1.00D-01 BMatC= 3.86D-08 BMatP= 5.14D-08
 IDIUse=1 WtCom= 1.00D+00 WtEn= 0.00D+00
 Coeff-Com: -0.436D-01 0.469D+00 0.575D+00
 Coeff:     -0.436D-01 0.469D+00 0.575D+00
 Gap=     0.339 Goal=   None    Shift=    0.000
 RMSDP=6.23D-07 MaxDP=1.59D-05 DE=-2.20D-08 OVMax= 6.45D-05

 Cycle  10  Pass 1  IDiag  1:
 E= -308.388717373045     Delta-E=       -0.000000039074 Rises=F Damp=F
 DIIS: error= 2.26D-06 at cycle   4 NSaved=   4.
 NSaved= 4 IEnMin= 4 EnMin= -308.388717373045     IErMin= 4 ErrMin= 2.26D-06
 ErrMax= 2.26D-06  0.00D+00 EMaxC= 1.00D-01 BMatC= 3.98D-10 BMatP= 3.86D-08
 IDIUse=1 WtCom= 1.00D+00 WtEn= 0.00D+00
 Coeff-Com: -0.108D-01 0.574D-01 0.100D+00 0.853D+00
 Coeff:     -0.108D-01 0.574D-01 0.100D+00 0.853D+00
 Gap=     0.339 Goal=   None    Shift=    0.000
 RMSDP=1.40D-07 MaxDP=7.20D-06 DE=-3.91D-08 OVMax= 1.56D-05

 Cycle  11  Pass 1  IDiag  1:
 E= -308.388717373822     Delta-E=       -0.000000000777 Rises=F Damp=F
 DIIS: error= 1.45D-06 at cycle   5 NSaved=   5.
 NSaved= 5 IEnMin= 5 EnMin= -308.388717373822     IErMin= 5 ErrMin= 1.45D-06
 ErrMax= 1.45D-06  0.00D+00 EMaxC= 1.00D-01 BMatC= 1.75D-10 BMatP= 3.98D-10
 IDIUse=1 WtCom= 1.00D+00 WtEn= 0.00D+00
 Coeff-Com:  0.317D-02-0.609D-01-0.627D-01 0.389D+00 0.731D+00
 Coeff:      0.317D-02-0.609D-01-0.627D-01 0.389D+00 0.731D+00
 Gap=     0.339 Goal=   None    Shift=    0.000
 RMSDP=8.05D-08 MaxDP=2.48D-06 DE=-7.77D-10 OVMax= 1.09D-05

 Cycle  12  Pass 1  IDiag  1:
 E= -308.388717374110     Delta-E=       -0.000000000288 Rises=F Damp=F
 DIIS: error= 8.96D-07 at cycle   6 NSaved=   6.
 NSaved= 6 IEnMin= 6 EnMin= -308.388717374110     IErMin= 6 ErrMin= 8.96D-07
 ErrMax= 8.96D-07  0.00D+00 EMaxC= 1.00D-01 BMatC= 4.46D-11 BMatP= 1.75D-10
 IDIUse=1 WtCom= 1.00D+00 WtEn= 0.00D+00
 Coeff-Com:  0.384D-02-0.452D-01-0.543D-01 0.533D-01 0.392D+00 0.651D+00
 Coeff:      0.384D-02-0.452D-01-0.543D-01 0.533D-01 0.392D+00 0.651D+00
 Gap=     0.339 Goal=   None    Shift=    0.000
 RMSDP=3.33D-08 MaxDP=1.26D-06 DE=-2.88D-10 OVMax= 4.20D-06

 Cycle  13  Pass 1  IDiag  1:
 E= -308.388717374180     Delta-E=       -0.000000000070 Rises=F Damp=F
 DIIS: error= 2.18D-07 at cycle   7 NSaved=   7.
 NSaved= 7 IEnMin= 7 EnMin= -308.388717374180     IErMin= 7 ErrMin= 2.18D-07
 ErrMax= 2.18D-07  0.00D+00 EMaxC= 1.00D-01 BMatC= 2.17D-12 BMatP= 4.46D-11
 IDIUse=1 WtCom= 1.00D+00 WtEn= 0.00D+00
 Coeff-Com: -0.412D-03 0.900D-02 0.859D-02-0.628D-01-0.114D+00 0.281D-01
 Coeff-Com:  0.113D+01
 Coeff:     -0.412D-03 0.900D-02 0.859D-02-0.628D-01-0.114D+00 0.281D-01
 Coeff:      0.113D+01
 Gap=     0.339 Goal=   None    Shift=    0.000
 RMSDP=1.79D-08 MaxDP=5.17D-07 DE=-7.01D-11 OVMax= 2.57D-06

 Cycle  14  Pass 1  IDiag  1:
 E= -308.388717374201     Delta-E=       -0.000000000021 Rises=F Damp=F
 DIIS: error= 5.44D-08 at cycle   8 NSaved=   8.
 NSaved= 8 IEnMin= 8 EnMin= -308.388717374201     IErMin= 8 ErrMin= 5.44D-08
 ErrMax= 5.44D-08  0.00D+00 EMaxC= 1.00D-01 BMatC= 2.48D-13 BMatP= 2.17D-12
 IDIUse=1 WtCom= 1.00D+00 WtEn= 0.00D+00
 Coeff-Com: -0.437D-03 0.583D-02 0.667D-02-0.155D-01-0.579D-01-0.670D-01
 Coeff-Com:  0.180D+00 0.949D+00
 Coeff:     -0.437D-03 0.583D-02 0.667D-02-0.155D-01-0.579D-01-0.670D-01
 Coeff:      0.180D+00 0.949D+00
 Gap=     0.339 Goal=   None    Shift=    0.000
 RMSDP=4.62D-09 MaxDP=1.57D-07 DE=-2.07D-11 OVMax= 7.29D-07

 SCF Done:  E(RwB97XD) =  -308.388717374     A.U. after   14 cycles
            NFock= 14  Conv=0.46D-08     -V/T= 2.0051
 KE= 3.068192881021D+02 PE=-1.314660328148D+03 EE= 3.997011091078D+02
 Leave Link  502 at Fri Jul  9 19:20:13 2021, MaxMem=  4194304000 cpu:       435.2
 (Enter /home/minenky/programs//g09/l601.exe)
 Copying SCF densities to generalized density rwf, IOpCl= 0 IROHF=0.

 **********************************************************************

            Population analysis using the SCF density.

 **********************************************************************

 Orbital symmetries:
       Occupied  (A') (A') (A') (A') (A') (A') (A') (A') (A') (A')
                 (A') (A') (A') (A') (A') (A') (A') (A') (A') (A')
                 (A") (A') (A') (A") (A') (A") (A")
       Virtual   (A") (A") (A') (A') (A") (A') (A') (A') (A') (A')
                 (A') (A') (A") (A') (A') (A") (A') (A') (A') (A")
                 (A") (A') (A') (A') (A") (A') (A") (A') (A') (A")
                 (A') (A") (A') (A') (A') (A') (A") (A') (A') (A')
                 (A') (A') (A') (A') (A') (A") (A') (A') (A") (A')
                 (A') (A') (A") (A') (A') (A') (A') (A") (A") (A')
                 (A') (A") (A') (A") (A') (A') (A') (A') (A') (A")
                 (A") (A') (A') (A') (A') (A') (A") (A") (A') (A')
                 (A") (A') (A') (A") (A') (A") (A') (A') (A') (A")
                 (A') (A') (A") (A') (A') (A") (A") (A') (A') (A')
                 (A') (A") (A") (A') (A") (A') (A') (A") (A') (A")
                 (A') (A') (A') (A') (A") (A") (A") (A') (A') (A")
                 (A') (A") (A') (A') (A') (A') (A') (A') (A') (A')
                 (A") (A") (A') (A') (A") (A') (A') (A') (A") (A')
                 (A") (A') (A") (A') (A') (A') (A') (A') (A") (A')
                 (A") (A') (A") (A") (A') (A") (A') (A') (A") (A')
                 (A') (A') (A') (A") (A') (A") (A") (A') (A") (A')
                 (A") (A") (A') (A") (A') (A') (A') (A") (A') (A")
                 (A') (A') (A") (A') (A") (A') (A") (A') (A') (A')
                 (A") (A") (A") (A') (A') (A") (A') (A') (A') (A")
                 (A') (A") (A') (A') (A') (A") (A') (A") (A') (A')
                 (A") (A') (A') (A") (A') (A') (A') (A') (A') (A')
                 (A") (A") (A") (A') (A") (A') (A') (A') (A") (A')
                 (A') (A") (A") (A') (A') (A') (A') (A') (A") (A')
                 (A') (A') (A') (A') (A') (A') (A') (A') (A') (A')
                 (A') (A') (A') (A') (A') (A') (A')
 The electronic state is 1-A'.
 Alpha  occ. eigenvalues --  -10.32027 -10.29960 -10.29958 -10.29779 -10.29677
 Alpha  occ. eigenvalues --  -10.29660 -10.29322 -10.28322  -0.97473  -0.89027
 Alpha  occ. eigenvalues --   -0.85769  -0.83019  -0.72582  -0.71101  -0.64711
 Alpha  occ. eigenvalues --   -0.60961  -0.57141  -0.55417  -0.52801  -0.51722
 Alpha  occ. eigenvalues --   -0.48138  -0.44829  -0.43901  -0.40208  -0.36584
 Alpha  occ. eigenvalues --   -0.34265  -0.31538
 Alpha virt. eigenvalues --    0.02375   0.04932   0.11160   0.12294   0.14831
 Alpha virt. eigenvalues --    0.14848   0.15465   0.16092   0.18222   0.18948
 Alpha virt. eigenvalues --    0.19901   0.21769   0.22660   0.26945   0.26961
 Alpha virt. eigenvalues --    0.27680   0.28848   0.30156   0.30441   0.30498
 Alpha virt. eigenvalues --    0.32171   0.33571   0.33934   0.34923   0.37208
 Alpha virt. eigenvalues --    0.39977   0.40220   0.41756   0.42381   0.43034
 Alpha virt. eigenvalues --    0.44404   0.45186   0.45626   0.45730   0.48409
 Alpha virt. eigenvalues --    0.48662   0.49722   0.49811   0.49830   0.54763
 Alpha virt. eigenvalues --    0.55264   0.55297   0.57487   0.58292   0.60345
 Alpha virt. eigenvalues --    0.61783   0.62136   0.64827   0.64858   0.68099
 Alpha virt. eigenvalues --    0.73549   0.74217   0.74628   0.75255   0.75832
 Alpha virt. eigenvalues --    0.75988   0.81261   0.81736   0.82144   0.83500
 Alpha virt. eigenvalues --    0.87406   0.89097   0.91592   0.92487   0.92774
 Alpha virt. eigenvalues --    0.95460   0.98105   1.01175   1.02866   1.02998
 Alpha virt. eigenvalues --    1.04756   1.06001   1.08543   1.08791   1.11525
 Alpha virt. eigenvalues --    1.14706   1.15826   1.17063   1.22905   1.27418
 Alpha virt. eigenvalues --    1.28470   1.29044   1.29503   1.31287   1.34096
 Alpha virt. eigenvalues --    1.34607   1.34611   1.36568   1.43137   1.44850
 Alpha virt. eigenvalues --    1.45807   1.46116   1.53166   1.53188   1.54084
 Alpha virt. eigenvalues --    1.56078   1.57881   1.59428   1.59587   1.64960
 Alpha virt. eigenvalues --    1.66146   1.68903   1.68950   1.69822   1.71753
 Alpha virt. eigenvalues --    1.72729   1.76547   1.77161   1.77818   1.78751
 Alpha virt. eigenvalues --    1.78798   1.85249   1.86246   1.88432   1.92700
 Alpha virt. eigenvalues --    1.95366   1.98908   2.04572   2.07593   2.07905
 Alpha virt. eigenvalues --    2.08569   2.11833   2.14944   2.17673   2.22917
 Alpha virt. eigenvalues --    2.23041   2.27615   2.31457   2.31858   2.38167
 Alpha virt. eigenvalues --    2.38203   2.39486   2.50805   2.53129   2.53582
 Alpha virt. eigenvalues --    2.54364   2.56057   2.58313   2.60379   2.63059
 Alpha virt. eigenvalues --    2.65074   2.68513   2.69303   2.69860   2.71277
 Alpha virt. eigenvalues --    2.72394   2.74812   2.75154   2.75653   2.77041
 Alpha virt. eigenvalues --    2.79012   2.81976   2.82802   2.83867   2.85914
 Alpha virt. eigenvalues --    2.86404   2.88269   2.89511   2.90280   2.92662
 Alpha virt. eigenvalues --    2.92958   2.94090   2.95888   2.96073   2.98305
 Alpha virt. eigenvalues --    3.00459   3.04386   3.06725   3.07518   3.08897
 Alpha virt. eigenvalues --    3.09579   3.12567   3.12699   3.13787   3.14322
 Alpha virt. eigenvalues --    3.16184   3.17336   3.20241   3.21911   3.23730
 Alpha virt. eigenvalues --    3.24201   3.27047   3.29609   3.31277   3.32503
 Alpha virt. eigenvalues --    3.34490   3.34576   3.34828   3.40178   3.43297
 Alpha virt. eigenvalues --    3.45329   3.45461   3.45477   3.47363   3.48305
 Alpha virt. eigenvalues --    3.52860   3.53324   3.55134   3.56153   3.56431
 Alpha virt. eigenvalues --    3.57047   3.63534   3.64629   3.66264   3.74243
 Alpha virt. eigenvalues --    3.74284   3.76464   3.80896   3.84925   3.95802
 Alpha virt. eigenvalues --    3.98805   4.02917   4.05408   4.05787   4.05920
 Alpha virt. eigenvalues --    4.11844   4.14388   4.17665   4.23451   4.25054
 Alpha virt. eigenvalues --    4.28267   4.29424   4.30962   4.31905   4.36793
 Alpha virt. eigenvalues --    4.37054   4.41245   4.43000   4.50930   4.64086
 Alpha virt. eigenvalues --    4.64550   4.75357   4.76024   4.76095   4.80402
 Alpha virt. eigenvalues --    4.85429   4.96245   4.96771   5.04908   5.10186
 Alpha virt. eigenvalues --    5.17484   5.26132   5.29670   5.31757   5.38557
 Alpha virt. eigenvalues --    5.54404   5.58447   5.77824   5.78114  22.24955
 Alpha virt. eigenvalues --   22.68730  22.70334  22.71312  22.82577  22.95009
 Alpha virt. eigenvalues --   23.38970  23.86471
          Condensed to atoms (all electrons):
               1          2          3          4          5          6
     1  C    5.024959   0.476889   0.476890   0.008711   0.008711  -0.072440
     2  C    0.476889   5.000684  -0.015484   0.461277  -0.047628   0.009862
     3  C    0.476890  -0.015484   5.000683  -0.047628   0.461276   0.009862
     4  C    0.008711   0.461277  -0.047628   4.924687   0.010446   0.445760
     5  C    0.008711  -0.047628   0.461276   0.010446   4.924687   0.445761
     6  C   -0.072440   0.009862   0.009862   0.445760   0.445761   4.902494
     7  H   -0.054255   0.439411   0.010759  -0.052835  -0.002890   0.009380
     8  H   -0.054255   0.010759   0.439411  -0.002890  -0.052835   0.009380
     9  H    0.011544  -0.055730  -0.003350   0.445457   0.010195  -0.053113
    10  H    0.011544  -0.003350  -0.055730   0.010195   0.445458  -0.053113
    11  H   -0.002025   0.009017   0.009017  -0.052239  -0.052239   0.441488
    12  C    0.415724  -0.090785  -0.090785  -0.014209  -0.014209  -0.002059
    13  C   -0.281838   0.002368   0.002368  -0.002606  -0.002606   0.000544
    14  H    0.002383  -0.000044  -0.000044   0.000000   0.000000   0.000001
               7          8          9         10         11         12
     1  C   -0.054255  -0.054255   0.011544   0.011544  -0.002025   0.415724
     2  C    0.439411   0.010759  -0.055730  -0.003350   0.009017  -0.090785
     3  C    0.010759   0.439411  -0.003350  -0.055730   0.009017  -0.090785
     4  C   -0.052835  -0.002890   0.445457   0.010195  -0.052239  -0.014209
     5  C   -0.002890  -0.052835   0.010195   0.445458  -0.052239  -0.014209
     6  C    0.009380   0.009380  -0.053113  -0.053113   0.441488  -0.002059
     7  H    0.518267  -0.000157  -0.007461   0.000031  -0.000122   0.003710
     8  H   -0.000157   0.518267   0.000031  -0.007461  -0.000122   0.003710
     9  H   -0.007461   0.000031   0.536467  -0.000139  -0.006897   0.000002
    10  H    0.000031  -0.007461  -0.000139   0.536467  -0.006897   0.000002
    11  H   -0.000122  -0.000122  -0.006897  -0.006897   0.536073   0.000215
    12  C    0.003710   0.003710   0.000002   0.000002   0.000215   5.287475
    13  C    0.004592   0.004592  -0.000006  -0.000006  -0.000002   0.522345
    14  H    0.000030   0.000030   0.000000   0.000000   0.000000  -0.008639
              13         14
     1  C   -0.281838   0.002383
     2  C    0.002368  -0.000044
     3  C    0.002368  -0.000044
     4  C   -0.002606   0.000000
     5  C   -0.002606   0.000000
     6  C    0.000544   0.000001
     7  H    0.004592   0.000030
     8  H    0.004592   0.000030
     9  H   -0.000006   0.000000
    10  H   -0.000006   0.000000
    11  H   -0.000002   0.000000
    12  C    0.522345  -0.008639
    13  C    5.444108   0.394492
    14  H    0.394492   0.415659
 Mulliken charges:
               1
     1  C    0.027459
     2  C   -0.197247
     3  C   -0.197247
     4  C   -0.134127
     5  C   -0.134127
     6  C   -0.093808
     7  H    0.131539
     8  H    0.131539
     9  H    0.122998
    10  H    0.122998
    11  H    0.124732
    12  C   -0.012498
    13  C   -0.088345
    14  H    0.196134
 Sum of Mulliken charges =   0.00000
 Mulliken charges with hydrogens summed into heavy atoms:
               1
     1  C    0.027459
     2  C   -0.065708
     3  C   -0.065708
     4  C   -0.011129
     5  C   -0.011129
     6  C    0.030924
    12  C   -0.012498
    13  C    0.107789
 Electronic spatial extent (au):  <R**2>=            940.6459
 Charge=              0.0000 electrons
 Dipole moment (field-independent basis, Debye):
    X=              0.0000    Y=             -0.7367    Z=              0.0000  Tot=              0.7367
 Quadrupole moment (field-independent basis, Debye-Ang):
   XX=            -42.0683   YY=            -38.0794   ZZ=            -50.8014
   XY=              0.0000   XZ=              0.0000   YZ=              0.0000
 Traceless Quadrupole moment (field-independent basis, Debye-Ang):
   XX=              1.5814   YY=              5.5703   ZZ=             -7.1517
   XY=              0.0000   XZ=              0.0000   YZ=              0.0000
 Octapole moment (field-independent basis, Debye-Ang**2):
  XXX=              0.0000  YYY=             18.8278  ZZZ=              0.0000  XYY=              0.0000
  XXY=             -8.0461  XXZ=              0.0000  XZZ=              0.0000  YZZ=             -1.0856
  YYZ=              0.0000  XYZ=              0.0000
 Hexadecapole moment (field-independent basis, Debye-Ang**3):
 XXXX=           -275.4494 YYYY=           -716.4664 ZZZZ=            -59.4771 XXXY=              0.0000
 XXXZ=              0.0000 YYYX=             -0.0001 YYYZ=              0.0000 ZZZX=              0.0000
 ZZZY=              0.0000 XXYY=           -210.8530 XXZZ=            -66.9447 YYZZ=           -191.0374
 XXYZ=              0.0000 YYXZ=              0.0000 ZZXY=              0.0000
 N-N= 2.997512135638D+02 E-N=-1.314660326708D+03  KE= 3.068192881021D+02
 Symmetry A'   KE= 2.982045225858D+02
 Symmetry A"   KE= 8.614765516279D+00
 No NMR shielding tensors so no spin-rotation constants.
 Leave Link  601 at Fri Jul  9 19:20:13 2021, MaxMem=  4194304000 cpu:         4.6
 (Enter /home/minenky/programs//g09/l701.exe)
 Compute integral first derivatives.
 ... and contract with generalized density number  0.
 R6Disp: Adding Grimme-D2 dispersion energy 1st derivatives to the gradient.
   2 Symmetry operations used in ECPInt.
 ECPInt:  NShTT=    6328 NPrTT=   19500 LenC2=    6170 LenP2D=   15315.
 LDataN:  DoStor=T MaxTD1= 7 Len=  274
 Leave Link  701 at Fri Jul  9 19:20:13 2021, MaxMem=  4194304000 cpu:         3.4
 (Enter /home/minenky/programs//g09/l702.exe)
 L702 exits ... SP integral derivatives will be done elsewhere.
 Leave Link  702 at Fri Jul  9 19:20:13 2021, MaxMem=  4194304000 cpu:         0.1
 (Enter /home/minenky/programs//g09/l703.exe)
 Compute integral first derivatives, UseDBF=F ICtDFT=           0.
 Integral derivatives from FoFJK, PRISM(SPDF).
 Calling FoFJK, ICntrl=      2127 FMM=F ISym2X=1 I1Cent= 0 IOpClX= 0 NMat=1 NMatS=1 NMatT=0.
 FoFJK:  IHMeth= 1 ICntrl=    2127 DoSepK=T KAlg= 0 I1Cent=   0 FoldK=F
 IRaf=         1 NMat=   1 IRICut=       1 DoRegI=T DoRafI=F ISym2E= 1.
 FoFCou: FMM=F IPFlag=           0 FMFlag=      100000 FMFlg1=         800
         NFxFlg=           0 DoJE=F BraDBF=F KetDBF=F FulRan=T
         wScrn=  0.000000 ICntrl=    2527 IOpCl=  0 I1Cent=           0 NGrid=           0
         NMat0=    1 NMatS0=      1 NMatT0=    0 NMatD0=    1 NMtDS0=    0 NMtDT0=    0
 Petite list used in FoFCou.
 Leave Link  703 at Fri Jul  9 19:20:33 2021, MaxMem=  4194304000 cpu:       312.8
 (Enter /home/minenky/programs//g09/l716.exe)
 Dipole        =-2.15691344D-07-2.89853467D-01 0.00000000D+00
 ***** Axes restored to original set *****
 -------------------------------------------------------------------
 Center     Atomic                   Forces (Hartrees/Bohr)
 Number     Number              X              Y              Z
 -------------------------------------------------------------------
      1        6           0.000000130    0.009005160    0.000000000
      2        6          -0.004008064    0.000168927    0.000000000
      3        6           0.004008551    0.000170097    0.000000000
      4        6          -0.002944162   -0.000983745    0.000000000
      5        6           0.002944457   -0.000984544    0.000000000
      6        6          -0.000000192   -0.003812440    0.000000000
      7        1           0.000411364   -0.000128153    0.000000000
      8        1          -0.000411896   -0.000128396    0.000000000
      9        1           0.000116383    0.000060077    0.000000000
     10        1          -0.000116636    0.000060315    0.000000000
     11        1          -0.000000007    0.000159373    0.000000000
     12        6           0.000000058   -0.010377862    0.000000000
     13        6           0.000000043    0.007941652    0.000000000
     14        1          -0.000000030   -0.001150461    0.000000000
 -------------------------------------------------------------------
 Cartesian Forces:  Max     0.010377862 RMS     0.002758615
 Leave Link  716 at Fri Jul  9 19:20:33 2021, MaxMem=  4194304000 cpu:         0.1
 (Enter /home/minenky/programs//g09/l103.exe)

 GradGradGradGradGradGradGradGradGradGradGradGradGradGradGradGradGradGrad
 Berny optimization.
 FormGI is forming the generalized inverse of G from B-inverse, IUseBI=4.
 Internal  Forces:  Max     0.006791191 RMS     0.001523692
 Search for a local minimum.
 Step number   1 out of a maximum of   70
 All quantities printed in internal units (Hartrees-Bohrs-Radians)
 RMS Force = .15237D-02 SwitMx=.10000D-02 MixMth= 1
 Mixed Optimization -- RFO/linear search
 Second derivative matrix not updated -- first step.
 ITU=  0
     Eigenvalues ---    0.00606   0.00606   0.02076   0.02112   0.02162
     Eigenvalues ---    0.02179   0.02212   0.02216   0.02229   0.02242
     Eigenvalues ---    0.02245   0.04704   0.04704   0.16000   0.16000
     Eigenvalues ---    0.16000   0.16000   0.16000   0.22000   0.22000
     Eigenvalues ---    0.23475   0.25000   0.35722   0.35723   0.35733
     Eigenvalues ---    0.35823   0.35823   0.38264   0.41760   0.42077
     Eigenvalues ---    0.42646   0.46036   0.46475   0.47382   0.47945
     Eigenvalues ---    1.03676
 RFO step:  Lambda=-2.50869372D-04 EMin= 6.05679365D-03
 Linear search not attempted -- first point.
 Iteration  1 RMS(Cart)=  0.00330985 RMS(Int)=  0.00000199
 Iteration  2 RMS(Cart)=  0.00000270 RMS(Int)=  0.00000058
 Iteration  3 RMS(Cart)=  0.00000000 RMS(Int)=  0.00000058
 ITry= 1 IFail=0 DXMaxC= 9.91D-03 DCOld= 1.00D+10 DXMaxT= 3.00D-01 DXLimC= 3.00D+00 Rises=F
 ClnCor:  largest displacement from symmetrization is 5.90D-13 for atom     7.
 Variable       Old X    -DE/DX   Delta X   Delta X   Delta X     New X
                                 (Linear)    (Quad)   (Total)
    R1        2.64737  -0.00443   0.00000  -0.00982  -0.00982   2.63755
    R2        2.64737  -0.00443   0.00000  -0.00982  -0.00981   2.63755
    R3        2.69229   0.00359   0.00000   0.00858   0.00858   2.70087
    R4        2.61998  -0.00275   0.00000  -0.00573  -0.00573   2.61424
    R5        2.04360   0.00042   0.00000   0.00117   0.00117   2.04477
    R6        2.61998  -0.00275   0.00000  -0.00573  -0.00573   2.61424
    R7        2.04360   0.00042   0.00000   0.00117   0.00117   2.04477
    R8        2.62802  -0.00340   0.00000  -0.00714  -0.00714   2.62089
    R9        2.04518   0.00013   0.00000   0.00037   0.00037   2.04554
   R10        2.62802  -0.00340   0.00000  -0.00714  -0.00714   2.62088
   R11        2.04518   0.00013   0.00000   0.00037   0.00037   2.04554
   R12        2.04501   0.00016   0.00000   0.00045   0.00045   2.04546
   R13        2.27202  -0.00679   0.00000  -0.00655  -0.00655   2.26547
   R14        2.00682   0.00115   0.00000   0.00300   0.00300   2.00983
    A1        2.07827   0.00070   0.00000   0.00256   0.00257   2.08084
    A2        2.10246  -0.00035   0.00000  -0.00128  -0.00128   2.10117
    A3        2.10246  -0.00035   0.00000  -0.00128  -0.00128   2.10117
    A4        2.09932  -0.00018   0.00000  -0.00093  -0.00093   2.09840
    A5        2.07985   0.00019   0.00000   0.00108   0.00108   2.08093
    A6        2.10402  -0.00001   0.00000  -0.00016  -0.00016   2.10386
    A7        2.09932  -0.00018   0.00000  -0.00093  -0.00092   2.09840
    A8        2.07985   0.00019   0.00000   0.00108   0.00108   2.08093
    A9        2.10402  -0.00001   0.00000  -0.00016  -0.00016   2.10386
   A10        2.09921  -0.00019   0.00000  -0.00065  -0.00065   2.09856
   A11        2.08839   0.00009   0.00000   0.00029   0.00029   2.08868
   A12        2.09558   0.00010   0.00000   0.00036   0.00036   2.09594
   A13        2.09921  -0.00019   0.00000  -0.00065  -0.00065   2.09856
   A14        2.08839   0.00009   0.00000   0.00029   0.00029   2.08868
   A15        2.09558   0.00010   0.00000   0.00036   0.00036   2.09594
   A16        2.09104   0.00005   0.00000   0.00059   0.00058   2.09162
   A17        2.09607  -0.00002   0.00000  -0.00029  -0.00029   2.09578
   A18        2.09607  -0.00002   0.00000  -0.00029  -0.00029   2.09578
   A19        3.14159   0.00000   0.00000   0.00000   0.00000   3.14159
   A20        3.14159   0.00000   0.00000   0.00001   0.00001   3.14160
   A21        3.14159   0.00000   0.00000   0.00000   0.00000   3.14159
   A22        3.14159   0.00000   0.00000   0.00000   0.00000   3.14159
    D1        0.00000   0.00000   0.00000   0.00000   0.00000   0.00000
    D2        3.14159   0.00000   0.00000   0.00000   0.00000   3.14159
    D3        3.14159   0.00000   0.00000   0.00000   0.00000   3.14159
    D4        0.00000   0.00000   0.00000   0.00000   0.00000   0.00000
    D5        0.00000   0.00000   0.00000   0.00000   0.00000   0.00000
    D6        3.14159   0.00000   0.00000   0.00000   0.00000   3.14159
    D7        3.14159   0.00000   0.00000   0.00000   0.00000   3.14159
    D8        0.00000   0.00000   0.00000   0.00000   0.00000   0.00000
    D9        0.00000   0.00000   0.00000   0.00000   0.00000   0.00000
   D10        3.14159   0.00000   0.00000   0.00000   0.00000   3.14159
   D11        3.14159   0.00000   0.00000   0.00000   0.00000   3.14159
   D12        0.00000   0.00000   0.00000   0.00000   0.00000   0.00000
   D13        0.00000   0.00000   0.00000   0.00000   0.00000   0.00000
   D14        3.14159   0.00000   0.00000   0.00000   0.00000   3.14159
   D15        3.14159   0.00000   0.00000   0.00000   0.00000   3.14159
   D16        0.00000   0.00000   0.00000   0.00000   0.00000   0.00000
   D17        0.00000   0.00000   0.00000   0.00000   0.00000   0.00000
   D18        3.14159   0.00000   0.00000   0.00000   0.00000   3.14159
   D19        3.14159   0.00000   0.00000   0.00000   0.00000   3.14159
   D20        0.00000   0.00000   0.00000   0.00000   0.00000   0.00000
   D21        0.00000   0.00000   0.00000   0.00000   0.00000   0.00000
   D22        3.14159   0.00000   0.00000   0.00000   0.00000   3.14159
   D23        3.14159   0.00000   0.00000   0.00000   0.00000   3.14159
   D24        0.00000   0.00000   0.00000   0.00000   0.00000   0.00000
         Item               Value     Threshold  Converged?
 Maximum Force            0.006791     0.000015     NO 
 RMS     Force            0.001524     0.000010     NO 
 Maximum Displacement     0.009913     0.000060     NO 
 RMS     Displacement     0.003310     0.000040     NO 
 Predicted change in Energy=-1.254988D-04
 Lowest energy point so far.  Saving SCF results.
 GradGradGradGradGradGradGradGradGradGradGradGradGradGradGradGradGradGrad

 Leave Link  103 at Fri Jul  9 19:20:35 2021, MaxMem=  4194304000 cpu:        23.7
 (Enter /home/minenky/programs//g09/l202.exe)
                          Input orientation:                          
 ---------------------------------------------------------------------
 Center     Atomic      Atomic             Coordinates (Angstroms)
 Number     Number       Type             X           Y           Z
 ---------------------------------------------------------------------
      1          6           0        0.000002   -0.585877    0.000000
      2          6           0        1.203982    0.120169    0.000000
      3          6           0       -1.203980    0.120167    0.000000
      4          6           0        1.200139    1.503562    0.000000
      5          6           0       -1.200139    1.503560    0.000000
      6          6           0       -0.000001    2.198682    0.000000
      7          1           0        2.137424   -0.427106    0.000000
      8          1           0       -2.137421   -0.427109    0.000000
      9          1           0        2.139157    2.042035    0.000000
     10          1           0       -2.139158    2.042032    0.000000
     11          1           0       -0.000001    3.281092    0.000000
[...]
 Variable       Old X    -DE/DX   Delta X   Delta X   Delta X     New X
                                 (Linear)    (Quad)   (Total)
    R1        2.63726   0.00000   0.00000   0.00000   0.00000   2.63726
    R2        2.63726   0.00000   0.00000   0.00000   0.00000   2.63726
    R3        2.70377   0.00000   0.00000   0.00000   0.00000   2.70377
    R4        2.61541   0.00000   0.00000   0.00000   0.00000   2.61541
    R5        2.04475   0.00000   0.00000   0.00000   0.00000   2.04475
    R6        2.61541   0.00000   0.00000   0.00000   0.00000   2.61541
    R7        2.04475   0.00000   0.00000   0.00000   0.00000   2.04475
    R8        2.62145   0.00000   0.00000   0.00000   0.00000   2.62145
    R9        2.04564   0.00000   0.00000   0.00000   0.00000   2.04564
   R10        2.62145   0.00000   0.00000   0.00000   0.00000   2.62145
   R11        2.04564   0.00000   0.00000   0.00000   0.00000   2.04564
   R12        2.04569   0.00000   0.00000   0.00000   0.00000   2.04569
   R13        2.26565   0.00000   0.00000   0.00000   0.00000   2.26565
   R14        2.00952   0.00000   0.00000   0.00000   0.00000   2.00952
    A1        2.08245   0.00000   0.00000   0.00000   0.00000   2.08245
    A2        2.10037   0.00000   0.00000   0.00000   0.00000   2.10037
    A3        2.10037   0.00000   0.00000   0.00000   0.00000   2.10037
    A4        2.09759   0.00000   0.00000   0.00000   0.00000   2.09759
    A5        2.08199   0.00000   0.00000   0.00000   0.00000   2.08199
    A6        2.10360   0.00000   0.00000   0.00000   0.00000   2.10360
    A7        2.09759   0.00000   0.00000   0.00000   0.00000   2.09759
    A8        2.08199   0.00000   0.00000   0.00000   0.00000   2.08199
    A9        2.10360   0.00000   0.00000   0.00000   0.00000   2.10360
   A10        2.09830   0.00000   0.00000   0.00000   0.00000   2.09830
   A11        2.08888   0.00000   0.00000   0.00000   0.00000   2.08889
   A12        2.09600   0.00000   0.00000   0.00000   0.00000   2.09600
   A13        2.09830   0.00000   0.00000   0.00000   0.00000   2.09830
   A14        2.08888   0.00000   0.00000   0.00000   0.00000   2.08889
   A15        2.09600   0.00000   0.00000   0.00000   0.00000   2.09600
   A16        2.09213   0.00000   0.00000   0.00000   0.00000   2.09213
   A17        2.09553   0.00000   0.00000   0.00000   0.00000   2.09553
   A18        2.09553   0.00000   0.00000   0.00000   0.00000   2.09553
   A19        3.14159   0.00000   0.00000   0.00000   0.00000   3.14159
   A20        3.14159   0.00000   0.00000   0.00000   0.00000   3.14159
   A21        3.14159   0.00000   0.00000   0.00000   0.00000   3.14159
   A22        3.14159   0.00000   0.00000   0.00000   0.00000   3.14159
    D1        0.00000   0.00000   0.00000   0.00000   0.00000   0.00000
    D2        3.14159   0.00000   0.00000   0.00000   0.00000   3.14159
    D3        3.14159   0.00000   0.00000   0.00000   0.00000   3.14159
    D4        0.00000   0.00000   0.00000   0.00000   0.00000   0.00000
    D5        0.00000   0.00000   0.00000   0.00000   0.00000   0.00000
    D6        3.14159   0.00000   0.00000   0.00000   0.00000   3.14159
    D7        3.14159   0.00000   0.00000   0.00000   0.00000   3.14159
    D8        0.00000   0.00000   0.00000   0.00000   0.00000   0.00000
    D9        0.00000   0.00000   0.00000   0.00000   0.00000   0.00000
   D10        3.14159   0.00000   0.00000   0.00000   0.00000   3.14159
   D11        3.14159   0.00000   0.00000   0.00000   0.00000   3.14159
   D12        0.00000   0.00000   0.00000   0.00000   0.00000   0.00000
   D13        0.00000   0.00000   0.00000   0.00000   0.00000   0.00000
   D14        3.14159   0.00000   0.00000   0.00000   0.00000   3.14159
   D15        3.14159   0.00000   0.00000   0.00000   0.00000   3.14159
   D16        0.00000   0.00000   0.00000   0.00000   0.00000   0.00000
   D17        0.00000   0.00000   0.00000   0.00000   0.00000   0.00000
   D18        3.14159   0.00000   0.00000   0.00000   0.00000   3.14159
   D19        3.14159   0.00000   0.00000   0.00000   0.00000   3.14159
   D20        0.00000   0.00000   0.00000   0.00000   0.00000   0.00000
   D21        0.00000   0.00000   0.00000   0.00000   0.00000   0.00000
   D22        3.14159   0.00000   0.00000   0.00000   0.00000   3.14159
   D23        3.14159   0.00000   0.00000   0.00000   0.00000   3.14159
   D24        0.00000   0.00000   0.00000   0.00000   0.00000   0.00000
         Item               Value     Threshold  Converged?
 Maximum Force            0.000000     0.000015     YES
 RMS     Force            0.000000     0.000010     YES
 Maximum Displacement     0.000006     0.000060     YES
 RMS     Displacement     0.000002     0.000040     YES
 Predicted change in Energy=-6.489401D-12
 Optimization completed.
    -- Stationary point found.
                           ----------------------------
                           !   Optimized Parameters   !
                           ! (Angstroms and Degrees)  !
 --------------------------                            --------------------------
 ! Name  Definition              Value          Derivative Info.                !
 --------------------------------------------------------------------------------
 ! R1    R(1,2)                  1.3956         -DE/DX =    0.0                 !
 ! R2    R(1,3)                  1.3956         -DE/DX =    0.0                 !
 ! R3    R(1,12)                 1.4308         -DE/DX =    0.0                 !
 ! R4    R(2,4)                  1.384          -DE/DX =    0.0                 !
 ! R5    R(2,7)                  1.082          -DE/DX =    0.0                 !
 ! R6    R(3,5)                  1.384          -DE/DX =    0.0                 !
 ! R7    R(3,8)                  1.082          -DE/DX =    0.0                 !
 ! R8    R(4,6)                  1.3872         -DE/DX =    0.0                 !
 ! R9    R(4,9)                  1.0825         -DE/DX =    0.0                 !
 ! R10   R(5,6)                  1.3872         -DE/DX =    0.0                 !
 ! R11   R(5,10)                 1.0825         -DE/DX =    0.0                 !
 ! R12   R(6,11)                 1.0825         -DE/DX =    0.0                 !
 ! R13   R(12,13)                1.1989         -DE/DX =    0.0                 !
 ! R14   R(13,14)                1.0634         -DE/DX =    0.0                 !
 ! A1    A(2,1,3)              119.3154         -DE/DX =    0.0                 !
 ! A2    A(2,1,12)             120.3423         -DE/DX =    0.0                 !
 ! A3    A(3,1,12)             120.3423         -DE/DX =    0.0                 !
 ! A4    A(1,2,4)              120.1833         -DE/DX =    0.0                 !
 ! A5    A(1,2,7)              119.2893         -DE/DX =    0.0                 !
 ! A6    A(4,2,7)              120.5273         -DE/DX =    0.0                 !
 ! A7    A(1,3,5)              120.1833         -DE/DX =    0.0                 !
 ! A8    A(1,3,8)              119.2893         -DE/DX =    0.0                 !
 ! A9    A(5,3,8)              120.5273         -DE/DX =    0.0                 !
 ! A10   A(2,4,6)              120.224          -DE/DX =    0.0                 !
 ! A11   A(2,4,9)              119.6842         -DE/DX =    0.0                 !
 ! A12   A(6,4,9)              120.0919         -DE/DX =    0.0                 !
 ! A13   A(3,5,6)              120.224          -DE/DX =    0.0                 !
 ! A14   A(3,5,10)             119.6842         -DE/DX =    0.0                 !
 ! A15   A(6,5,10)             120.0919         -DE/DX =    0.0                 !
 ! A16   A(4,6,5)              119.87           -DE/DX =    0.0                 !
 ! A17   A(4,6,11)             120.065          -DE/DX =    0.0                 !
 ! A18   A(5,6,11)             120.065          -DE/DX =    0.0                 !
 ! A19   L(1,12,13,7,-1)       180.0            -DE/DX =    0.0                 !
 ! A20   L(12,13,14,7,-1)      180.0            -DE/DX =    0.0                 !
 ! A21   L(1,12,13,7,-2)       180.0            -DE/DX =    0.0                 !
 ! A22   L(12,13,14,7,-2)      180.0            -DE/DX =    0.0                 !
 ! D1    D(3,1,2,4)              0.0            -DE/DX =    0.0                 !
 ! D2    D(3,1,2,7)            180.0            -DE/DX =    0.0                 !
 ! D3    D(12,1,2,4)           180.0            -DE/DX =    0.0                 !
 ! D4    D(12,1,2,7)             0.0            -DE/DX =    0.0                 !
 ! D5    D(2,1,3,5)              0.0            -DE/DX =    0.0                 !
 ! D6    D(2,1,3,8)            180.0            -DE/DX =    0.0                 !
 ! D7    D(12,1,3,5)           180.0            -DE/DX =    0.0                 !
 ! D8    D(12,1,3,8)             0.0            -DE/DX =    0.0                 !
 ! D9    D(1,2,4,6)              0.0            -DE/DX =    0.0                 !
 ! D10   D(1,2,4,9)            180.0            -DE/DX =    0.0                 !
 ! D11   D(7,2,4,6)            180.0            -DE/DX =    0.0                 !
 ! D12   D(7,2,4,9)              0.0            -DE/DX =    0.0                 !
 ! D13   D(1,3,5,6)              0.0            -DE/DX =    0.0                 !
 ! D14   D(1,3,5,10)           180.0            -DE/DX =    0.0                 !
 ! D15   D(8,3,5,6)            180.0            -DE/DX =    0.0                 !
 ! D16   D(8,3,5,10)             0.0            -DE/DX =    0.0                 !
 ! D17   D(2,4,6,5)              0.0            -DE/DX =    0.0                 !
 ! D18   D(2,4,6,11)           180.0            -DE/DX =    0.0                 !
 ! D19   D(9,4,6,5)            180.0            -DE/DX =    0.0                 !
 ! D20   D(9,4,6,11)             0.0            -DE/DX =    0.0                 !
 ! D21   D(3,5,6,4)              0.0            -DE/DX =    0.0                 !
 ! D22   D(3,5,6,11)           180.0            -DE/DX =    0.0                 !
 ! D23   D(10,5,6,4)           180.0            -DE/DX =    0.0                 !
 ! D24   D(10,5,6,11)            0.0            -DE/DX =    0.0                 !
 --------------------------------------------------------------------------------
 GradGradGradGradGradGradGradGradGradGradGradGradGradGradGradGradGradGrad

 Leave Link  103 at Fri Jul  9 19:31:21 2021, MaxMem=  4194304000 cpu:        28.3
 (Enter /home/minenky/programs//g09/l9999.exe)
 1\1\GINC-CN514-05-R\Freq\RwB97XD\def2TZVP\C8H6\MINENKY\09-Jul-2021\0\\
 #P Geom=AllCheck Guess=TCheck SCRF=Check GenChk RwB97XD/def2TZVP Freq\
 \The PBEPBE optimization and frequencies\\0,1\C,0.0000000704,-0.585113
 4853,0.\C,1.2044143223,0.1198825503,0.\C,-1.2044142353,0.1198824211,0.
 \C,1.2005739495,1.5038938984,0.\C,-1.2005740029,1.5038937822,0.\C,-0.0
 000000701,2.198862586,0.\H,2.1379885004,-0.4271494799,0.\H,-2.13798836
 37,-0.427149687,0.\H,2.1395289499,2.0425777158,0.\H,-2.1395290631,2.04
 25774833,0.\H,-0.0000001113,3.2813954977,0.\C,0.0000001566,-2.01588925
 85,0.\C,0.0000003875,-3.2148194163,0.\H,0.0000015097,-4.2782136078,0.\
 \Version=AM64L-G09RevD.01\State=1-A'\HF=-308.388845\RMSD=1.838e-09\RMS
 F=2.356e-07\ZeroPoint=0.1105362\Thermal=0.1168727\Dipole=0.0000006,0.2
 895141,0.\DipoleDeriv=0.0504612,-0.0000003,0.,-0.0000002,0.2891239,0.,
 0.,0.,0.0250797,0.0257161,-0.0277076,0.,-0.088374,-0.0842902,0.,0.,0.,
 -0.1058328,0.0257159,0.0277076,0.,0.0883741,-0.0842901,0.,0.,0.,-0.105
 8327,0.0535768,0.1079374,0.,0.1097356,-0.0372795,0.,0.,0.,-0.1319199,0
 .0535767,-0.1079373,0.,-0.1097356,-0.0372797,0.,0.,0.,-0.13192,-0.0258
 124,0.,0.,0.,0.0222141,0.,0.,0.,-0.1293161,-0.0147358,0.054839,0.,0.06
 57436,0.0409566,0.,0.,0.,0.1342116,-0.0147357,-0.054839,0.,-0.0657435,
 0.0409566,0.,0.,0.,0.1342116,-0.0444302,-0.0742706,0.,-0.0633135,0.020
 4192,0.,0.,0.,0.1354487,-0.0444301,0.0742706,0.,0.0633134,0.0204193,0.
 ,0.,0.,0.1354487,0.0735408,0.,0.,0.,-0.0886377,0.,0.,0.,0.137783,-0.13
 08191,0.0000003,0.,0.0000002,0.3283359,0.,0.,0.,-0.0755739,-0.2212979,
 -0.0000004,0.,0.,-0.6763092,0.,0.,0.,-0.2463519,0.2136736,0.0000002,0.
 ,0.,0.2456608,0.,0.,0.,0.2245641\Polar=85.3236451,-0.0000058,135.47034
 54,0.,0.,48.0939339\PG=CS [SG(C8H6)]\NImag=0\\0.65626035,-0.00000003,0
 .69707891,0.,0.,0.15604068,-0.27673017,-0.11118007,0.,0.72371660,-0.04
 701699,-0.16712127,0.,-0.04304233,0.70942568,0.,0.,-0.06918515,0.,0.,0
 .13947030,-0.27673023,0.11118009,0.,-0.05828397,-0.02584408,0.,0.72371
 667,0.04701701,-0.16712129,0.,0.02584406,0.07157967,0.,0.04304231,0.70
 942571,0.,0.,-0.06918507,0.,0.,0.01051632,0.,0.,0.13947010,0.03935020,
 -0.02825545,0.,-0.13519632,-0.03638158,0.,-0.02052574,0.03388247,0.,0.
 73712702,-0.08329231,-0.02894497,0.,0.03672002,-0.34879194,0.,0.033212
 92,-0.06016805,0.,0.03487281,0.69974376,0.,0.,0.00706871,0.,0.,-0.0636
 7476,0.,0.,-0.00688638,0.,0.,0.13743496,0.03935020,0.02825545,0.,-0.02
 052574,-0.03388247,0.,-0.13519633,0.03638159,0.,-0.06007092,0.02763136
 ,0.,0.73712710,0.08329231,-0.02894495,0.,-0.03321291,-0.06016805,0.,-0
 .03671999,-0.34879195,0.,-0.02763138,0.07474394,0.,-0.03487280,0.69974
 376,0.,0.,0.00706864,0.,0.,-0.00688639,0.,0.,-0.06367457,0.,0.,0.00733
 364,0.,0.,0.13743473,-0.07959788,0.,0.,0.03990794,0.08625343,0.,0.0399
 0796,-0.08625341,0.,-0.29034584,0.05224244,0.,-0.29034586,-0.05224248,
 0.,0.67495722,0.,0.00107355,0.,0.03067760,-0.02706859,0.,-0.03067759,-
 0.02706860,0.,0.12697457,-0.18668807,0.,-0.12697460,-0.18668811,0.,0.0
 0000002,0.75725915,0.,0.,-0.00683228,0.,0.,0.00702543,0.,0.,0.00702533
 ,0.,0.,-0.06368162,0.,0.,-0.06368150,0.,0.,0.13725591,-0.01832285,0.01
 619494,0.,-0.27302427,0.12312975,0.,-0.00309007,-0.00396550,0.,0.00463
 898,-0.00261350,0.,0.00023858,-0.00086775,0.,0.00166709,-0.00068782,0.
 ,0.28718639,-0.01552766,0.01048363,0.,0.12516741,-0.13224428,0.,-0.003
 26650,-0.00110925,0.,0.02856331,-0.00964213,0.,-0.00088022,-0.00076916
 ,0.,-0.00112790,-0.00563176,0.,-0.13281503,0.13680559,0.,0.,0.00401030
 ,0.,0.,-0.03835047,0.,0.,0.00638066,0.,0.,0.00350278,0.,0.,-0.00084183
 ,0.,0.,0.00785728,0.,0.,0.02613977,-0.01832284,-0.01619494,0.,-0.00309
 007,0.00396550,0.,-0.27302426,-0.12312978,0.,0.00023858,0.00086775,0.,
 0.00463899,0.00261350,0.,0.00166710,0.00068783,0.,-0.00098747,-0.00078
 857,0.,0.28718637,0.01552766,0.01048362,0.,0.00326649,-0.00110925,0.,-
 0.12516744,-0.13224430,0.,0.00088023,-0.00076915,0.,-0.02856330,-0.009
 64213,0.,0.00112790,-0.00563176,0.,0.00078857,0.00054139,0.,0.13281505
 ,0.13680561,0.,0.,0.00401028,0.,0.,0.00638067,0.,0.,-0.03835044,0.,0.,
 -0.00084185,0.,0.,0.00350276,0.,0.,0.00785729,0.,0.,0.00035856,0.,0.,0
 .02613977,0.00191377,0.00082354,0.,0.00384434,0.00237228,0.,0.00020383
 ,0.00098478,0.,-0.27296378,-0.12200270,0.,-0.00327679,0.00391633,0.,-0
 .01806742,-0.01649451,0.,0.00072871,-0.00035113,0.,-0.00001064,-0.0000
 7928,0.,0.28772317,0.00091518,-0.00527341,0.,-0.02928423,-0.01044144,0
 .,0.00096212,-0.00090160,0.,-0.12186844,-0.13049056,0.,0.00338672,-0.0
 0081118,0.,0.01521281,0.01213042,0.,0.00040051,0.00082702,0.,-0.000079
 62,0.00006777,0.,0.13124464,0.13454715,0.,0.,0.00788855,0.,0.,0.002977
 30,0.,0.,-0.00099267,0.,0.,-0.03775282,0.,0.,0.00764436,0.,0.,0.002974
 46,0.,0.,-0.00415791,0.,0.,-0.00113446,0.,0.,0.02631551,0.00191377,-0.
 00082354,0.,0.00020383,-0.00098478,0.,0.00384434,-0.00237228,0.,-0.003
 27679,-0.00391633,0.,-0.27296383,0.12200271,0.,-0.01806741,0.01649449,
 0.,-0.00001064,0.00007928,0.,0.00072871,0.00035113,0.,-0.00101023,0.00
 078040,0.,0.28772321,-0.00091518,-0.00527341,0.,-0.00096212,-0.0009016
 0,0.,0.02928422,-0.01044144,0.,-0.00338672,-0.00081117,0.,0.12186844,-
 0.13049053,0.,-0.01521281,0.01213041,0.,0.00007962,0.00006777,0.,-0.00
 040051,0.00082702,0.,-0.00078040,0.00040889,0.,-0.13124463,0.13454711,
 0.,0.,0.00788856,0.,0.,-0.00099268,0.,0.,0.00297728,0.,0.,0.00764437,0
 .,0.,-0.03775279,0.,0.,0.00297445,0.,0.,-0.00113446,0.,0.,-0.00415791,
 0.,0.,0.00006092,0.,0.,0.02631552,-0.00148410,0.,0.,-0.00457703,0.0026
 3999,0.,-0.00457703,-0.00263999,0.,0.00514776,0.02850850,0.,0.00514777
 ,-0.02850850,0.,-0.06076416,0.,0.,0.00008311,0.00134525,0.,0.00008311,
 -0.00134525,0.,0.00086134,-0.00048348,0.,0.00086134,0.00048348,0.,0.05
 904239,0.,0.00074521,0.,0.00314470,0.00052076,0.,-0.00314470,0.0005207
 6,0.,-0.00314064,-0.01109093,0.,0.00314065,-0.01109093,0.,0.00000001,-
 0.34259379,0.,-0.00019752,-0.00062639,0.,0.00019752,-0.00062639,0.,0.0
 0031891,0.00075537,0.,-0.00031891,0.00075537,0.,-0.00000001,0.36274466
 ,0.,0.,-0.00110555,0.,0.,0.00782821,0.,0.,0.00782822,0.,0.,0.00301170,
 0.,0.,0.00301169,0.,0.,-0.03764134,0.,0.,-0.00000631,0.,0.,-0.00000631
 ,0.,0.,-0.00393943,0.,0.,-0.00393944,0.,0.,0.02602442,-0.08174775,0.,0
 .,0.00533962,-0.03218415,0.,0.00533962,0.03218417,0.,-0.00462538,-0.00
 299338,0.,-0.00462539,0.00299338,0.,-0.00166135,0.,0.,0.00065231,-0.00
 063468,0.,0.00065231,0.00063468,0.,0.00010934,-0.00135895,0.,0.0001093
 4,0.00135895,0.,0.00014742,0.,0.,0.11345484,0.00000003,-0.30112522,0.,
 -0.01466312,-0.03582489,0.,0.01466312,-0.03582488,0.,-0.00415374,0.004
 70730,0.,0.00415374,0.00470730,0.,0.,-0.00166909,0.,0.00118744,0.00139
 063,0.,-0.00118744,0.00139063,0.,0.00007779,-0.00031266,0.,-0.00007779
 ,-0.00031266,0.,0.,0.00008297,0.,-0.00000028,1.46090042,0.,0.,-0.05973
 208,0.,0.,0.00377950,0.,0.,0.00377951,0.,0.,0.00775668,0.,0.,0.0077566
 8,0.,0.,-0.00125523,0.,0.,-0.00403259,0.,0.,-0.00403259,0.,0.,0.000232
 77,0.,0.,0.00023277,0.,0.,-0.00121434,0.,0.,0.08075354,0.00814879,0.,0
 .,-0.00138498,-0.00010687,0.,-0.00138498,0.00010686,0.,0.00030411,0.00
 070550,0.,0.00030411,-0.00070550,0.,0.00072180,0.,0.,0.00028695,0.0002
 4240,0.,0.00028695,-0.00024240,0.,-0.00004905,0.00011764,0.,-0.0000490
 5,-0.00011764,0.,0.00004306,0.,0.,-0.03591484,0.00000029,0.,0.05279714
 ,-0.00000002,-0.01665854,0.,0.00763268,0.00210254,0.,-0.00763268,0.002
 10255,0.,-0.00027110,-0.00182023,0.,0.00027110,-0.00182023,0.,0.,0.000
 33080,0.,-0.00060011,-0.00006713,0.,0.00060011,-0.00006713,0.,-0.00004
 873,-0.00052760,0.,0.00004873,-0.00052760,0.,0.,-0.00011413,0.,0.00000
 025,-1.10315572,0.,-0.00000068,1.53951951,0.,0.,0.00725279,0.,0.,0.001
 12040,0.,0.,0.00112040,0.,0.,-0.00057972,0.,0.,-0.00057973,0.,0.,0.000
 08770,0.,0.,0.00008349,0.,0.,0.00008349,0.,0.,-0.00010532,0.,0.,-0.000
 10532,0.,0.,0.00008675,0.,0.,-0.03720241,0.,0.,0.05043461,0.00599873,0
 .,0.,-0.00019980,0.00108229,0.,-0.00019980,-0.00108229,0.,0.00019812,0
 .00005692,0.,0.00019812,-0.00005692,0.,0.00002084,0.,0.,-0.00004683,-0
 .00000597,0.,-0.00004683,0.00000597,0.,-0.00000660,0.00005471,0.,-0.00
 000660,-0.00005471,0.,-0.00001498,0.,0.,0.00276993,-0.00000004,0.,-0.0
 2411000,0.00000044,0.,0.01544570,0.,0.00059815,0.,-0.00010818,0.000042
 68,0.,0.00010818,0.00004268,0.,-0.00008434,0.00002221,0.,0.00008434,0.
 00002221,0.,0.,0.00011543,0.,-0.00003361,-0.00002593,0.,0.00003361,-0.
 00002593,0.,0.00001849,0.00002183,0.,-0.00001849,0.00002183,0.,0.,0.00
 001747,0.,0.,0.00504588,0.,0.00000038,-0.41929708,0.,-0.00000040,0.413
 39857,0.,0.,0.00481162,0.,0.,-0.00000868,0.,0.,-0.00000868,0.,0.,-0.00
 033570,0.,0.,-0.00033570,0.,0.,0.00003413,0.,0.,0.00019074,0.,0.,0.000
 19074,0.,0.,-0.00001127,0.,0.,-0.00001127,0.,0.,0.00006175,0.,0.,0.003
 17781,0.,0.,-0.02169712,0.,0.,0.01394163\\0.,-0.00000043,0.,-0.0000001
 8,-0.00000031,0.,0.00000019,-0.00000031,0.,-0.00000040,0.00000049,0.,0
 .00000040,0.00000050,0.,-0.00000002,0.00000057,0.,0.00000010,0.0000002
 1,0.,-0.00000009,0.00000021,0.,0.00000016,-0.00000027,0.,-0.00000015,-
 0.00000028,0.,0.,-0.00000022,0.,0.,-0.00000043,0.,-0.00000004,0.000000
 41,0.,0.00000003,-0.00000014,0.\\\@


 A COMPUTER IS LIKE A HORSE, IT WILL SENSE WEAKNESS.
     -- GREG WETTSTEIN
 Job cpu time:       0 days  1 hours 25 minutes 20.3 seconds.
 File lengths (MBytes):  RWF=     99 Int=      0 D2E=      0 Chk=      7 Scr=      1
 Normal termination of Gaussian 09 at Fri Jul  9 19:31:21 2021.
