 Entering Gaussian System, Link 0=g09
 Initial command:
 /home/minenky/programs//g09/l1.exe "/local/scratch/minenky/m1_00_569-41-5-C12H12_wB97XD/Gau-110217.inp" -scrdir="/local/scratch/minenky/m1_00_569-41-5-C12H12_wB97XD/"
 Entering Link 1 = /home/minenky/programs//g09/l1.exe PID=    110232.
  
 Copyright (c) 1988,1990,1992,1993,1995,1998,2003,2009,2013,
            Gaussian, Inc.  All Rights Reserved.
  
 This is part of the Gaussian(R) 09 program.  It is based on
 the Gaussian(R) 03 system (copyright 2003, Gaussian, Inc.),
 the Gaussian(R) 98 system (copyright 1998, Gaussian, Inc.),
 the Gaussian(R) 94 system (copyright 1995, Gaussian, Inc.),
 the Gaussian 92(TM) system (copyright 1992, Gaussian, Inc.),
 the Gaussian 90(TM) system (copyright 1990, Gaussian, Inc.),
 the Gaussian 88(TM) system (copyright 1988, Gaussian, Inc.),
 the Gaussian 86(TM) system (copyright 1986, Carnegie Mellon
 University), and the Gaussian 82(TM) system (copyright 1983,
 Carnegie Mellon University). Gaussian is a federally registered
 trademark of Gaussian, Inc.
  
 This software contains proprietary and confidential information,
 including trade secrets, belonging to Gaussian, Inc.
  
 This software is provided under written license and may be
 used, copied, transmitted, or stored only in accord with that
 written license.
  
 The following legend is applicable only to US Government
 contracts under FAR:
  
                    RESTRICTED RIGHTS LEGEND
  
 Use, reproduction and disclosure by the US Government is
 subject to restrictions as set forth in subparagraphs (a)
 and (c) of the Commercial Computer Software - Restricted
 Rights clause in FAR 52.227-19.
  
 Gaussian, Inc.
 340 Quinnipiac St., Bldg. 40, Wallingford CT 06492
  
  
 ---------------------------------------------------------------
 Warning -- This program may not be used in any manner that
 competes with the business of Gaussian, Inc. or will provide
 assistance to any competitor of Gaussian, Inc.  The licensee
 of this program is prohibited from giving any competitor of
 Gaussian, Inc. access to this program.  By using this program,
 the user acknowledges that Gaussian, Inc. is engaged in the
 business of creating and licensing software in the field of
 computational chemistry and represents and warrants to the
 licensee that it is not a competitor of Gaussian, Inc. and that
 it will not use this program in any manner prohibited above.
 ---------------------------------------------------------------
  

 Cite this work as:
 Gaussian 09, Revision D.01,
 M. J. Frisch, G. W. Trucks, H. B. Schlegel, G. E. Scuseria, 
 M. A. Robb, J. R. Cheeseman, G. Scalmani, V. Barone, B. Mennucci, 
 G. A. Petersson, H. Nakatsuji, M. Caricato, X. Li, H. P. Hratchian, 
 A. F. Izmaylov, J. Bloino, G. Zheng, J. L. Sonnenberg, M. Hada, 
 M. Ehara, K. Toyota, R. Fukuda, J. Hasegawa, M. Ishida, T. Nakajima, 
 Y. Honda, O. Kitao, H. Nakai, T. Vreven, J. A. Montgomery, Jr., 
 J. E. Peralta, F. Ogliaro, M. Bearpark, J. J. Heyd, E. Brothers, 
 K. N. Kudin, V. N. Staroverov, T. Keith, R. Kobayashi, J. Normand, 
 K. Raghavachari, A. Rendell, J. C. Burant, S. S. Iyengar, J. Tomasi, 
 M. Cossi, N. Rega, J. M. Millam, M. Klene, J. E. Knox, J. B. Cross, 
 V. Bakken, C. Adamo, J. Jaramillo, R. Gomperts, R. E. Stratmann, 
 O. Yazyev, A. J. Austin, R. Cammi, C. Pomelli, J. W. Ochterski, 
 R. L. Martin, K. Morokuma, V. G. Zakrzewski, G. A. Voth, 
 P. Salvador, J. J. Dannenberg, S. Dapprich, A. D. Daniels, 
 O. Farkas, J. B. Foresman, J. V. Ortiz, J. Cioslowski, 
 and D. J. Fox, Gaussian, Inc., Wallingford CT, 2013.
 
 ******************************************
 Gaussian 09:  AM64L-G09RevD.01 24-Apr-2013
                 9-Jul-2021 
 ******************************************
 %Mem=32000MB
 %NProcShared=16
 Will use up to   16 processors via shared memory.
 %Chk=m1_00_569-41-5-C12H12_wB97XD
 ----------------------------------------------------------------------
 #P wB97XD/def2tzvp opt=(tight) freq integral(Grid=ultrafine) # SCF(Max
 Cycle=380) 5d 7f GFPrint
 ----------------------------------------------------------------------
 1/7=10,14=-1,18=20,19=15,26=4,38=1/1,3;
 2/9=110,12=2,17=6,18=5,40=1/2;
 3/5=44,7=101,8=11,11=2,16=1,24=100,25=1,30=1,71=1,74=-58,75=-5/1,2,3;
 4//1;
 5/5=2,7=380,38=5/2;
 6/7=2,8=2,9=2,10=2,28=1/1;
 7//1,2,3,16;
 1/7=10,14=-1,18=20,19=15,26=4/3(2);
 2/9=110/2;
 99//99;
 2/9=110/2;
 3/5=44,7=101,8=11,11=2,16=1,25=1,30=1,71=1,74=-58,75=-5/1,2,3;
 4/5=5,16=3,69=1/1;
 5/5=2,7=380,38=5/2;
 7//1,2,3,16;
 1/7=10,14=-1,18=20,19=15,26=4/3(-5);
 2/9=110/2;
 6/7=2,8=2,9=2,10=2,19=2,28=1/1;
 99/9=1/99;
 Leave Link    1 at Fri Jul  9 19:19:35 2021, MaxMem=  4194304000 cpu:         1.4
 (Enter /home/minenky/programs//g09/l101.exe)
 ---------------------------------------
 The PBEPBE optimization and frequencies
 ---------------------------------------
 Symbolic Z-matrix:
 Charge =  0 Multiplicity = 1
 C                    -1.28015   0.83241  0. 
 C                    -1.47917   2.32919   0. 
 C                     0.        0.1756    0. 
 C                    -2.42855   0.07     0. 
 C                     0.       -1.26352   0. 
 C                     1.28015   0.83241   0. 
 C                    -2.41318  -1.33357  0. 
 C                     1.21574  -1.98608   0. 
 C                    -1.21574  -1.98608   0. 
 C                     1.47917   2.32919  0. 
 C                     2.42855   0.07     0. 
 C                     2.41318  -1.33356  0. 
 H                    -2.54559   2.55018  -0.00001 
 H                    -1.04757   2.80717   0.87855 
 H                    -1.04756   2.80719  -0.87853 
 H                    -3.38454   0.57872  -0.00001 
 H                    -3.34556  -1.88322  0. 
 H                     1.17122  -3.06807   0. 
 H                    -1.17121  -3.06807   0. 
 H                     2.54558   2.55019   0.00001 
 H                     1.04757   2.80718  -0.87854 
 H                     1.04756   2.80718   0.87853 
 H                     3.38454   0.57872  -0.00001 
 H                     3.34556  -1.88322  0. 
 
 NAtoms=     24 NQM=       24 NQMF=       0 NMMI=      0 NMMIF=      0
                NMic=       0 NMicF=      0.
                    Isotopes and Nuclear Properties:
 (Nuclear quadrupole moments (NQMom) in fm**2, nuclear magnetic moments (NMagM)
  in nuclear magnetons)

  Atom         1           2           3           4           5           6           7           8           9          10
 IAtWgt=          12          12          12          12          12          12          12          12          12          12
 AtmWgt=  12.0000000  12.0000000  12.0000000  12.0000000  12.0000000  12.0000000  12.0000000  12.0000000  12.0000000  12.0000000
 NucSpn=           0           0           0           0           0           0           0           0           0           0
 AtZEff=   0.0000000   0.0000000   0.0000000   0.0000000   0.0000000   0.0000000   0.0000000   0.0000000   0.0000000   0.0000000
 NQMom=    0.0000000   0.0000000   0.0000000   0.0000000   0.0000000   0.0000000   0.0000000   0.0000000   0.0000000   0.0000000
 NMagM=    0.0000000   0.0000000   0.0000000   0.0000000   0.0000000   0.0000000   0.0000000   0.0000000   0.0000000   0.0000000
 AtZNuc=   6.0000000   6.0000000   6.0000000   6.0000000   6.0000000   6.0000000   6.0000000   6.0000000   6.0000000   6.0000000

  Atom        11          12          13          14          15          16          17          18          19          20
 IAtWgt=          12          12           1           1           1           1           1           1           1           1
 AtmWgt=  12.0000000  12.0000000   1.0078250   1.0078250   1.0078250   1.0078250   1.0078250   1.0078250   1.0078250   1.0078250
 NucSpn=           0           0           1           1           1           1           1           1           1           1
 AtZEff=   0.0000000   0.0000000   0.0000000   0.0000000   0.0000000   0.0000000   0.0000000   0.0000000   0.0000000   0.0000000
 NQMom=    0.0000000   0.0000000   0.0000000   0.0000000   0.0000000   0.0000000   0.0000000   0.0000000   0.0000000   0.0000000
 NMagM=    0.0000000   0.0000000   2.7928460   2.7928460   2.7928460   2.7928460   2.7928460   2.7928460   2.7928460   2.7928460
 AtZNuc=   6.0000000   6.0000000   1.0000000   1.0000000   1.0000000   1.0000000   1.0000000   1.0000000   1.0000000   1.0000000

  Atom        21          22          23          24
 IAtWgt=           1           1           1           1
 AtmWgt=   1.0078250   1.0078250   1.0078250   1.0078250
 NucSpn=           1           1           1           1
 AtZEff=   0.0000000   0.0000000   0.0000000   0.0000000
 NQMom=    0.0000000   0.0000000   0.0000000   0.0000000
 NMagM=    2.7928460   2.7928460   2.7928460   2.7928460
 AtZNuc=   1.0000000   1.0000000   1.0000000   1.0000000
 Leave Link  101 at Fri Jul  9 19:19:35 2021, MaxMem=  4194304000 cpu:         1.3
 (Enter /home/minenky/programs//g09/l103.exe)

 GradGradGradGradGradGradGradGradGradGradGradGradGradGradGradGradGradGrad
 Berny optimization.
 Initialization pass.
                           ----------------------------
                           !    Initial Parameters    !
                           ! (Angstroms and Degrees)  !
 --------------------------                            --------------------------
 ! Name  Definition              Value          Derivative Info.                !
 --------------------------------------------------------------------------------
 ! R1    R(1,2)                  1.51           estimate D2E/DX2                !
 ! R2    R(1,3)                  1.4388         estimate D2E/DX2                !
 ! R3    R(1,4)                  1.3784         estimate D2E/DX2                !
 ! R4    R(2,13)                 1.0891         estimate D2E/DX2                !
 ! R5    R(2,14)                 1.0893         estimate D2E/DX2                !
 ! R6    R(2,15)                 1.0893         estimate D2E/DX2                !
 ! R7    R(3,5)                  1.4391         estimate D2E/DX2                !
 ! R8    R(3,6)                  1.4388         estimate D2E/DX2                !
 ! R9    R(4,7)                  1.4036         estimate D2E/DX2                !
 ! R10   R(4,16)                 1.0829         estimate D2E/DX2                !
 ! R11   R(5,8)                  1.4143         estimate D2E/DX2                !
 ! R12   R(5,9)                  1.4143         estimate D2E/DX2                !
 ! R13   R(6,10)                 1.51           estimate D2E/DX2                !
 ! R14   R(6,11)                 1.3784         estimate D2E/DX2                !
 ! R15   R(7,9)                  1.3637         estimate D2E/DX2                !
 ! R16   R(7,17)                 1.0823         estimate D2E/DX2                !
 ! R17   R(8,12)                 1.3637         estimate D2E/DX2                !
 ! R18   R(8,18)                 1.0829         estimate D2E/DX2                !
 ! R19   R(9,19)                 1.0829         estimate D2E/DX2                !
 ! R20   R(10,20)                1.0891         estimate D2E/DX2                !
 ! R21   R(10,21)                1.0893         estimate D2E/DX2                !
 ! R22   R(10,22)                1.0893         estimate D2E/DX2                !
 ! R23   R(11,12)                1.4036         estimate D2E/DX2                !
 ! R24   R(11,23)                1.0829         estimate D2E/DX2                !
 ! R25   R(12,24)                1.0823         estimate D2E/DX2                !
 ! A1    A(2,1,3)              124.7347         estimate D2E/DX2                !
 ! A2    A(2,1,4)              116.006          estimate D2E/DX2                !
 ! A3    A(3,1,4)              119.2593         estimate D2E/DX2                !
 ! A4    A(1,2,13)             109.2813         estimate D2E/DX2                !
 ! A5    A(1,2,14)             112.504          estimate D2E/DX2                !
 ! A6    A(1,2,15)             112.5041         estimate D2E/DX2                !
 ! A7    A(13,2,14)            107.394          estimate D2E/DX2                !
 ! A8    A(13,2,15)            107.394          estimate D2E/DX2                !
 ! A9    A(14,2,15)            107.513          estimate D2E/DX2                !
 ! A10   A(1,3,5)              117.1609         estimate D2E/DX2                !
 ! A11   A(1,3,6)              125.6781         estimate D2E/DX2                !
 ! A12   A(5,3,6)              117.1609         estimate D2E/DX2                !
 ! A13   A(1,4,7)              122.9521         estimate D2E/DX2                !
 ! A14   A(1,4,16)             118.4011         estimate D2E/DX2                !
 ! A15   A(7,4,16)             118.6468         estimate D2E/DX2                !
 ! A16   A(3,5,8)              120.7245         estimate D2E/DX2                !
 ! A17   A(3,5,9)              120.7246         estimate D2E/DX2                !
 ! A18   A(8,5,9)              118.5509         estimate D2E/DX2                !
 ! A19   A(3,6,10)             124.7347         estimate D2E/DX2                !
 ! A20   A(3,6,11)             119.2593         estimate D2E/DX2                !
 ! A21   A(10,6,11)            116.006          estimate D2E/DX2                !
 ! A22   A(4,7,9)              119.2146         estimate D2E/DX2                !
 ! A23   A(4,7,17)             119.8922         estimate D2E/DX2                !
 ! A24   A(9,7,17)             120.8932         estimate D2E/DX2                !
 ! A25   A(5,8,12)             120.6885         estimate D2E/DX2                !
 ! A26   A(5,8,18)             118.3682         estimate D2E/DX2                !
 ! A27   A(12,8,18)            120.9432         estimate D2E/DX2                !
 ! A28   A(5,9,7)              120.6885         estimate D2E/DX2                !
 ! A29   A(5,9,19)             118.3682         estimate D2E/DX2                !
 ! A30   A(7,9,19)             120.9433         estimate D2E/DX2                !
 ! A31   A(6,10,20)            109.2813         estimate D2E/DX2                !
 ! A32   A(6,10,21)            112.504          estimate D2E/DX2                !
 ! A33   A(6,10,22)            112.504          estimate D2E/DX2                !
 ! A34   A(20,10,21)           107.394          estimate D2E/DX2                !
 ! A35   A(20,10,22)           107.394          estimate D2E/DX2                !
 ! A36   A(21,10,22)           107.513          estimate D2E/DX2                !
 ! A37   A(6,11,12)            122.9521         estimate D2E/DX2                !
 ! A38   A(6,11,23)            118.4011         estimate D2E/DX2                !
 ! A39   A(12,11,23)           118.6468         estimate D2E/DX2                !
 ! A40   A(8,12,11)            119.2146         estimate D2E/DX2                !
 ! A41   A(8,12,24)            120.8932         estimate D2E/DX2                !
 ! A42   A(11,12,24)           119.8922         estimate D2E/DX2                !
 ! D1    D(3,1,2,13)           179.9998         estimate D2E/DX2                !
 ! D2    D(3,1,2,14)           -60.808          estimate D2E/DX2                !
 ! D3    D(3,1,2,15)            60.8074         estimate D2E/DX2                !
 ! D4    D(4,1,2,13)            -0.0006         estimate D2E/DX2                !
 ! D5    D(4,1,2,14)           119.1916         estimate D2E/DX2                !
 ! D6    D(4,1,2,15)          -119.193          estimate D2E/DX2                !
 ! D7    D(2,1,3,5)            179.9997         estimate D2E/DX2                !
 ! D8    D(2,1,3,6)             -0.0005         estimate D2E/DX2                !
 ! D9    D(4,1,3,5)              0.0001         estimate D2E/DX2                !
 ! D10   D(4,1,3,6)            179.9999         estimate D2E/DX2                !
 ! D11   D(2,1,4,7)           -179.9997         estimate D2E/DX2                !
 ! D12   D(2,1,4,16)             0.0003         estimate D2E/DX2                !
 ! D13   D(3,1,4,7)             -0.0001         estimate D2E/DX2                !
 ! D14   D(3,1,4,16)           179.9999         estimate D2E/DX2                !
 ! D15   D(1,3,5,8)            179.9998         estimate D2E/DX2                !
 ! D16   D(1,3,5,9)             -0.0001         estimate D2E/DX2                !
 ! D17   D(6,3,5,8)              0.0            estimate D2E/DX2                !
 ! D18   D(6,3,5,9)           -180.0            estimate D2E/DX2                !
 ! D19   D(1,3,6,10)             0.0            estimate D2E/DX2                !
 ! D20   D(1,3,6,11)          -179.9996         estimate D2E/DX2                !
 ! D21   D(5,3,6,10)           179.9998         estimate D2E/DX2                !
 ! D22   D(5,3,6,11)             0.0002         estimate D2E/DX2                !
 ! D23   D(1,4,7,9)              0.0            estimate D2E/DX2                !
 ! D24   D(1,4,7,17)          -179.9999         estimate D2E/DX2                !
 ! D25   D(16,4,7,9)          -180.0            estimate D2E/DX2                !
 ! D26   D(16,4,7,17)            0.0            estimate D2E/DX2                !
 ! D27   D(3,5,8,12)            -0.0001         estimate D2E/DX2                !
 ! D28   D(3,5,8,18)           179.9999         estimate D2E/DX2                !
 ! D29   D(9,5,8,12)           179.9998         estimate D2E/DX2                !
 ! D30   D(9,5,8,18)            -0.0001         estimate D2E/DX2                !
 ! D31   D(3,5,9,7)              0.0001         estimate D2E/DX2                !
 ! D32   D(3,5,9,19)          -179.9999         estimate D2E/DX2                !
 ! D33   D(8,5,9,7)           -179.9999         estimate D2E/DX2                !
 ! D34   D(8,5,9,19)             0.0002         estimate D2E/DX2                !
 ! D35   D(3,6,10,20)          179.9997         estimate D2E/DX2                !
 ! D36   D(3,6,10,21)          -60.808          estimate D2E/DX2                !
 ! D37   D(3,6,10,22)           60.8073         estimate D2E/DX2                !
 ! D38   D(11,6,10,20)          -0.0007         estimate D2E/DX2                !
 ! D39   D(11,6,10,21)         119.1916         estimate D2E/DX2                !
 ! D40   D(11,6,10,22)        -119.193          estimate D2E/DX2                !
 ! D41   D(3,6,11,12)           -0.0002         estimate D2E/DX2                !
 ! D42   D(3,6,11,23)          179.9998         estimate D2E/DX2                !
 ! D43   D(10,6,11,12)        -179.9999         estimate D2E/DX2                !
 ! D44   D(10,6,11,23)           0.0002         estimate D2E/DX2                !
 ! D45   D(4,7,9,5)             -0.0001         estimate D2E/DX2                !
 ! D46   D(4,7,9,19)           179.9999         estimate D2E/DX2                !
 ! D47   D(17,7,9,5)           179.9999         estimate D2E/DX2                !
 ! D48   D(17,7,9,19)           -0.0001         estimate D2E/DX2                !
 ! D49   D(5,8,12,11)            0.0001         estimate D2E/DX2                !
 ! D50   D(5,8,12,24)         -179.9999         estimate D2E/DX2                !
 ! D51   D(18,8,12,11)        -180.0            estimate D2E/DX2                !
 ! D52   D(18,8,12,24)           0.0            estimate D2E/DX2                !
 ! D53   D(6,11,12,8)            0.0001         estimate D2E/DX2                !
 ! D54   D(6,11,12,24)        -179.9999         estimate D2E/DX2                !
 ! D55   D(23,11,12,8)        -180.0            estimate D2E/DX2                !
 ! D56   D(23,11,12,24)          0.0            estimate D2E/DX2                !
 --------------------------------------------------------------------------------
 Trust Radius=3.00D-01 FncErr=1.00D-07 GrdErr=1.00D-06
 Number of steps in this run=    133 maximum allowed number of steps=    144.
 GradGradGradGradGradGradGradGradGradGradGradGradGradGradGradGradGradGrad

 Leave Link  103 at Fri Jul  9 19:19:36 2021, MaxMem=  4194304000 cpu:         0.0
 (Enter /home/minenky/programs//g09/l202.exe)
                          Input orientation:                          
 ---------------------------------------------------------------------
 Center     Atomic      Atomic             Coordinates (Angstroms)
 Number     Number       Type             X           Y           Z
 ---------------------------------------------------------------------
      1          6           0       -1.280154    0.832409   -0.000002
      2          6           0       -1.479171    2.329193    0.000003
      3          6           0        0.000000    0.175602    0.000002
      4          6           0       -2.428551    0.070000   -0.000003
      5          6           0        0.000000   -1.263519    0.000002
      6          6           0        1.280154    0.832409    0.000002
      7          6           0       -2.413175   -1.333565   -0.000002
      8          6           0        1.215738   -1.986075    0.000002
      9          6           0       -1.215737   -1.986076    0.000001
     10          6           0        1.479170    2.329194   -0.000002
     11          6           0        2.428551    0.070001   -0.000002
     12          6           0        2.413176   -1.333564   -0.000001
     13          1           0       -2.545586    2.550183   -0.000005
     14          1           0       -1.047572    2.807174    0.878546
     15          1           0       -1.047555    2.807185   -0.878526
     16          1           0       -3.384544    0.578720   -0.000005
     17          1           0       -3.345560   -1.883217   -0.000004
     18          1           0        1.171216   -3.068069    0.000003
     19          1           0       -1.171214   -3.068070    0.000003
     20          1           0        2.545584    2.550185    0.000005
     21          1           0        1.047568    2.807176   -0.878543
     22          1           0        1.047555    2.807183    0.878529
     23          1           0        3.384543    0.578722   -0.000005
     24          1           0        3.345561   -1.883216   -0.000003
 ---------------------------------------------------------------------
                    Distance matrix (angstroms):
                    1          2          3          4          5
     1  C    0.000000
     2  C    1.509957   0.000000
     3  C    1.438815   2.612643   0.000000
     4  C    1.378435   2.450566   2.430846   0.000000
     5  C    2.455954   3.885296   1.439121   2.770583   0.000000
     6  C    2.560308   3.139146   1.438815   3.786259   2.455954
     7  C    2.444418   3.779968   2.846225   1.403649   2.414191
     8  C    3.764748   5.087639   2.480094   4.184290   1.414251
     9  C    2.819221   4.323302   2.480094   2.387125   1.414251
    10  C    3.139145   2.958341   2.612643   4.513783   3.885297
    11  C    3.786259   4.513783   2.430846   4.857102   2.770584
    12  C    4.281603   5.344731   2.846226   5.041063   2.414192
    13  H    2.133557   1.089072   3.481184   2.482943   4.585230
    14  H    2.173853   1.089303   2.965538   3.189212   4.294157
    15  H    2.173855   1.089303   2.965537   3.189222   4.294160
    16  H    2.119626   2.587393   3.408466   1.082921   3.853438
    17  H    3.411822   4.607364   3.928296   2.157768   3.402469
    18  H    4.606837   6.012902   3.448644   4.775542   2.151313
    19  H    3.902000   5.406042   3.448645   3.380589   2.151313
    20  H    4.193689   4.030818   3.481184   5.558177   4.585230
    21  H    3.176449   2.717484   2.965539   4.510806   4.294159
    22  H    3.176441   2.717467   2.965535   4.510798   4.294158
    23  H    4.671590   5.169126   3.408465   5.835311   3.853438
    24  H    5.363941   6.404875   3.928296   6.095525   3.402470
                    6          7          8          9         10
     6  C    0.000000
     7  C    4.281603   0.000000
     8  C    2.819220   3.687110   0.000000
     9  C    3.764748   1.363682   2.431475   0.000000
    10  C    1.509958   5.344731   4.323302   5.087640   0.000000
    11  C    1.378434   5.041062   2.387125   4.184291   2.450567
    12  C    2.444418   4.826351   1.363682   3.687110   3.779969
    13  H    4.193690   3.886005   5.892809   4.727171   4.030818
    14  H    3.176452   4.447745   5.373048   4.875999   2.717487
    15  H    3.176442   4.447756   5.373048   4.876007   2.717466
    16  H    4.671591   2.144852   5.266951   3.358854   5.169127
    17  H    5.363940   1.082340   4.562458   2.132305   6.404875
    18  H    3.901999   3.982005   1.082910   2.620735   5.406041
    19  H    4.606836   2.133301   2.620735   1.082910   6.012902
    20  H    2.133557   6.298635   4.727171   5.892809   1.089071
    21  H    2.173854   5.467569   4.876000   5.373049   1.089303
    22  H    2.173855   5.467565   4.876004   5.373047   1.089303
    23  H    2.119625   6.104947   3.358854   5.266950   2.587392
    24  H    3.411821   5.784908   2.132305   4.562458   4.607365
                   11         12         13         14         15
    11  C    0.000000
    12  C    1.403649   0.000000
    13  H    5.558178   6.298636   0.000000
    14  H    4.510809   5.467571   1.755546   0.000000
    15  H    4.510797   5.467565   1.755547   1.757072   0.000000
    16  H    5.835312   6.104948   2.142549   3.346535   3.346546
    17  H    6.095524   5.784908   4.504997   5.296448   5.296461
    18  H    3.380588   2.133301   6.736421   6.341399   6.341401
    19  H    4.775542   3.982005   5.783914   5.941853   5.941862
    20  H    2.482944   3.886005   5.091170   3.707917   3.707899
    21  H    3.189212   4.447747   3.707915   2.734405   2.095123
    22  H    3.189221   4.447755   3.707901   2.095127   2.734361
    23  H    1.082921   2.144852   6.249247   5.038005   5.037990
    24  H    2.157768   1.082340   7.372967   6.486233   6.486226
                   16         17         18         19         20
    16  H    0.000000
    17  H    2.462246   0.000000
    18  H    5.835582   4.669597   0.000000
    19  H    4.265900   2.476218   2.342430   0.000000
    20  H    6.249247   7.372966   5.783914   6.736422   0.000000
    21  H    5.038002   6.486231   5.941855   6.341400   1.755546
    22  H    5.037993   6.486226   5.941859   6.341399   1.755546
    23  H    6.769087   7.166270   4.265900   5.835582   2.142550
    24  H    7.166271   6.691121   2.476217   4.669597   4.504998
                   21         22         23         24
    21  H    0.000000
    22  H    1.757072   0.000000
    23  H    3.346534   3.346546   0.000000
    24  H    5.296450   5.296460   2.462247   0.000000
 Stoichiometry    C12H12
 Framework group  C1[X(C12H12)]
 Deg. of freedom    66
 Full point group                 C1      NOp   1
 Largest Abelian subgroup         C1      NOp   1
 Largest concise Abelian subgroup C1      NOp   1
                         Standard orientation:                         
 ---------------------------------------------------------------------
 Center     Atomic      Atomic             Coordinates (Angstroms)
 Number     Number       Type             X           Y           Z
 ---------------------------------------------------------------------
      1          6           0        1.280154   -0.832409   -0.000002
      2          6           0        1.479171   -2.329193    0.000003
      3          6           0        0.000000   -0.175602    0.000002
      4          6           0        2.428551   -0.070000   -0.000003
      5          6           0        0.000000    1.263519    0.000002
      6          6           0       -1.280154   -0.832409    0.000002
      7          6           0        2.413175    1.333565   -0.000002
      8          6           0       -1.215738    1.986075    0.000002
      9          6           0        1.215737    1.986076    0.000001
     10          6           0       -1.479170   -2.329194   -0.000002
     11          6           0       -2.428551   -0.070001   -0.000002
     12          6           0       -2.413176    1.333564   -0.000001
     13          1           0        2.545586   -2.550183   -0.000005
     14          1           0        1.047572   -2.807174    0.878546
     15          1           0        1.047555   -2.807185   -0.878526
     16          1           0        3.384544   -0.578720   -0.000005
     17          1           0        3.345560    1.883217   -0.000004
     18          1           0       -1.171216    3.068069    0.000003
     19          1           0        1.171214    3.068070    0.000003
     20          1           0       -2.545584   -2.550185    0.000005
     21          1           0       -1.047568   -2.807176   -0.878543
     22          1           0       -1.047555   -2.807183    0.878529
     23          1           0       -3.384543   -0.578722   -0.000005
     24          1           0       -3.345561    1.883216   -0.000003
 ---------------------------------------------------------------------
 Rotational constants (GHZ):      1.3360979      1.0580822      0.5947988
 Leave Link  202 at Fri Jul  9 19:19:36 2021, MaxMem=  4194304000 cpu:         0.7
 (Enter /home/minenky/programs//g09/l301.exe)
 Standard basis: def2TZVP (5D, 7F)
 ======================================================================================================
                                       Pseudopotential Parameters
 ======================================================================================================
  Center     Atomic      Valence      Angular      Power
  Number     Number     Electrons     Momentum     of R      Exponent        Coefficient   SO-Coeffient
 ======================================================================================================
    1          6
                                   No pseudopotential on this center.
    2          6
                                   No pseudopotential on this center.
    3          6
                                   No pseudopotential on this center.
    4          6
                                   No pseudopotential on this center.
    5          6
                                   No pseudopotential on this center.
    6          6
                                   No pseudopotential on this center.
    7          6
                                   No pseudopotential on this center.
    8          6
                                   No pseudopotential on this center.
    9          6
                                   No pseudopotential on this center.
   10          6
                                   No pseudopotential on this center.
   11          6
                                   No pseudopotential on this center.
   12          6
                                   No pseudopotential on this center.
   13          1
                                   No pseudopotential on this center.
   14          1
                                   No pseudopotential on this center.
   15          1
                                   No pseudopotential on this center.
   16          1
                                   No pseudopotential on this center.
   17          1
                                   No pseudopotential on this center.
   18          1
                                   No pseudopotential on this center.
   19          1
                                   No pseudopotential on this center.
   20          1
                                   No pseudopotential on this center.
   21          1
                                   No pseudopotential on this center.
   22          1
                                   No pseudopotential on this center.
   23          1
                                   No pseudopotential on this center.
   24          1
                                   No pseudopotential on this center.
 ======================================================================================================
 Ernie: Thresh=  0.10000D-02 Tol=  0.10000D-05 Strict=F.
 AO basis set (Overlap normalization):
 Atom C1       Shell     1 S   6     bf    1 -     1          2.419140419322         -1.573024959512         -0.000003666969
      0.1357534968D+05  0.6064550360D-03
      0.2035233368D+04  0.4697908888D-02
      0.4632256236D+03  0.2433247765D-01
      0.1312001960D+03  0.9739996831D-01
      0.4285301589D+02  0.3019558425D+00
      0.1558418577D+02  0.6623360914D+00
 Atom C1       Shell     2 S   2     bf    2 -     2          2.419140419322         -1.573024959512         -0.000003666969
      0.6206713851D+01  0.6559530854D+00
      0.2576489653D+01  0.3758563329D+00
 Atom C1       Shell     3 S   1     bf    3 -     3          2.419140419322         -1.573024959512         -0.000003666969
      0.5769633942D+00  0.1000000000D+01
 Atom C1       Shell     4 S   1     bf    4 -     4          2.419140419322         -1.573024959512         -0.000003666969
      0.2297283136D+00  0.1000000000D+01
 Atom C1       Shell     5 S   1     bf    5 -     5          2.419140419322         -1.573024959512         -0.000003666969
      0.9516444003D-01  0.1000000000D+01
 Atom C1       Shell     6 P   4     bf    6 -     8          2.419140419322         -1.573024959512         -0.000003666969
      0.3469723224D+02  0.1132722000D-01
      0.7958262283D+01  0.7616965920D-01
      0.2378082688D+01  0.3019225220D+00
      0.8143320818D+00  0.7278502735D+00
 Atom C1       Shell     7 P   1     bf    9 -    11          2.419140419322         -1.573024959512         -0.000003666969
      0.2888754725D+00  0.1000000000D+01
 Atom C1       Shell     8 P   1     bf   12 -    14          2.419140419322         -1.573024959512         -0.000003666969
      0.1005682367D+00  0.1000000000D+01
 Atom C1       Shell     9 D   1     bf   15 -    19          2.419140419322         -1.573024959512         -0.000003666969
      0.1097000000D+01  0.1000000000D+01
 Atom C1       Shell    10 D   1     bf   20 -    24          2.419140419322         -1.573024959512         -0.000003666969
      0.3180000000D+00  0.1000000000D+01
 Atom C1       Shell    11 F   1     bf   25 -    31          2.419140419322         -1.573024959512         -0.000003666969
      0.7610000000D+00  0.1000000000D+01
 Atom C2       Shell    12 S   6     bf   32 -    32          2.795227876825         -4.401536821973          0.000005781662
      0.1357534968D+05  0.6064550360D-03
      0.2035233368D+04  0.4697908888D-02
      0.4632256236D+03  0.2433247765D-01
      0.1312001960D+03  0.9739996831D-01
      0.4285301589D+02  0.3019558425D+00
      0.1558418577D+02  0.6623360914D+00
 Atom C2       Shell    13 S   2     bf   33 -    33          2.795227876825         -4.401536821973          0.000005781662
      0.6206713851D+01  0.6559530854D+00
      0.2576489653D+01  0.3758563329D+00
 Atom C2       Shell    14 S   1     bf   34 -    34          2.795227876825         -4.401536821973          0.000005781662
      0.5769633942D+00  0.1000000000D+01
 Atom C2       Shell    15 S   1     bf   35 -    35          2.795227876825         -4.401536821973          0.000005781662
      0.2297283136D+00  0.1000000000D+01
 Atom C2       Shell    16 S   1     bf   36 -    36          2.795227876825         -4.401536821973          0.000005781662
      0.9516444003D-01  0.1000000000D+01
 Atom C2       Shell    17 P   4     bf   37 -    39          2.795227876825         -4.401536821973          0.000005781662
      0.3469723224D+02  0.1132722000D-01
      0.7958262283D+01  0.7616965920D-01
      0.2378082688D+01  0.3019225220D+00
      0.8143320818D+00  0.7278502735D+00
 Atom C2       Shell    18 P   1     bf   40 -    42          2.795227876825         -4.401536821973          0.000005781662
      0.2888754725D+00  0.1000000000D+01
 Atom C2       Shell    19 P   1     bf   43 -    45          2.795227876825         -4.401536821973          0.000005781662
      0.1005682367D+00  0.1000000000D+01
 Atom C2       Shell    20 D   1     bf   46 -    50          2.795227876825         -4.401536821973          0.000005781662
      0.1097000000D+01  0.1000000000D+01
 Atom C2       Shell    21 D   1     bf   51 -    55          2.795227876825         -4.401536821973          0.000005781662
      0.3180000000D+00  0.1000000000D+01
 Atom C2       Shell    22 F   1     bf   56 -    62          2.795227876825         -4.401536821973          0.000005781662
      0.7610000000D+00  0.1000000000D+01
 Atom C3       Shell    23 S   6     bf   63 -    63          0.000000025250         -0.331839463420          0.000003891936
      0.1357534968D+05  0.6064550360D-03
      0.2035233368D+04  0.4697908888D-02
      0.4632256236D+03  0.2433247765D-01
      0.1312001960D+03  0.9739996831D-01
      0.4285301589D+02  0.3019558425D+00
      0.1558418577D+02  0.6623360914D+00
 Atom C3       Shell    24 S   2     bf   64 -    64          0.000000025250         -0.331839463420          0.000003891936
      0.6206713851D+01  0.6559530854D+00
      0.2576489653D+01  0.3758563329D+00
 Atom C3       Shell    25 S   1     bf   65 -    65          0.000000025250         -0.331839463420          0.000003891936
      0.5769633942D+00  0.1000000000D+01
 Atom C3       Shell    26 S   1     bf   66 -    66          0.000000025250         -0.331839463420          0.000003891936
      0.2297283136D+00  0.1000000000D+01
 Atom C3       Shell    27 S   1     bf   67 -    67          0.000000025250         -0.331839463420          0.000003891936
      0.9516444003D-01  0.1000000000D+01
 Atom C3       Shell    28 P   4     bf   68 -    70          0.000000025250         -0.331839463420          0.000003891936
      0.3469723224D+02  0.1132722000D-01
      0.7958262283D+01  0.7616965920D-01
      0.2378082688D+01  0.3019225220D+00
      0.8143320818D+00  0.7278502735D+00
 Atom C3       Shell    29 P   1     bf   71 -    73          0.000000025250         -0.331839463420          0.000003891936
      0.2888754725D+00  0.1000000000D+01
 Atom C3       Shell    30 P   1     bf   74 -    76          0.000000025250         -0.331839463420          0.000003891936
      0.1005682367D+00  0.1000000000D+01
 Atom C3       Shell    31 D   1     bf   77 -    81          0.000000025250         -0.331839463420          0.000003891936
      0.1097000000D+01  0.1000000000D+01
 Atom C3       Shell    32 D   1     bf   82 -    86          0.000000025250         -0.331839463420          0.000003891936
      0.3180000000D+00  0.1000000000D+01
 Atom C3       Shell    33 F   1     bf   87 -    93          0.000000025250         -0.331839463420          0.000003891936
      0.7610000000D+00  0.1000000000D+01
 Atom C4       Shell    34 S   6     bf   94 -    94          4.589296326869         -0.132280877381         -0.000005556695
      0.1357534968D+05  0.6064550360D-03
      0.2035233368D+04  0.4697908888D-02
      0.4632256236D+03  0.2433247765D-01
      0.1312001960D+03  0.9739996831D-01
      0.4285301589D+02  0.3019558425D+00
      0.1558418577D+02  0.6623360914D+00
 Atom C4       Shell    35 S   2     bf   95 -    95          4.589296326869         -0.132280877381         -0.000005556695
      0.6206713851D+01  0.6559530854D+00
      0.2576489653D+01  0.3758563329D+00
 Atom C4       Shell    36 S   1     bf   96 -    96          4.589296326869         -0.132280877381         -0.000005556695
      0.5769633942D+00  0.1000000000D+01
 Atom C4       Shell    37 S   1     bf   97 -    97          4.589296326869         -0.132280877381         -0.000005556695
      0.2297283136D+00  0.1000000000D+01
 Atom C4       Shell    38 S   1     bf   98 -    98          4.589296326869         -0.132280877381         -0.000005556695
      0.9516444003D-01  0.1000000000D+01
 Atom C4       Shell    39 P   4     bf   99 -   101          4.589296326869         -0.132280877381         -0.000005556695
      0.3469723224D+02  0.1132722000D-01
      0.7958262283D+01  0.7616965920D-01
      0.2378082688D+01  0.3019225220D+00
      0.8143320818D+00  0.7278502735D+00
 Atom C4       Shell    40 P   1     bf  102 -   104          4.589296326869         -0.132280877381         -0.000005556695
      0.2888754725D+00  0.1000000000D+01
 Atom C4       Shell    41 P   1     bf  105 -   107          4.589296326869         -0.132280877381         -0.000005556695
      0.1005682367D+00  0.1000000000D+01
 Atom C4       Shell    42 D   1     bf  108 -   112          4.589296326869         -0.132280877381         -0.000005556695
      0.1097000000D+01  0.1000000000D+01
 Atom C4       Shell    43 D   1     bf  113 -   117          4.589296326869         -0.132280877381         -0.000005556695
      0.3180000000D+00  0.1000000000D+01
 Atom C4       Shell    44 F   1     bf  118 -   124          4.589296326869         -0.132280877381         -0.000005556695
      0.7610000000D+00  0.1000000000D+01
 Atom C5       Shell    45 S   6     bf  125 -   125          0.000000187053          2.387705098665          0.000003891936
      0.1357534968D+05  0.6064550360D-03
      0.2035233368D+04  0.4697908888D-02
      0.4632256236D+03  0.2433247765D-01
      0.1312001960D+03  0.9739996831D-01
      0.4285301589D+02  0.3019558425D+00
      0.1558418577D+02  0.6623360914D+00
 Atom C5       Shell    46 S   2     bf  126 -   126          0.000000187053          2.387705098665          0.000003891936
      0.6206713851D+01  0.6559530854D+00
      0.2576489653D+01  0.3758563329D+00
 Atom C5       Shell    47 S   1     bf  127 -   127          0.000000187053          2.387705098665          0.000003891936
      0.5769633942D+00  0.1000000000D+01
 Atom C5       Shell    48 S   1     bf  128 -   128          0.000000187053          2.387705098665          0.000003891936
      0.2297283136D+00  0.1000000000D+01
 Atom C5       Shell    49 S   1     bf  129 -   129          0.000000187053          2.387705098665          0.000003891936
      0.9516444003D-01  0.1000000000D+01
 Atom C5       Shell    50 P   4     bf  130 -   132          0.000000187053          2.387705098665          0.000003891936
      0.3469723224D+02  0.1132722000D-01
      0.7958262283D+01  0.7616965920D-01
      0.2378082688D+01  0.3019225220D+00
      0.8143320818D+00  0.7278502735D+00
 Atom C5       Shell    51 P   1     bf  133 -   135          0.000000187053          2.387705098665          0.000003891936
      0.2888754725D+00  0.1000000000D+01
 Atom C5       Shell    52 P   1     bf  136 -   138          0.000000187053          2.387705098665          0.000003891936
      0.1005682367D+00  0.1000000000D+01
 Atom C5       Shell    53 D   1     bf  139 -   143          0.000000187053          2.387705098665          0.000003891936
      0.1097000000D+01  0.1000000000D+01
 Atom C5       Shell    54 D   1     bf  144 -   148          0.000000187053          2.387705098665          0.000003891936
      0.3180000000D+00  0.1000000000D+01
 Atom C5       Shell    55 F   1     bf  149 -   155          0.000000187053          2.387705098665          0.000003891936
      0.7610000000D+00  0.1000000000D+01
 Atom C6       Shell    56 S   6     bf  156 -   156         -2.419140516514         -1.573024671652          0.000003891936
      0.1357534968D+05  0.6064550360D-03
      0.2035233368D+04  0.4697908888D-02
      0.4632256236D+03  0.2433247765D-01
      0.1312001960D+03  0.9739996831D-01
      0.4285301589D+02  0.3019558425D+00
      0.1558418577D+02  0.6623360914D+00
 Atom C6       Shell    57 S   2     bf  157 -   157         -2.419140516514         -1.573024671652          0.000003891936
      0.6206713851D+01  0.6559530854D+00
      0.2576489653D+01  0.3758563329D+00
 Atom C6       Shell    58 S   1     bf  158 -   158         -2.419140516514         -1.573024671652          0.000003891936
      0.5769633942D+00  0.1000000000D+01
 Atom C6       Shell    59 S   1     bf  159 -   159         -2.419140516514         -1.573024671652          0.000003891936
      0.2297283136D+00  0.1000000000D+01
 Atom C6       Shell    60 S   1     bf  160 -   160         -2.419140516514         -1.573024671652          0.000003891936
      0.9516444003D-01  0.1000000000D+01
 Atom C6       Shell    61 P   4     bf  161 -   163         -2.419140516514         -1.573024671652          0.000003891936
      0.3469723224D+02  0.1132722000D-01
      0.7958262283D+01  0.7616965920D-01
      0.2378082688D+01  0.3019225220D+00
      0.8143320818D+00  0.7278502735D+00
 Atom C6       Shell    62 P   1     bf  164 -   166         -2.419140516514         -1.573024671652          0.000003891936
      0.2888754725D+00  0.1000000000D+01
 Atom C6       Shell    63 P   1     bf  167 -   169         -2.419140516514         -1.573024671652          0.000003891936
      0.1005682367D+00  0.1000000000D+01
 Atom C6       Shell    64 D   1     bf  170 -   174         -2.419140516514         -1.573024671652          0.000003891936
      0.1097000000D+01  0.1000000000D+01
 Atom C6       Shell    65 D   1     bf  175 -   179         -2.419140516514         -1.573024671652          0.000003891936
      0.3180000000D+00  0.1000000000D+01
 Atom C6       Shell    66 F   1     bf  180 -   186         -2.419140516514         -1.573024671652          0.000003891936
      0.7610000000D+00  0.1000000000D+01
 Atom C7       Shell    67 S   6     bf  187 -   187          4.560240055655          2.520072584051         -0.000003666969
      0.1357534968D+05  0.6064550360D-03
      0.2035233368D+04  0.4697908888D-02
      0.4632256236D+03  0.2433247765D-01
      0.1312001960D+03  0.9739996831D-01
      0.4285301589D+02  0.3019558425D+00
      0.1558418577D+02  0.6623360914D+00
 Atom C7       Shell    68 S   2     bf  188 -   188          4.560240055655          2.520072584051         -0.000003666969
      0.6206713851D+01  0.6559530854D+00
      0.2576489653D+01  0.3758563329D+00
 Atom C7       Shell    69 S   1     bf  189 -   189          4.560240055655          2.520072584051         -0.000003666969
      0.5769633942D+00  0.1000000000D+01
 Atom C7       Shell    70 S   1     bf  190 -   190          4.560240055655          2.520072584051         -0.000003666969
      0.2297283136D+00  0.1000000000D+01
 Atom C7       Shell    71 S   1     bf  191 -   191          4.560240055655          2.520072584051         -0.000003666969
      0.9516444003D-01  0.1000000000D+01
 Atom C7       Shell    72 P   4     bf  192 -   194          4.560240055655          2.520072584051         -0.000003666969
      0.3469723224D+02  0.1132722000D-01
      0.7958262283D+01  0.7616965920D-01
      0.2378082688D+01  0.3019225220D+00
      0.8143320818D+00  0.7278502735D+00
 Atom C7       Shell    73 P   1     bf  195 -   197          4.560240055655          2.520072584051         -0.000003666969
      0.2888754725D+00  0.1000000000D+01
 Atom C7       Shell    74 P   1     bf  198 -   200          4.560240055655          2.520072584051         -0.000003666969
      0.1005682367D+00  0.1000000000D+01
 Atom C7       Shell    75 D   1     bf  201 -   205          4.560240055655          2.520072584051         -0.000003666969
      0.1097000000D+01  0.1000000000D+01
 Atom C7       Shell    76 D   1     bf  206 -   210          4.560240055655          2.520072584051         -0.000003666969
      0.3180000000D+00  0.1000000000D+01
 Atom C7       Shell    77 F   1     bf  211 -   217          4.560240055655          2.520072584051         -0.000003666969
      0.7610000000D+00  0.1000000000D+01
 Atom C8       Shell    78 S   6     bf  218 -   218         -2.297411601050          3.753138191026          0.000003891936
      0.1357534968D+05  0.6064550360D-03
      0.2035233368D+04  0.4697908888D-02
      0.4632256236D+03  0.2433247765D-01
      0.1312001960D+03  0.9739996831D-01
      0.4285301589D+02  0.3019558425D+00
      0.1558418577D+02  0.6623360914D+00
 Atom C8       Shell    79 S   2     bf  219 -   219         -2.297411601050          3.753138191026          0.000003891936
      0.6206713851D+01  0.6559530854D+00
      0.2576489653D+01  0.3758563329D+00
 Atom C8       Shell    80 S   1     bf  220 -   220         -2.297411601050          3.753138191026          0.000003891936
      0.5769633942D+00  0.1000000000D+01
 Atom C8       Shell    81 S   1     bf  221 -   221         -2.297411601050          3.753138191026          0.000003891936
      0.2297283136D+00  0.1000000000D+01
 Atom C8       Shell    82 S   1     bf  222 -   222         -2.297411601050          3.753138191026          0.000003891936
      0.9516444003D-01  0.1000000000D+01
 Atom C8       Shell    83 P   4     bf  223 -   225         -2.297411601050          3.753138191026          0.000003891936
      0.3469723224D+02  0.1132722000D-01
      0.7958262283D+01  0.7616965920D-01
      0.2378082688D+01  0.3019225220D+00
      0.8143320818D+00  0.7278502735D+00
 Atom C8       Shell    84 P   1     bf  226 -   228         -2.297411601050          3.753138191026          0.000003891936
      0.2888754725D+00  0.1000000000D+01
 Atom C8       Shell    85 P   1     bf  229 -   231         -2.297411601050          3.753138191026          0.000003891936
      0.1005682367D+00  0.1000000000D+01
 Atom C8       Shell    86 D   1     bf  232 -   236         -2.297411601050          3.753138191026          0.000003891936
      0.1097000000D+01  0.1000000000D+01
 Atom C8       Shell    87 D   1     bf  237 -   241         -2.297411601050          3.753138191026          0.000003891936
      0.3180000000D+00  0.1000000000D+01
 Atom C8       Shell    88 F   1     bf  242 -   248         -2.297411601050          3.753138191026          0.000003891936
      0.7610000000D+00  0.1000000000D+01
 Atom C9       Shell    89 S   6     bf  249 -   249          2.297410247908          3.753139807377          0.000002002210
      0.1357534968D+05  0.6064550360D-03
      0.2035233368D+04  0.4697908888D-02
      0.4632256236D+03  0.2433247765D-01
      0.1312001960D+03  0.9739996831D-01
      0.4285301589D+02  0.3019558425D+00
      0.1558418577D+02  0.6623360914D+00
 Atom C9       Shell    90 S   2     bf  250 -   250          2.297410247908          3.753139807377          0.000002002210
      0.6206713851D+01  0.6559530854D+00
      0.2576489653D+01  0.3758563329D+00
 Atom C9       Shell    91 S   1     bf  251 -   251          2.297410247908          3.753139807377          0.000002002210
      0.5769633942D+00  0.1000000000D+01
 Atom C9       Shell    92 S   1     bf  252 -   252          2.297410247908          3.753139807377          0.000002002210
      0.2297283136D+00  0.1000000000D+01
 Atom C9       Shell    93 S   1     bf  253 -   253          2.297410247908          3.753139807377          0.000002002210
      0.9516444003D-01  0.1000000000D+01
 Atom C9       Shell    94 P   4     bf  254 -   256          2.297410247908          3.753139807377          0.000002002210
      0.3469723224D+02  0.1132722000D-01
      0.7958262283D+01  0.7616965920D-01
      0.2378082688D+01  0.3019225220D+00
      0.8143320818D+00  0.7278502735D+00
 Atom C9       Shell    95 P   1     bf  257 -   259          2.297410247908          3.753139807377          0.000002002210
      0.2888754725D+00  0.1000000000D+01
 Atom C9       Shell    96 P   1     bf  260 -   262          2.297410247908          3.753139807377          0.000002002210
      0.1005682367D+00  0.1000000000D+01
 Atom C9       Shell    97 D   1     bf  263 -   267          2.297410247908          3.753139807377          0.000002002210
      0.1097000000D+01  0.1000000000D+01
 Atom C9       Shell    98 D   1     bf  268 -   272          2.297410247908          3.753139807377          0.000002002210
      0.3180000000D+00  0.1000000000D+01
 Atom C9       Shell    99 F   1     bf  273 -   279          2.297410247908          3.753139807377          0.000002002210
      0.7610000000D+00  0.1000000000D+01
 Atom C10      Shell   100 S   6     bf  280 -   280         -2.795226420863         -4.401538379087         -0.000003666969
      0.1357534968D+05  0.6064550360D-03
      0.2035233368D+04  0.4697908888D-02
      0.4632256236D+03  0.2433247765D-01
      0.1312001960D+03  0.9739996831D-01
      0.4285301589D+02  0.3019558425D+00
      0.1558418577D+02  0.6623360914D+00
 Atom C10      Shell   101 S   2     bf  281 -   281         -2.795226420863         -4.401538379087         -0.000003666969
      0.6206713851D+01  0.6559530854D+00
      0.2576489653D+01  0.3758563329D+00
 Atom C10      Shell   102 S   1     bf  282 -   282         -2.795226420863         -4.401538379087         -0.000003666969
      0.5769633942D+00  0.1000000000D+01
 Atom C10      Shell   103 S   1     bf  283 -   283         -2.795226420863         -4.401538379087         -0.000003666969
      0.2297283136D+00  0.1000000000D+01
 Atom C10      Shell   104 S   1     bf  284 -   284         -2.795226420863         -4.401538379087         -0.000003666969
      0.9516444003D-01  0.1000000000D+01
 Atom C10      Shell   105 P   4     bf  285 -   287         -2.795226420863         -4.401538379087         -0.000003666969
      0.3469723224D+02  0.1132722000D-01
      0.7958262283D+01  0.7616965920D-01
      0.2378082688D+01  0.3019225220D+00
      0.8143320818D+00  0.7278502735D+00
 Atom C10      Shell   106 P   1     bf  288 -   290         -2.795226420863         -4.401538379087         -0.000003666969
      0.2888754725D+00  0.1000000000D+01
 Atom C10      Shell   107 P   1     bf  291 -   293         -2.795226420863         -4.401538379087         -0.000003666969
      0.1005682367D+00  0.1000000000D+01
 Atom C10      Shell   108 D   1     bf  294 -   298         -2.795226420863         -4.401538379087         -0.000003666969
      0.1097000000D+01  0.1000000000D+01
 Atom C10      Shell   109 D   1     bf  299 -   303         -2.795226420863         -4.401538379087         -0.000003666969
      0.3180000000D+00  0.1000000000D+01
 Atom C10      Shell   110 F   1     bf  304 -   310         -2.795226420863         -4.401538379087         -0.000003666969
      0.7610000000D+00  0.1000000000D+01
 Atom C11      Shell   111 S   6     bf  311 -   311         -4.589296252622         -0.132282221014         -0.000003666969
      0.1357534968D+05  0.6064550360D-03
      0.2035233368D+04  0.4697908888D-02
      0.4632256236D+03  0.2433247765D-01
      0.1312001960D+03  0.9739996831D-01
      0.4285301589D+02  0.3019558425D+00
      0.1558418577D+02  0.6623360914D+00
 Atom C11      Shell   112 S   2     bf  312 -   312         -4.589296252622         -0.132282221014         -0.000003666969
      0.6206713851D+01  0.6559530854D+00
      0.2576489653D+01  0.3758563329D+00
 Atom C11      Shell   113 S   1     bf  313 -   313         -4.589296252622         -0.132282221014         -0.000003666969
      0.5769633942D+00  0.1000000000D+01
 Atom C11      Shell   114 S   1     bf  314 -   314         -4.589296252622         -0.132282221014         -0.000003666969
      0.2297283136D+00  0.1000000000D+01
 Atom C11      Shell   115 S   1     bf  315 -   315         -4.589296252622         -0.132282221014         -0.000003666969
      0.9516444003D-01  0.1000000000D+01
 Atom C11      Shell   116 P   4     bf  316 -   318         -4.589296252622         -0.132282221014         -0.000003666969
      0.3469723224D+02  0.1132722000D-01
      0.7958262283D+01  0.7616965920D-01
      0.2378082688D+01  0.3019225220D+00
      0.8143320818D+00  0.7278502735D+00
 Atom C11      Shell   117 P   1     bf  319 -   321         -4.589296252622         -0.132282221014         -0.000003666969
      0.2888754725D+00  0.1000000000D+01
 Atom C11      Shell   118 P   1     bf  322 -   324         -4.589296252622         -0.132282221014         -0.000003666969
      0.1005682367D+00  0.1000000000D+01
 Atom C11      Shell   119 D   1     bf  325 -   329         -4.589296252622         -0.132282221014         -0.000003666969
      0.1097000000D+01  0.1000000000D+01
 Atom C11      Shell   120 D   1     bf  330 -   334         -4.589296252622         -0.132282221014         -0.000003666969
      0.3180000000D+00  0.1000000000D+01
 Atom C11      Shell   121 F   1     bf  335 -   341         -4.589296252622         -0.132282221014         -0.000003666969
      0.7610000000D+00  0.1000000000D+01
 Atom C12      Shell   122 S   6     bf  342 -   342         -4.560241555524          2.520071236961         -0.000001777242
      0.1357534968D+05  0.6064550360D-03
      0.2035233368D+04  0.4697908888D-02
      0.4632256236D+03  0.2433247765D-01
      0.1312001960D+03  0.9739996831D-01
      0.4285301589D+02  0.3019558425D+00
      0.1558418577D+02  0.6623360914D+00
 Atom C12      Shell   123 S   2     bf  343 -   343         -4.560241555524          2.520071236961         -0.000001777242
      0.6206713851D+01  0.6559530854D+00
      0.2576489653D+01  0.3758563329D+00
 Atom C12      Shell   124 S   1     bf  344 -   344         -4.560241555524          2.520071236961         -0.000001777242
      0.5769633942D+00  0.1000000000D+01
 Atom C12      Shell   125 S   1     bf  345 -   345         -4.560241555524          2.520071236961         -0.000001777242
      0.2297283136D+00  0.1000000000D+01
 Atom C12      Shell   126 S   1     bf  346 -   346         -4.560241555524          2.520071236961         -0.000001777242
      0.9516444003D-01  0.1000000000D+01
 Atom C12      Shell   127 P   4     bf  347 -   349         -4.560241555524          2.520071236961         -0.000001777242
      0.3469723224D+02  0.1132722000D-01
      0.7958262283D+01  0.7616965920D-01
      0.2378082688D+01  0.3019225220D+00
      0.8143320818D+00  0.7278502735D+00
 Atom C12      Shell   128 P   1     bf  350 -   352         -4.560241555524          2.520071236961         -0.000001777242
      0.2888754725D+00  0.1000000000D+01
 Atom C12      Shell   129 P   1     bf  353 -   355         -4.560241555524          2.520071236961         -0.000001777242
      0.1005682367D+00  0.1000000000D+01
 Atom C12      Shell   130 D   1     bf  356 -   360         -4.560241555524          2.520071236961         -0.000001777242
      0.1097000000D+01  0.1000000000D+01
 Atom C12      Shell   131 D   1     bf  361 -   365         -4.560241555524          2.520071236961         -0.000001777242
      0.3180000000D+00  0.1000000000D+01
 Atom C12      Shell   132 F   1     bf  366 -   372         -4.560241555524          2.520071236961         -0.000001777242
      0.7610000000D+00  0.1000000000D+01
 Atom H13      Shell   133 S   3     bf  373 -   373          4.810460145979         -4.819147519978         -0.000009336147
      0.3406134100D+02  0.2543930721D-01
      0.5123574600D+01  0.1900859489D+00
      0.1164662600D+01  0.8524411301D+00
 Atom H13      Shell   134 S   1     bf  374 -   374          4.810460145979         -4.819147519978         -0.000009336147
      0.3272304100D+00  0.1000000000D+01
 Atom H13      Shell   135 S   1     bf  375 -   375          4.810460145979         -4.819147519978         -0.000009336147
      0.1030724100D+00  0.1000000000D+01
 Atom H13      Shell   136 P   1     bf  376 -   378          4.810460145979         -4.819147519978         -0.000009336147
      0.8000000000D+00  0.1000000000D+01
 Atom H14      Shell   137 S   3     bf  379 -   379          1.979623913857         -5.304789960170          1.660211447626
      0.3406134100D+02  0.2543930721D-01
      0.5123574600D+01  0.1900859489D+00
      0.1164662600D+01  0.8524411301D+00
 Atom H14      Shell   138 S   1     bf  380 -   380          1.979623913857         -5.304789960170          1.660211447626
      0.3272304100D+00  0.1000000000D+01
 Atom H14      Shell   139 S   1     bf  381 -   381          1.979623913857         -5.304789960170          1.660211447626
      0.1030724100D+00  0.1000000000D+01
 Atom H14      Shell   140 P   1     bf  382 -   384          1.979623913857         -5.304789960170          1.660211447626
      0.8000000000D+00  0.1000000000D+01
 Atom H15      Shell   141 S   3     bf  385 -   385          1.979591788511         -5.304810747156         -1.660173428136
      0.3406134100D+02  0.2543930721D-01
      0.5123574600D+01  0.1900859489D+00
      0.1164662600D+01  0.8524411301D+00
 Atom H15      Shell   142 S   1     bf  386 -   386          1.979591788511         -5.304810747156         -1.660173428136
      0.3272304100D+00  0.1000000000D+01
 Atom H15      Shell   143 S   1     bf  387 -   387          1.979591788511         -5.304810747156         -1.660173428136
      0.1030724100D+00  0.1000000000D+01
 Atom H15      Shell   144 P   1     bf  388 -   390          1.979591788511         -5.304810747156         -1.660173428136
      0.8000000000D+00  0.1000000000D+01
 Atom H16      Shell   145 S   3     bf  391 -   391          6.395861224628         -1.093622463187         -0.000009336147
      0.3406134100D+02  0.2543930721D-01
      0.5123574600D+01  0.1900859489D+00
      0.1164662600D+01  0.8524411301D+00
 Atom H16      Shell   146 S   1     bf  392 -   392          6.395861224628         -1.093622463187         -0.000009336147
      0.3272304100D+00  0.1000000000D+01
 Atom H16      Shell   147 S   1     bf  393 -   393          6.395861224628         -1.093622463187         -0.000009336147
      0.1030724100D+00  0.1000000000D+01
 Atom H16      Shell   148 P   1     bf  394 -   396          6.395861224628         -1.093622463187         -0.000009336147
      0.8000000000D+00  0.1000000000D+01
 Atom H17      Shell   149 S   3     bf  397 -   397          6.322192417864          3.558764227614         -0.000007446421
      0.3406134100D+02  0.2543930721D-01
      0.5123574600D+01  0.1900859489D+00
      0.1164662600D+01  0.8524411301D+00
 Atom H17      Shell   150 S   1     bf  398 -   398          6.322192417864          3.558764227614         -0.000007446421
      0.3272304100D+00  0.1000000000D+01
 Atom H17      Shell   151 S   1     bf  399 -   399          6.322192417864          3.558764227614         -0.000007446421
      0.1030724100D+00  0.1000000000D+01
 Atom H17      Shell   152 P   1     bf  400 -   402          6.322192417864          3.558764227614         -0.000007446421
      0.8000000000D+00  0.1000000000D+01
 Atom H18      Shell   153 S   3     bf  403 -   403         -2.213277092512          5.797810523446          0.000005781662
      0.3406134100D+02  0.2543930721D-01
      0.5123574600D+01  0.1900859489D+00
      0.1164662600D+01  0.8524411301D+00
 Atom H18      Shell   154 S   1     bf  404 -   404         -2.213277092512          5.797810523446          0.000005781662
      0.3272304100D+00  0.1000000000D+01
 Atom H18      Shell   155 S   1     bf  405 -   405         -2.213277092512          5.797810523446          0.000005781662
      0.1030724100D+00  0.1000000000D+01
 Atom H18      Shell   156 P   1     bf  406 -   408         -2.213277092512          5.797810523446          0.000005781662
      0.8000000000D+00  0.1000000000D+01
 Atom H19      Shell   157 S   3     bf  409 -   409          2.213274092944          5.797812149808          0.000005781662
      0.3406134100D+02  0.2543930721D-01
      0.5123574600D+01  0.1900859489D+00
      0.1164662600D+01  0.8524411301D+00
 Atom H19      Shell   158 S   1     bf  410 -   410          2.213274092944          5.797812149808          0.000005781662
      0.3272304100D+00  0.1000000000D+01
 Atom H19      Shell   159 S   1     bf  411 -   411          2.213274092944          5.797812149808          0.000005781662
      0.1030724100D+00  0.1000000000D+01
 Atom H19      Shell   160 P   1     bf  412 -   414          2.213274092944          5.797812149808          0.000005781662
      0.8000000000D+00  0.1000000000D+01
 Atom H20      Shell   161 S   3     bf  415 -   415         -4.810456849984         -4.819150727021          0.000009561114
      0.3406134100D+02  0.2543930721D-01
      0.5123574600D+01  0.1900859489D+00
      0.1164662600D+01  0.8524411301D+00
 Atom H20      Shell   162 S   1     bf  416 -   416         -4.810456849984         -4.819150727021          0.000009561114
      0.3272304100D+00  0.1000000000D+01
 Atom H20      Shell   163 S   1     bf  417 -   417         -4.810456849984         -4.819150727021          0.000009561114
      0.1030724100D+00  0.1000000000D+01
 Atom H20      Shell   164 P   1     bf  418 -   420         -4.810456849984         -4.819150727021          0.000009561114
      0.8000000000D+00  0.1000000000D+01
 Atom H21      Shell   165 S   3     bf  421 -   421         -1.979616896197         -5.304793504062         -1.660205553480
      0.3406134100D+02  0.2543930721D-01
      0.5123574600D+01  0.1900859489D+00
      0.1164662600D+01  0.8524411301D+00
 Atom H21      Shell   166 S   1     bf  422 -   422         -1.979616896197         -5.304793504062         -1.660205553480
      0.3272304100D+00  0.1000000000D+01
 Atom H21      Shell   167 S   1     bf  423 -   423         -1.979616896197         -5.304793504062         -1.660205553480
      0.1030724100D+00  0.1000000000D+01
 Atom H21      Shell   168 P   1     bf  424 -   426         -1.979616896197         -5.304793504062         -1.660205553480
      0.8000000000D+00  0.1000000000D+01
 Atom H22      Shell   169 S   3     bf  427 -   427         -1.979592329758         -5.304806732146          1.660179322282
      0.3406134100D+02  0.2543930721D-01
      0.5123574600D+01  0.1900859489D+00
      0.1164662600D+01  0.8524411301D+00
 Atom H22      Shell   170 S   1     bf  428 -   428         -1.979592329758         -5.304806732146          1.660179322282
      0.3272304100D+00  0.1000000000D+01
 Atom H22      Shell   171 S   1     bf  429 -   429         -1.979592329758         -5.304806732146          1.660179322282
      0.1030724100D+00  0.1000000000D+01
 Atom H22      Shell   172 P   1     bf  430 -   432         -1.979592329758         -5.304806732146          1.660179322282
      0.8000000000D+00  0.1000000000D+01
 Atom H23      Shell   173 S   3     bf  433 -   433         -6.395859375048         -1.093625481578         -0.000009336147
      0.3406134100D+02  0.2543930721D-01
      0.5123574600D+01  0.1900859489D+00
      0.1164662600D+01  0.8524411301D+00
 Atom H23      Shell   174 S   1     bf  434 -   434         -6.395859375048         -1.093625481578         -0.000009336147
      0.3272304100D+00  0.1000000000D+01
 Atom H23      Shell   175 S   1     bf  435 -   435         -6.395859375048         -1.093625481578         -0.000009336147
      0.1030724100D+00  0.1000000000D+01
 Atom H23      Shell   176 P   1     bf  436 -   438         -6.395859375048         -1.093625481578         -0.000009336147
      0.8000000000D+00  0.1000000000D+01
 Atom H24      Shell   177 S   3     bf  439 -   439         -6.322193794136          3.558763090183         -0.000005556695
      0.3406134100D+02  0.2543930721D-01
      0.5123574600D+01  0.1900859489D+00
      0.1164662600D+01  0.8524411301D+00
 Atom H24      Shell   178 S   1     bf  440 -   440         -6.322193794136          3.558763090183         -0.000005556695
      0.3272304100D+00  0.1000000000D+01
 Atom H24      Shell   179 S   1     bf  441 -   441         -6.322193794136          3.558763090183         -0.000005556695
      0.1030724100D+00  0.1000000000D+01
 Atom H24      Shell   180 P   1     bf  442 -   444         -6.322193794136          3.558763090183         -0.000005556695
      0.8000000000D+00  0.1000000000D+01
 There are   504 symmetry adapted cartesian basis functions of A   symmetry.
 There are   444 symmetry adapted basis functions of A   symmetry.
   444 basis functions,   708 primitive gaussians,   504 cartesian basis functions
    42 alpha electrons       42 beta electrons
       nuclear repulsion energy       648.2457863074 Hartrees.
 IExCor= 4639 DFT=T Ex+Corr=wB97XD ExCW=0 ScaHFX=  1.000000
 ScaDFX=  1.000000  1.000000  1.000000  1.000000 ScalE2=  1.000000  1.000000
 IRadAn=      5 IRanWt=     -1 IRanGd=            0 ICorTp=0 IEmpDi=121
  HFx wShort=  0.000000 wLong=  0.200000 cFull=  0.222036 cShort=  0.000000 cLong=  0.777964
  DFx wShort=  0.000000 wLong=  0.200000 cFull=  0.000000 cShort=  0.000000 cLong=  1.000000
 NAtoms=   24 NActive=   24 NUniq=   24 SFac= 1.00D+00 NAtFMM=   60 NAOKFM=F Big=F
 Integral buffers will be    131072 words long.
 Raffenetti 2 integral format.
 Two-electron integral symmetry is turned on.
 R6Disp:  Grimme-D2 Dispersion energy=       -0.0154112597 Hartrees.
 Nuclear repulsion after empirical dispersion term =      648.2303750477 Hartrees.
 Leave Link  301 at Fri Jul  9 19:19:36 2021, MaxMem=  4194304000 cpu:         1.4
 (Enter /home/minenky/programs//g09/l302.exe)
 NPDir=0 NMtPBC=     1 NCelOv=     1 NCel=       1 NClECP=     1 NCelD=      1
         NCelK=      1 NCelE2=     1 NClLst=     1 CellRange=     0.0.
 One-electron integrals computed using PRISM.
   1 Symmetry operations used in ECPInt.
 ECPInt:  NShTT=   16290 NPrTT=   49128 LenC2=   15659 LenP2D=   36399.
 LDataN:  DoStor=T MaxTD1= 6 Len=  172
 NBasis=   444 RedAO= T EigKep=  4.46D-06  NBF=   444
 NBsUse=   444 1.00D-06 EigRej= -1.00D+00 NBFU=   444
 Precomputing XC quadrature grid using
 IXCGrd= 4 IRadAn=           5 IRanWt=          -1 IRanGd=           0 AccXCQ= 0.00D+00.
 Generated NRdTot=       0 NPtTot=           0 NUsed=           0 NTot=          32
 NSgBfM=   503   503   503   503   503 MxSgAt=    24 MxSgA2=    24.
 Leave Link  302 at Fri Jul  9 19:19:39 2021, MaxMem=  4194304000 cpu:        42.3
 (Enter /home/minenky/programs//g09/l303.exe)
 DipDrv:  MaxL=1.
 Leave Link  303 at Fri Jul  9 19:19:40 2021, MaxMem=  4194304000 cpu:         3.1
 (Enter /home/minenky/programs//g09/l401.exe)
 ExpMin= 9.52D-02 ExpMax= 1.36D+04 ExpMxC= 4.63D+02 IAcc=3 IRadAn=         5 AccDes= 0.00D+00
 Harris functional with IExCor= 4639 and IRadAn=       5 diagonalized for initial guess.
 HarFok:  IExCor= 4639 AccDes= 0.00D+00 IRadAn=         5 IDoV= 1 UseB2=F ITyADJ=14
 ICtDFT=  3500011 ScaDFX=  1.000000  1.000000  1.000000  1.000000
 FoFCou: FMM=F IPFlag=           0 FMFlag=      100000 FMFlg1=           0
         NFxFlg=           0 DoJE=T BraDBF=F KetDBF=T FulRan=T
         wScrn=  0.000000 ICntrl=     500 IOpCl=  0 I1Cent=   200000004 NGrid=           0
         NMat0=    1 NMatS0=      1 NMatT0=    0 NMatD0=    1 NMtDS0=    0 NMtDT0=    0
 Petite list used in FoFCou.
 Harris En= -442.911206730056    
 JPrj=0 DoOrth=F DoCkMO=F.
 Leave Link  401 at Fri Jul  9 19:19:46 2021, MaxMem=  4194304000 cpu:        94.9
 (Enter /home/minenky/programs//g09/l502.exe)
 Closed shell SCF:
 Using DIIS extrapolation, IDIIS=  1040.
 Integral symmetry usage will be decided dynamically.
 IVT=      921634 IEndB=      921634 NGot=  4194304000 MDV=  4193782047
 LenX=  4193782047 LenY=  4193527527
 Requested convergence on RMS density matrix=1.00D-08 within 380 cycles.
 Requested convergence on MAX density matrix=1.00D-06.
 Requested convergence on             energy=1.00D-06.
 No special actions if energy rises.
 Fock matrices will be formed incrementally for  20 cycles.
 Integral accuracy reduced to 1.0D-05 until final iterations.

 Cycle   1  Pass 0  IDiag  1:
 FoFJK:  IHMeth= 1 ICntrl=       0 DoSepK=T KAlg= 0 I1Cent=   0 FoldK=F
 IRaf=         1 NMat=   1 IRICut=       1 DoRegI=T DoRafI=F ISym2E= 0.
 FoFCou: FMM=F IPFlag=           0 FMFlag=      100000 FMFlg1=           0
         NFxFlg=           0 DoJE=T BraDBF=F KetDBF=F FulRan=T
         wScrn=  0.000000 ICntrl=     500 IOpCl=  0 I1Cent=           0 NGrid=           0
         NMat0=    1 NMatS0=      1 NMatT0=    0 NMatD0=    1 NMtDS0=    0 NMtDT0=    0
 Symmetry not used in FoFCou.
 E= -464.386363570879    
 DIIS: error= 4.95D-02 at cycle   1 NSaved=   1.
 NSaved= 1 IEnMin= 1 EnMin= -464.386363570879     IErMin= 1 ErrMin= 4.95D-02
 ErrMax= 4.95D-02  0.00D+00 EMaxC= 1.00D-01 BMatC= 9.99D-01 BMatP= 9.99D-01
 IDIUse=3 WtCom= 5.05D-01 WtEn= 4.95D-01
 Coeff-Com:  0.100D+01
 Coeff-En:   0.100D+01
 Coeff:      0.100D+01
 Gap=     0.299 Goal=   None    Shift=    0.000
 GapD=    0.299 DampG=1.000 DampE=0.500 DampFc=0.5000 IDamp=-1.
 Damping current iteration by 5.00D-01
 RMSDP=2.19D-03 MaxDP=1.20D-01              OVMax= 6.41D-02

 Cycle   2  Pass 0  IDiag  1:
 RMSU=  1.05D-03    CP:  9.60D-01
 E= -464.452104705558     Delta-E=       -0.065741134679 Rises=F Damp=T
 DIIS: error= 2.30D-02 at cycle   2 NSaved=   2.
 NSaved= 2 IEnMin= 2 EnMin= -464.452104705558     IErMin= 2 ErrMin= 2.30D-02
 ErrMax= 2.30D-02  0.00D+00 EMaxC= 1.00D-01 BMatC= 2.23D-01 BMatP= 9.99D-01
 IDIUse=3 WtCom= 7.70D-01 WtEn= 2.30D-01
 Coeff-Com: -0.841D+00 0.184D+01
 Coeff-En:   0.000D+00 0.100D+01
 Coeff:     -0.648D+00 0.165D+01
 Gap=     0.305 Goal=   None    Shift=    0.000
 RMSDP=1.00D-03 MaxDP=6.72D-02 DE=-6.57D-02 OVMax= 5.04D-02

 Cycle   3  Pass 0  IDiag  1:
 RMSU=  5.92D-04    CP:  9.18D-01  1.70D+00
 E= -464.506856969090     Delta-E=       -0.054752263533 Rises=F Damp=F
 DIIS: error= 7.24D-03 at cycle   3 NSaved=   3.
 NSaved= 3 IEnMin= 3 EnMin= -464.506856969090     IErMin= 3 ErrMin= 7.24D-03
 ErrMax= 7.24D-03  0.00D+00 EMaxC= 1.00D-01 BMatC= 8.98D-03 BMatP= 2.23D-01
 IDIUse=3 WtCom= 9.28D-01 WtEn= 7.24D-02
 Coeff-Com: -0.357D+00 0.765D+00 0.592D+00
 Coeff-En:   0.000D+00 0.000D+00 0.100D+01
 Coeff:     -0.331D+00 0.710D+00 0.622D+00
 Gap=     0.304 Goal=   None    Shift=    0.000
 RMSDP=2.68D-04 MaxDP=1.04D-02 DE=-5.48D-02 OVMax= 3.23D-02

 Cycle   4  Pass 0  IDiag  1:
 RMSU=  2.39D-04    CP:  9.22D-01  1.78D+00  8.62D-01
 E= -464.514599750319     Delta-E=       -0.007742781229 Rises=F Damp=F
 DIIS: error= 2.47D-03 at cycle   4 NSaved=   4.
 NSaved= 4 IEnMin= 4 EnMin= -464.514599750319     IErMin= 4 ErrMin= 2.47D-03
 ErrMax= 2.47D-03  0.00D+00 EMaxC= 1.00D-01 BMatC= 7.29D-04 BMatP= 8.98D-03
 IDIUse=3 WtCom= 9.75D-01 WtEn= 2.47D-02
 Coeff-Com: -0.145D+00 0.311D+00 0.324D+00 0.510D+00
 Coeff-En:   0.000D+00 0.000D+00 0.000D+00 0.100D+01
 Coeff:     -0.141D+00 0.303D+00 0.316D+00 0.522D+00
 Gap=     0.303 Goal=   None    Shift=    0.000
 RMSDP=7.97D-05 MaxDP=2.83D-03 DE=-7.74D-03 OVMax= 8.11D-03

 Cycle   5  Pass 0  IDiag  1:
 RMSU=  7.31D-05    CP:  9.22D-01  1.81D+00  8.60D-01  9.42D-01
 E= -464.515339643829     Delta-E=       -0.000739893509 Rises=F Damp=F
 DIIS: error= 2.49D-04 at cycle   5 NSaved=   5.
 NSaved= 5 IEnMin= 5 EnMin= -464.515339643829     IErMin= 5 ErrMin= 2.49D-04
 ErrMax= 2.49D-04  0.00D+00 EMaxC= 1.00D-01 BMatC= 9.70D-06 BMatP= 7.29D-04
 IDIUse=3 WtCom= 9.98D-01 WtEn= 2.49D-03
 Coeff-Com:  0.274D-01-0.589D-01-0.352D-01 0.619D-01 0.100D+01
 Coeff-En:   0.000D+00 0.000D+00 0.000D+00 0.000D+00 0.100D+01
 Coeff:      0.273D-01-0.588D-01-0.351D-01 0.618D-01 0.100D+01
 Gap=     0.304 Goal=   None    Shift=    0.000
 RMSDP=5.16D-05 MaxDP=1.73D-03 DE=-7.40D-04 OVMax= 1.82D-03

 Cycle   6  Pass 0  IDiag  1:
 RMSU=  4.51D-05    CP:  9.21D-01  1.81D+00  8.84D-01  9.70D-01  1.24D+00
 E= -464.515352754027     Delta-E=       -0.000013110198 Rises=F Damp=F
 DIIS: error= 1.38D-04 at cycle   6 NSaved=   6.
 NSaved= 6 IEnMin= 6 EnMin= -464.515352754027     IErMin= 6 ErrMin= 1.38D-04
 ErrMax= 1.38D-04  0.00D+00 EMaxC= 1.00D-01 BMatC= 1.23D-06 BMatP= 9.70D-06
 IDIUse=3 WtCom= 9.99D-01 WtEn= 1.38D-03
 Coeff-Com:  0.151D-01-0.325D-01-0.227D-01 0.908D-02 0.411D+00 0.620D+00
 Coeff-En:   0.000D+00 0.000D+00 0.000D+00 0.000D+00 0.000D+00 0.100D+01
 Coeff:      0.151D-01-0.324D-01-0.227D-01 0.906D-02 0.410D+00 0.621D+00
 Gap=     0.304 Goal=   None    Shift=    0.000
 RMSDP=2.07D-05 MaxDP=6.98D-04 DE=-1.31D-05 OVMax= 5.86D-04

 Cycle   7  Pass 0  IDiag  1:
 RMSU=  1.43D-05    CP:  9.21D-01  1.82D+00  8.73D-01  9.59D-01  1.36D+00
                    CP:  1.01D+00
 E= -464.515355144365     Delta-E=       -0.000002390339 Rises=F Damp=F
 DIIS: error= 5.76D-05 at cycle   7 NSaved=   7.
 NSaved= 7 IEnMin= 7 EnMin= -464.515355144365     IErMin= 7 ErrMin= 5.76D-05
 ErrMax= 5.76D-05  0.00D+00 EMaxC= 1.00D-01 BMatC= 1.44D-07 BMatP= 1.23D-06
 IDIUse=1 WtCom= 1.00D+00 WtEn= 0.00D+00
 Coeff-Com: -0.106D-02 0.232D-02 0.741D-03-0.120D-01-0.875D-01 0.170D+00
 Coeff-Com:  0.927D+00
 Coeff:     -0.106D-02 0.232D-02 0.741D-03-0.120D-01-0.875D-01 0.170D+00
 Coeff:      0.927D+00
 Gap=     0.304 Goal=   None    Shift=    0.000
 RMSDP=2.93D-05 MaxDP=7.79D-04 DE=-2.39D-06 OVMax= 3.77D-04

 Cycle   8  Pass 0  IDiag  1:
 RMSU=  1.17D-05    CP:  9.21D-01  1.84D+00  8.57D-01  9.19D-01  1.43D+00
                    CP:  1.02D+00  2.33D+00
 E= -464.515356231864     Delta-E=       -0.000001087499 Rises=F Damp=F
 DIIS: error= 2.32D-05 at cycle   8 NSaved=   8.
 NSaved= 8 IEnMin= 8 EnMin= -464.515356231864     IErMin= 8 ErrMin= 2.32D-05
 ErrMax= 2.32D-05  0.00D+00 EMaxC= 1.00D-01 BMatC= 3.51D-08 BMatP= 1.44D-07
 IDIUse=1 WtCom= 1.00D+00 WtEn= 0.00D+00
 Coeff-Com: -0.202D-02 0.437D-02 0.284D-02-0.621D-02-0.783D-01-0.304D-02
 Coeff-Com:  0.380D+00 0.703D+00
 Coeff:     -0.202D-02 0.437D-02 0.284D-02-0.621D-02-0.783D-01-0.304D-02
 Coeff:      0.380D+00 0.703D+00
 Gap=     0.304 Goal=   None    Shift=    0.000
 RMSDP=2.99D-05 MaxDP=8.23D-04 DE=-1.09D-06 OVMax= 1.40D-04

 Cycle   9  Pass 0  IDiag  1:
 RMSU=  1.11D-05    CP:  9.21D-01  1.85D+00  8.39D-01  9.04D-01  1.50D+00
                    CP:  8.36D-01  3.00D+00  1.98D+00
 E= -464.515356566550     Delta-E=       -0.000000334685 Rises=F Damp=F
 DIIS: error= 9.79D-06 at cycle   9 NSaved=   9.
 NSaved= 9 IEnMin= 9 EnMin= -464.515356566550     IErMin= 9 ErrMin= 9.79D-06
 ErrMax= 9.79D-06  0.00D+00 EMaxC= 1.00D-01 BMatC= 1.63D-08 BMatP= 3.51D-08
 IDIUse=1 WtCom= 1.00D+00 WtEn= 0.00D+00
 Coeff-Com: -0.107D-02 0.231D-02 0.164D-02-0.239D-02-0.352D-01-0.160D-01
 Coeff-Com:  0.137D+00 0.354D+00 0.559D+00
 Coeff:     -0.107D-02 0.231D-02 0.164D-02-0.239D-02-0.352D-01-0.160D-01
 Coeff:      0.137D+00 0.354D+00 0.559D+00
 Gap=     0.304 Goal=   None    Shift=    0.000
 RMSDP=2.14D-05 MaxDP=7.48D-04 DE=-3.35D-07 OVMax= 3.46D-05

 Cycle  10  Pass 0  IDiag  1:
 RMSU=  1.04D-05    CP:  9.21D-01  1.86D+00  8.31D-01  8.85D-01  1.48D+00
                    CP:  7.48D-01  3.00D+00  2.80D+00  2.03D+00
 E= -464.515357393230     Delta-E=       -0.000000826681 Rises=F Damp=F
 DIIS: error= 1.27D-05 at cycle  10 NSaved=  10.
 NSaved=10 IEnMin=10 EnMin= -464.515357393230     IErMin= 9 ErrMin= 9.79D-06
 ErrMax= 1.27D-05  0.00D+00 EMaxC= 1.00D-01 BMatC= 2.19D-08 BMatP= 1.63D-08
 IDIUse=1 WtCom= 1.00D+00 WtEn= 0.00D+00
 Coeff-Com: -0.107D-02 0.231D-02 0.165D-02-0.238D-02-0.351D-01-0.162D-01
 Coeff-Com:  0.136D+00 0.355D+00 0.569D+00-0.897D-02
 Coeff:     -0.107D-02 0.231D-02 0.165D-02-0.238D-02-0.351D-01-0.162D-01
 Coeff:      0.136D+00 0.355D+00 0.569D+00-0.897D-02
 Gap=     0.304 Goal=   None    Shift=    0.000
 RMSDP=2.53D-07 MaxDP=7.74D-06 DE=-8.27D-07 OVMax= 1.47D-07

 Initial convergence to 1.0D-05 achieved.  Increase integral accuracy.
 Cycle  11  Pass 1  IDiag  1:
 E= -464.515375318966     Delta-E=       -0.000017925735 Rises=F Damp=F
 DIIS: error= 3.81D-04 at cycle   1 NSaved=   1.
 NSaved= 1 IEnMin= 1 EnMin= -464.515375318966     IErMin= 1 ErrMin= 3.81D-04
 ErrMax= 3.81D-04  0.00D+00 EMaxC= 1.00D-01 BMatC= 1.60D-05 BMatP= 1.60D-05
 IDIUse=3 WtCom= 9.96D-01 WtEn= 3.81D-03
 Coeff-Com:  0.100D+01
 Coeff-En:   0.100D+01
 Coeff:      0.100D+01
 Gap=     0.304 Goal=   None    Shift=    0.000
 RMSDP=2.53D-07 MaxDP=7.74D-06 DE=-1.79D-05 OVMax= 3.37D-04

 Cycle  12  Pass 1  IDiag  1:
 RMSU=  6.80D-04    CP:  9.75D-01
 E= -464.515381235415     Delta-E=       -0.000005916449 Rises=F Damp=F
 DIIS: error= 1.15D-05 at cycle   2 NSaved=   2.
 NSaved= 2 IEnMin= 2 EnMin= -464.515381235415     IErMin= 2 ErrMin= 1.15D-05
 ErrMax= 1.15D-05  0.00D+00 EMaxC= 1.00D-01 BMatC= 1.84D-08 BMatP= 1.60D-05
 IDIUse=1 WtCom= 1.00D+00 WtEn= 0.00D+00
 Coeff-Com: -0.228D-01 0.102D+01
 Coeff:     -0.228D-01 0.102D+01
 Gap=     0.304 Goal=   None    Shift=    0.000
 RMSDP=4.81D-05 MaxDP=2.67D-03 DE=-5.92D-06 OVMax= 3.78D-05

 Cycle  13  Pass 1  IDiag  1:
 RMSU=  8.77D-06    CP:  9.73D-01  1.07D+00
 E= -464.515381255897     Delta-E=       -0.000000020483 Rises=F Damp=F
 DIIS: error= 2.69D-06 at cycle   3 NSaved=   3.
 NSaved= 3 IEnMin= 3 EnMin= -464.515381255897     IErMin= 3 ErrMin= 2.69D-06
[...]
 0.00084893,0.,0.,-0.00004872,0.,0.,-0.00003434,-0.00000161,0.00000032,
 0.04581489,0.00264465,0.00061070,0.00570587,-0.08953969,-0.04441975,-0
 .09028982,-0.00062295,0.00061028,0.00006534,-0.00030671,-0.00081091,-0
 .00005350,-0.00019078,-0.00039343,-0.00016650,0.00064489,0.00045061,-0
 .00016201,-0.00015764,0.00014239,0.00031892,0.00019079,-0.00014115,-0.
 00000616,0.00061565,0.00027908,0.00004353,-0.00291895,0.00004551,0.000
 11614,-0.00035150,0.00014102,-0.00003609,-0.00005697,-0.00030241,-0.00
 002102,-0.01130455,-0.01334716,-0.02615110,0.10099237,-0.01483510,-0.0
 1466776,-0.02581735,-0.04472547,-0.09458278,-0.09573855,-0.00068089,0.
 00076686,0.00042452,0.00175569,-0.00342923,0.00008907,-0.00047083,-0.0
 0029082,0.00085338,0.00046382,-0.00054687,-0.00048612,-0.00043568,-0.0
 0040890,0.00182022,0.00001037,0.00018542,-0.00001307,-0.00005531,-0.00
 033012,-0.00018390,-0.00019823,-0.00028808,-0.00057834,0.00008775,0.00
 024817,0.00004308,0.00004364,-0.00003990,-0.00007753,0.00217858,0.0023
 2260,0.00579542,0.05091469,0.10430809,0.00209936,0.00107244,0.00330155
 ,-0.08829205,-0.09377418,-0.22429933,-0.00066624,-0.00019481,0.0005354
 3,0.00040157,0.00026593,-0.00011263,-0.00010699,-0.00016720,-0.0000200
 3,0.00016817,-0.00064147,-0.00017989,0.00009020,0.00022006,-0.00032340
 ,0.00009982,0.00009092,0.00000244,0.00019183,-0.00003219,-0.00003305,-
 0.00147405,-0.00067504,-0.00068142,-0.00009979,0.00044472,-0.00002490,
 0.00000327,-0.00016912,-0.00006904,0.00068708,0.00147561,0.00107046,0.
 09911725,0.10262817,0.24014642,0.00264468,0.00061076,-0.00570587,-0.08
 953790,-0.04441946,0.09028829,-0.00062295,0.00061032,-0.00006532,-0.00
 030672,-0.00081094,0.00005348,-0.00019079,-0.00039345,0.00016650,0.000
 64491,0.00045060,0.00016202,-0.00015765,0.00014240,-0.00031893,0.00019
 079,-0.00014114,0.00000616,0.00061566,0.00027908,-0.00004353,-0.002918
 82,0.00004546,-0.00011619,-0.00035150,0.00014102,0.00003608,-0.0000569
 7,-0.00030241,0.00002101,-0.01130432,-0.01334735,0.02615120,0.00489679
 ,0.00620664,-0.01166985,0.10099053,-0.01483480,-0.01466781,0.02581739,
 -0.04472515,-0.09458369,0.09573988,-0.00068090,0.00076684,-0.00042452,
 0.00175569,-0.00342922,-0.00008909,-0.00047083,-0.00029083,-0.00085339
 ,0.00046383,-0.00054688,0.00048613,-0.00043568,-0.00040889,-0.00182022
 ,0.00001038,0.00018542,0.00001307,-0.00005531,-0.00033012,0.00018390,-
 0.00019829,-0.00028812,0.00057838,0.00008774,0.00024817,-0.00004308,0.
 00004364,-0.00003990,0.00007753,0.00217850,0.00232262,-0.00579540,0.00
 620647,0.00584766,-0.01131263,0.05091435,0.10430912,-0.00209945,-0.001
 07255,0.00330177,0.08829068,0.09377551,-0.22430059,0.00066625,0.000194
 81,0.00053542,-0.00040155,-0.00026595,-0.00011262,0.00010698,0.0001672
 0,-0.00002004,-0.00016817,0.00064145,-0.00017988,-0.00009021,-0.000220
 05,-0.00032341,-0.00009981,-0.00009092,0.00000244,-0.00019183,0.000032
 19,-0.00003304,0.00147401,0.00067506,-0.00068140,0.00009979,-0.0004447
 2,-0.00002490,-0.00000327,0.00016911,-0.00006904,-0.00068692,-0.001475
 43,0.00107014,0.01166960,0.01131266,-0.02110931,-0.09911561,-0.1026295
 8,0.24014790,-0.02076974,0.01457325,0.00000005,0.00003146,0.00233907,0
 .,-0.00277463,-0.00410167,0.00000002,-0.27602814,0.11402871,0.00000043
 ,-0.00000808,-0.00077624,0.,-0.00035449,0.00132024,0.,0.00287136,-0.00
 215439,0.,0.00026666,0.00004479,0.,0.00178866,-0.00018359,0.00000001,0
 .00005523,0.00013120,0.,-0.00051248,-0.00021765,0.,-0.00005260,-0.0002
 3916,0.,0.00097990,-0.00145558,-0.00000001,0.00040031,-0.00008881,0.00
 008047,0.00040031,-0.00008881,-0.00008048,0.29318430,-0.01457703,0.007
 81922,0.00000002,-0.00332895,0.00040194,0.00000001,-0.00319412,-0.0015
 1289,0.,0.11699561,-0.11898074,-0.00000023,-0.00112457,-0.00046570,0.,
 -0.00014564,0.00057101,0.,0.02975459,-0.01015313,-0.00000005,0.0004932
 8,0.00005050,0.,-0.00110637,-0.00599125,0.,0.00000622,0.00008155,0.,-0
 .00032073,0.00021845,0.,-0.00016550,-0.00031802,0.,-0.00067407,-0.0009
 6063,0.,-0.00006136,-0.00009118,0.00003650,-0.00006136,-0.00009118,-0.
 00003650,-0.12337945,0.12922560,0.00000010,-0.00000004,0.00420867,-0.0
 0000003,0.00000002,-0.00571874,-0.00000002,0.00000002,0.00802228,0.000
 00039,-0.00000025,-0.03661119,-0.00000002,0.,-0.00092192,0.00000002,0.
 ,0.00029295,0.00000002,0.00000002,0.00224243,0.,0.,-0.00067981,0.00000
 001,0.,0.00572533,0.,0.,0.00001823,0.,0.00000001,-0.00064935,0.,0.,0.0
 0011515,0.,0.,0.00063207,-0.00054278,-0.00083531,0.00008397,0.00054279
 ,0.00083531,0.00008397,-0.00000048,0.00000025,0.02545540,0.00171414,0.
 00086794,0.,-0.00001449,0.00009608,0.,-0.00011783,0.00061861,0.,0.0041
 0849,0.00283759,0.,-0.00288114,0.00415432,0.,0.00028761,-0.00005172,0.
 ,-0.26894162,-0.12305030,0.00000024,-0.00048592,-0.00123593,0.,-0.0185
 8579,-0.01758655,0.00000003,-0.00001560,-0.00001884,0.,-0.00001354,0.0
 0026654,0.,-0.00053243,0.00018794,0.,-0.00000478,-0.00000064,0.,-0.000
 01569,-0.00002625,0.00000821,-0.00001569,-0.00002625,-0.00000821,0.000
 72641,-0.00041747,0.,0.28408596,0.00155230,-0.00515007,-0.00000001,-0.
 00122251,-0.00037368,0.,0.00119055,-0.00046784,0.,-0.02904450,-0.00988
 311,0.00000004,0.00332651,-0.00107704,0.,-0.00044296,0.00008749,0.,-0.
 12369577,-0.13392258,0.00000012,0.00005533,0.00061172,0.,0.01451766,0.
 01229590,-0.00000001,0.00001873,0.00001700,0.,0.00013188,-0.00033982,0
 .,0.00033514,0.00019077,0.,0.00006772,0.00004241,0.,0.00001435,-0.0003
 0320,-0.00000290,0.00001435,-0.00030320,0.00000290,0.00043969,0.000768
 53,0.,0.13308882,0.13696703,0.,0.,0.00581933,0.,0.,-0.00007901,0.,0.,-
 0.00087584,0.,0.,0.00207352,0.,0.,0.00975016,0.,0.,-0.00092432,0.00000
 025,0.00000013,-0.03715303,0.,0.,0.00007240,0.00000001,0.00000002,0.00
 344143,0.,0.,0.00002928,0.,0.,0.00010521,0.,0.,-0.00063409,0.,0.,-0.00
 003857,-0.00003678,-0.00000228,0.00003208,0.00003678,0.00000228,0.0000
 3208,0.,0.,-0.00268218,-0.00000026,-0.00000013,0.02576706,0.00026505,0
 .00136545,0.,-0.00041018,-0.00000851,0.,-0.00413958,0.00137074,-0.0000
 0001,0.00011203,0.00023977,0.,0.00402320,0.02658066,-0.00000003,-0.001
 24355,0.00002063,0.,0.00023336,-0.00051682,0.,-0.05986846,-0.01079763,
 -0.00000003,0.00074259,0.00225885,0.,0.00017302,-0.00008363,0.,-0.0047
 1047,-0.00191414,-0.00000003,0.00418325,-0.02964847,0.00000003,-0.0000
 1873,0.00014109,0.,0.00001185,-0.00001507,0.00001745,0.00001185,-0.000
 01507,-0.00001745,-0.00001329,-0.00006307,0.,-0.00000046,-0.00000809,0
 .,0.06056870,-0.00074161,-0.00079530,0.,0.00028454,0.00005465,0.,0.002
 84491,0.00061307,0.,0.00009385,0.00029058,0.,-0.00320431,-0.01375018,0
 .00000001,0.00024412,0.00048920,0.,0.00037531,0.00011864,0.,-0.0103464
 6,-0.33847962,0.00000026,-0.00229564,0.00084359,0.,-0.00005875,0.00000
 208,0.,-0.00320840,0.00094551,0.,0.00253888,-0.01084726,0.00000002,0.0
 0004832,-0.00008508,0.,-0.00002222,0.00000340,-0.00000376,-0.00002221,
 0.00000340,0.00000376,0.00003869,0.00004482,0.,0.00006314,-0.00002374,
 0.,0.01278399,0.35977944,0.,0.,-0.00006129,0.,0.,0.00019357,-0.0000000
 1,0.,0.00499105,0.,0.,-0.00004510,-0.00000001,0.00000006,0.00260463,0.
 ,0.,-0.00093599,0.,0.,-0.00011171,0.,0.00000028,-0.03595811,0.00000001
 ,0.,-0.00299457,0.,0.,-0.00114984,-0.00000003,0.,0.00902940,-0.0000000
 2,-0.00000006,0.00365490,0.,0.,0.00002632,-0.00001218,0.00004539,0.000
 00604,0.00001218,-0.00004539,0.00000604,0.,0.,0.00003402,0.,0.,0.00016
 825,0.00000005,-0.00000029,0.02498864,-0.00124355,-0.00002063,0.,0.000
 17302,0.00008363,0.,-0.00413958,-0.00137074,0.,-0.00471047,0.00191413,
 0.,0.00402321,-0.02658065,0.00000002,0.00026505,-0.00136545,0.,0.00418
 323,0.02964848,-0.00000002,0.00074259,-0.00225885,0.,-0.05986847,0.010
 79778,0.,-0.00041018,0.00000851,0.,0.00011203,-0.00023977,0.,0.0002333
 6,0.00051682,0.,0.00005615,-0.00010328,0.,0.00002145,0.00004387,0.0000
 1635,0.00002145,0.00004387,-0.00001635,-0.00002610,0.00140463,0.,0.000
 87801,-0.00043393,0.,-0.00087115,0.00073552,0.,0.06056872,-0.00024412,
 0.00048920,0.,0.00005875,0.00000208,0.,-0.00284491,0.00061306,0.,0.003
 20840,0.00094551,0.,0.00320432,-0.01375019,0.00000001,0.00074161,-0.00
 079530,0.,-0.00253887,-0.01084725,0.00000001,0.00229564,0.00084359,0.,
 0.01034661,-0.33847961,0.00000020,-0.00028455,0.00005465,0.,-0.0000938
 5,0.00029058,0.,-0.00037531,0.00011864,0.,0.00000897,0.00001935,0.,-0.
 00004270,-0.00000839,-0.00000506,-0.00004270,-0.00000838,0.00000506,-0
 .00013631,-0.00068433,0.,0.00036444,0.00078515,0.,-0.00073552,0.000689
 39,0.,-0.01278416,0.35977942,-0.00000002,0.,-0.00093599,0.,0.,-0.00114
 984,0.00000001,-0.00000001,0.00499105,0.00000001,0.,0.00902940,0.00000
 003,0.00000004,0.00260463,0.,0.,-0.00006129,0.00000002,-0.00000003,0.0
 0365490,0.,0.,-0.00299457,-0.00000004,0.00000022,-0.03595811,0.,0.,0.0
 0019357,0.,0.,-0.00004510,0.,0.,-0.00011171,0.,0.,0.00003801,-0.000088
 49,-0.00018754,0.00002353,0.00008849,0.00018754,0.00002353,0.,0.,0.000
 17506,0.,0.,-0.00498743,0.,0.,0.00028105,0.,-0.00000022,0.02498864,0.0
 0030264,0.00041437,0.,-0.00069374,0.00050127,0.,0.00101462,-0.00049779
 ,-0.00000001,-0.00006359,-0.00013209,0.,-0.00051766,0.00028243,0.,-0.0
 0523756,-0.00082355,-0.00000001,0.00002525,0.00007528,0.,0.00026543,0.
 00018217,0.,0.00011291,-0.00018306,0.,-0.30934601,-0.05327755,-0.00000
 213,0.00031241,0.00419982,0.00000001,0.00052179,-0.00018941,0.00000002
 ,-0.00023970,-0.00030046,0.,-0.00000443,-0.00013221,-0.00052520,-0.000
 00442,-0.00013221,0.00052520,0.00000343,0.00001836,0.,-0.00001760,-0.0
 0002256,0.,0.00005615,-0.00000897,0.,-0.00001873,-0.00004832,0.,0.3351
 6257,0.00060615,-0.00038260,0.,0.00088500,-0.00034993,0.,0.00158481,-0
 .00556962,0.,-0.00014269,0.00005156,0.,-0.00182272,-0.00009517,0.,-0.0
 3324510,-0.00894142,-0.00000026,-0.00002554,0.00014215,0.,0.00024654,0
 .00009071,0.,0.00031293,-0.00046819,0.,-0.04777209,-0.05572067,-0.0000
 0043,-0.00297713,0.00005923,0.,0.00010275,-0.00005925,0.,0.00030046,0.
 00027226,0.,0.00004667,0.00015363,0.00048550,0.00004667,0.00015365,-0.
 00048551,-0.00007040,-0.00001886,0.,-0.00001440,0.00001328,0.,0.000103
 28,0.00001935,0.,-0.00014109,-0.00008508,0.,0.05382520,0.06700794,0.,0
 .,-0.00018218,0.00000004,0.,-0.00084893,0.,0.,0.00135341,0.,0.,-0.0000
 4872,0.,0.,0.00015872,0.00000003,0.00000004,-0.00134462,0.,0.,-0.00003
 434,0.,0.,0.00006749,0.,0.,-0.00012512,-0.00000215,-0.00000049,-0.0486
 4210,0.,0.00000002,0.00000174,0.,0.,-0.00031171,0.,0.,0.00051102,0.000
 13399,0.00031187,0.00040476,-0.00013399,-0.00031189,0.00040475,0.,0.,0
 .00000432,0.,0.,0.00001820,0.,0.,0.00003801,0.,0.,0.00002632,0.0000023
 7,0.00000044,0.04581489,0.00064492,-0.00045059,-0.00016202,-0.00291879
 ,-0.00004545,0.00011617,-0.00062296,-0.00061033,0.00006533,-0.00035150
 ,-0.00014102,-0.00003609,-0.00019080,0.00039345,-0.00016650,0.00264468
 ,-0.00061075,0.00570585,-0.00005697,0.00030242,-0.00002101,0.00061566,
 -0.00027908,0.00004353,0.00019080,0.00014114,-0.00000616,-0.08953735,0
 .04441878,-0.09028795,-0.00030673,0.00081095,-0.00005348,-0.00015765,-
 0.00014241,0.00031893,-0.00000441,-0.00004667,0.00013401,0.00011434,0.
 00009413,0.00005947,-0.00506098,-0.00019782,0.00027846,-0.00000042,-0.
 00000501,0.00005563,-0.00000213,0.00002934,0.00000216,0.00002145,0.000
 04270,-0.00008849,0.00001185,0.00002221,-0.00001218,-0.01130425,0.0133
 4727,-0.02615130,0.10098984,-0.00046382,-0.00054687,0.00048613,0.00019
 827,-0.00028812,0.00057837,0.00068090,0.00076683,-0.00042452,-0.000087
 74,0.00024817,-0.00004308,0.00047083,-0.00029083,-0.00085339,0.0148347
 1,-0.01466777,0.02581751,-0.00004364,-0.00003990,0.00007753,0.00005531
 ,-0.00033013,0.00018390,-0.00001038,0.00018542,0.00001307,0.04472450,-
 0.09458290,0.09573946,-0.00175568,-0.00342920,-0.00008909,0.00043567,-
 0.00040889,-0.00182022,0.00013221,0.00015364,-0.00031189,-0.00009415,0
 .00001004,-0.00015362,0.00019785,0.00111733,-0.00040553,-0.00004622,0.
 00001155,-0.00003953,-0.00001630,0.00001243,0.00000245,-0.00004387,-0.
 00000838,0.00018754,0.00001507,0.00000340,-0.00004539,-0.00217849,0.00
 232260,-0.00579542,-0.05091363,0.10430831,0.00016817,0.00064145,-0.000
 17988,-0.00147399,0.00067505,-0.00068145,-0.00066625,0.00019481,0.0005
 3542,-0.00009979,-0.00044472,-0.00002490,-0.00010698,0.00016720,-0.000
 02004,0.00209939,-0.00107247,0.00330171,0.00000326,0.00016911,-0.00006
 904,0.00019183,0.00003219,-0.00003304,0.00009982,-0.00009091,0.0000024
 4,-0.08829038,0.09377508,-0.22430180,0.00040156,-0.00026594,-0.0001126
 2,0.00009021,-0.00022004,-0.00032341,-0.00052519,-0.00048550,0.0004047
 6,0.00005943,0.00015362,-0.00077435,-0.00027843,-0.00040555,0.00196753
 ,0.00007207,0.00001610,0.00005469,0.00000014,-0.00002269,-0.00000162,0
 .00001635,0.00000506,0.00002353,0.00001745,0.00000376,0.00000604,0.000
 68689,-0.00147539,0.00107008,0.09911524,-0.10262915,0.24014921,0.00064
 488,-0.00045062,0.00016201,-0.00291897,-0.00004552,-0.00011616,-0.0006
 2295,-0.00061027,-0.00006534,-0.00035149,-0.00014101,0.00003609,-0.000
 19078,0.00039343,0.00016650,0.00264463,-0.00061069,-0.00570586,-0.0000
 5697,0.00030241,0.00002102,0.00061565,-0.00027908,-0.00004353,0.000190
 79,0.00014115,0.00000616,-0.08954033,0.04442043,0.09029026,-0.00030671
 ,0.00081090,0.00005350,-0.00015764,-0.00014238,-0.00031891,-0.00000443
 ,-0.00004667,-0.00013398,-0.00506066,-0.00019785,-0.00027854,0.0001143
 0,0.00009415,-0.00005944,-0.00000042,-0.00000501,-0.00005563,-0.000002
 13,0.00002935,-0.00000216,0.00002145,0.00004270,0.00008849,0.00001185,
 0.00002222,0.00001218,-0.01130463,0.01334723,0.02615099,0.00489680,-0.
 00620646,-0.01166949,0.10099318,-0.00046382,-0.00054688,-0.00048612,0.
 00019824,-0.00028808,-0.00057835,0.00068088,0.00076686,0.00042452,-0.0
 0008775,0.00024817,0.00004308,0.00047083,-0.00029082,0.00085338,0.0148
 3521,-0.01466778,-0.02581724,-0.00004365,-0.00003990,-0.00007753,0.000
 05531,-0.00033012,-0.00018390,-0.00001037,0.00018543,-0.00001307,0.044
 72613,-0.09458346,-0.09573886,-0.00175570,-0.00342925,0.00008907,0.000
 43568,-0.00040890,0.00182022,0.00013221,0.00015364,0.00031188,0.000197
 81,0.00111738,0.00040552,-0.00009413,0.00001004,0.00015361,-0.00004622
 ,0.00001155,0.00003953,-0.00001630,0.00001243,-0.00000245,-0.00004387,
 -0.00000839,-0.00018754,0.00001507,0.00000340,0.00004539,-0.00217860,0
 .00232263,0.00579543,-0.00620664,0.00584765,0.01131254,-0.05091541,0.1
 0430879,-0.00016816,-0.00064147,-0.00017989,0.00147407,-0.00067504,-0.
 00068137,0.00066624,-0.00019481,0.00053543,0.00009979,0.00044472,-0.00
 002490,0.00010698,-0.00016720,-0.00002004,-0.00209942,0.00107252,0.003
 30161,-0.00000327,-0.00016911,-0.00006904,-0.00019183,-0.00003220,-0.0
 0003304,-0.00009981,0.00009092,0.00000244,0.08829245,-0.09377452,-0.22
 429812,-0.00040156,0.00026594,-0.00011263,-0.00009020,0.00022006,-0.00
 032341,0.00052521,0.00048551,0.00040475,0.00027856,0.00040550,0.001967
 58,-0.00005948,-0.00015360,-0.00077440,-0.00007207,-0.00001610,0.00005
 469,-0.00000014,0.00002269,-0.00000162,-0.00001635,-0.00000506,0.00002
 353,-0.00001745,-0.00000376,0.00000604,-0.00068711,0.00147565,0.001070
 53,0.01166997,-0.01131274,-0.02110931,-0.09911773,0.10262849,0.2401451
 1,-0.00035449,-0.00132024,0.,0.00005523,-0.00013120,0.,-0.00277464,0.0
 0410167,-0.00000003,-0.00051248,0.00021765,0.,-0.00000808,0.00077624,0
 .,-0.02076974,-0.01457327,-0.00000005,-0.00005260,0.00023916,0.,0.0017
 8866,0.00018359,-0.00000001,0.00026666,-0.00004479,0.,0.00003146,-0.00
 233907,0.,-0.27602801,-0.11402880,-0.00000052,0.00287137,0.00215439,0.
 ,0.00000343,0.00007040,0.,-0.00000042,0.00004621,0.00007207,-0.0000004
 2,0.00004622,-0.00007207,-0.00014523,-0.00005930,0.,-0.00002241,-0.000
 00954,0.,-0.00002610,0.00013631,0.,-0.00001329,-0.00003869,0.,0.000979
 89,0.00145558,0.,0.00040031,0.00008881,0.00008048,0.00040031,0.0000888
 1,-0.00008047,0.29318416,0.00014564,0.00057101,0.,-0.00000622,0.000081
 55,0.,0.00319412,-0.00151289,0.,0.00032073,0.00021845,0.,0.00112458,-0
 .00046570,0.,0.01457701,0.00781922,0.00000003,0.00016550,-0.00031802,0
 .,0.00110637,-0.00599125,0.,-0.00049328,0.00005050,0.,0.00332895,0.000
 40194,0.,-0.11699569,-0.11898087,-0.00000024,-0.02975458,-0.01015314,-
 0.00000006,-0.00001836,-0.00001886,0.,0.00000501,0.00001155,-0.0000161
 0,0.00000501,0.00001155,0.00001610,0.00005930,0.00006181,0.,-0.0000163
 4,0.00000136,0.,-0.00140463,-0.00068433,0.,0.00006307,0.00004482,0.,0.
 00067407,-0.00096063,0.,0.00006136,-0.00009118,-0.00003650,0.00006136,
 -0.00009118,0.00003650,0.12337954,0.12922574,0.,0.,0.00029295,0.,0.,0.
 00001823,-0.00000001,0.00000003,0.00802228,0.,0.,-0.00064935,0.,0.,-0.
 00092192,-0.00000010,-0.00000007,0.00420867,0.,0.,0.00011515,0.,0.,0.0
 0572533,0.,0.,-0.00067981,0.00000004,0.,-0.00571874,-0.00000050,-0.000
 00023,-0.03661119,0.,0.,0.00224243,0.,0.,0.00000432,0.00005563,0.00003
 953,0.00005469,-0.00005563,-0.00003953,0.00005469,0.,0.,-0.00001828,0.
 ,0.,0.00007825,0.,0.,0.00017506,0.,0.,0.00003402,-0.00000001,0.,0.0006
 3207,-0.00054279,0.00083532,0.00008396,0.00054278,-0.00083531,0.000083
 98,0.00000058,0.00000025,0.02545540,0.00028761,0.00005172,0.,-0.000015
 60,0.00001884,0.,-0.00011783,-0.00061861,0.,-0.00001354,-0.00026654,0.
 ,-0.00288114,-0.00415432,-0.00000003,0.00171414,-0.00086793,0.,-0.0005
 3243,-0.00018794,0.,-0.01858579,0.01758653,-0.00000006,-0.00048592,0.0
 0123593,0.,-0.00001449,-0.00009608,0.,0.00410848,-0.00283759,0.,-0.268
 94175,0.12305022,-0.00000062,-0.00001760,0.00001440,0.,-0.00000213,0.0
 0001630,0.00000014,-0.00000213,0.00001630,-0.00000014,-0.00002241,0.00
 001634,0.,-0.00013135,0.00006814,0.,0.00087801,-0.00036443,0.00000001,
 -0.00000046,-0.00006314,0.,-0.00000478,0.00000064,0.,-0.00001569,0.000
 02625,0.00000821,-0.00001569,0.00002625,-0.00000821,0.00072641,0.00041
 747,0.,0.28408610,0.00044296,0.00008750,0.,-0.00001873,0.00001700,0.,-
 0.00119055,-0.00046784,0.,-0.00013188,-0.00033982,0.,-0.00332651,-0.00
 107704,0.,-0.00155230,-0.00515008,0.,-0.00033514,0.00019077,0.,-0.0145
 1768,0.01229590,-0.00000004,-0.00005533,0.00061172,0.,0.00122251,-0.00
 037368,0.,0.02904451,-0.00988310,0.00000008,0.12369569,-0.13392244,0.0
 0000034,0.00002256,0.00001328,0.,-0.00002934,0.00001243,0.00002269,-0.
 00002935,0.00001243,-0.00002269,0.00000954,0.00000136,0.,-0.00006814,0
 .00003877,0.,0.00043393,0.00078515,0.,0.00000809,-0.00002374,0.,-0.000
 06772,0.00004241,0.,-0.00001435,-0.00030319,0.00000290,-0.00001435,-0.
 00030320,-0.00000290,-0.00043969,0.00076853,0.,-0.13308874,0.13696688,
 0.,0.,-0.00092432,0.,0.,0.00002928,0.,0.,-0.00087584,0.,0.,0.00010521,
 -0.00000002,0.,0.00975016,0.,0.,0.00581933,0.,0.,-0.00063409,-0.000000
 04,0.00000004,0.00344143,0.,0.,0.00007240,0.,0.,-0.00007901,-0.0000000
 1,0.,0.00207352,-0.00000063,0.00000034,-0.03715303,0.,0.,0.00001820,0.
 00000216,-0.00000245,-0.00000162,-0.00000216,0.00000245,-0.00000162,0.
 ,0.,0.00007825,0.,0.,-0.00000953,0.00000001,0.,-0.00498743,0.,0.,0.000
 16825,0.,0.,-0.00003857,-0.00003678,0.00000228,0.00003208,0.00003678,-
 0.00000228,0.00003208,0.,0.,-0.00268218,0.00000069,-0.00000038,0.02576
 706\\-0.00000014,0.00000005,-0.00000007,0.00000008,0.00000031,-0.00000
 014,0.,-0.00000063,-0.00000031,0.00000023,-0.00000035,0.00000012,0.,0.
 00000069,0.00000006,0.00000014,0.00000005,-0.00000010,-0.00000053,0.00
 000048,0.,-0.00000008,-0.00000050,0.,0.00000009,-0.00000050,0.,-0.0000
 0008,0.00000030,-0.00000011,-0.00000023,-0.00000035,0.00000012,0.00000
 053,0.00000048,0.,-0.00000012,-0.00000008,0.,0.00000024,-0.00000012,0.
 00000016,-0.00000019,-0.00000018,0.00000004,-0.00000008,0.,-0.00000001
 ,0.00000005,0.00000010,0.,-0.00000001,0.00000027,0.00000002,0.00000001
 ,0.00000027,0.00000002,0.00000012,-0.00000008,0.,0.00000019,-0.0000001
 9,0.00000003,-0.00000024,-0.00000011,0.00000015,0.00000008,0.,0.,-0.00
 000005,0.00000010,0.\\\@


 MOM AND DAD WENT TO ALPHA CENTAURI AND ALL
 I GOT WAS THIS DUMB T-SHIRT.
 Job cpu time:       0 days  9 hours 58 minutes 38.4 seconds.
 File lengths (MBytes):  RWF=    423 Int=      0 D2E=      0 Chk=     15 Scr=      1
 Normal termination of Gaussian 09 at Fri Jul  9 20:27:07 2021.
