 Entering Gaussian System, Link 0=/home/minenky/programs/g09/g09
 Input=m1_00_3355-34-80_C6H4_wB97XD.inp
 Output=m1_00_3355-34-80_C6H4_wB97XD.out
 Initial command:
 /home/minenky/programs//g09/l1.exe "/home/minenky/tmp/Gau-24356.inp" -scrdir="/home/minenky/tmp/"
 Entering Link 1 = /home/minenky/programs//g09/l1.exe PID=     24358.
  
 Copyright (c) 1988,1990,1992,1993,1995,1998,2003,2009,2013,
            Gaussian, Inc.  All Rights Reserved.
  
 This is part of the Gaussian(R) 09 program.  It is based on
 the Gaussian(R) 03 system (copyright 2003, Gaussian, Inc.),
 the Gaussian(R) 98 system (copyright 1998, Gaussian, Inc.),
 the Gaussian(R) 94 system (copyright 1995, Gaussian, Inc.),
 the Gaussian 92(TM) system (copyright 1992, Gaussian, Inc.),
 the Gaussian 90(TM) system (copyright 1990, Gaussian, Inc.),
 the Gaussian 88(TM) system (copyright 1988, Gaussian, Inc.),
 the Gaussian 86(TM) system (copyright 1986, Carnegie Mellon
 University), and the Gaussian 82(TM) system (copyright 1983,
 Carnegie Mellon University). Gaussian is a federally registered
 trademark of Gaussian, Inc.
  
 This software contains proprietary and confidential information,
 including trade secrets, belonging to Gaussian, Inc.
  
 This software is provided under written license and may be
 used, copied, transmitted, or stored only in accord with that
 written license.
  
 The following legend is applicable only to US Government
 contracts under FAR:
  
                    RESTRICTED RIGHTS LEGEND
  
 Use, reproduction and disclosure by the US Government is
 subject to restrictions as set forth in subparagraphs (a)
 and (c) of the Commercial Computer Software - Restricted
 Rights clause in FAR 52.227-19.
  
 Gaussian, Inc.
 340 Quinnipiac St., Bldg. 40, Wallingford CT 06492
  
  
 ---------------------------------------------------------------
 Warning -- This program may not be used in any manner that
 competes with the business of Gaussian, Inc. or will provide
 assistance to any competitor of Gaussian, Inc.  The licensee
 of this program is prohibited from giving any competitor of
 Gaussian, Inc. access to this program.  By using this program,
 the user acknowledges that Gaussian, Inc. is engaged in the
 business of creating and licensing software in the field of
 computational chemistry and represents and warrants to the
 licensee that it is not a competitor of Gaussian, Inc. and that
 it will not use this program in any manner prohibited above.
 ---------------------------------------------------------------
  

 Cite this work as:
 Gaussian 09, Revision D.01,
 M. J. Frisch, G. W. Trucks, H. B. Schlegel, G. E. Scuseria, 
 M. A. Robb, J. R. Cheeseman, G. Scalmani, V. Barone, B. Mennucci, 
 G. A. Petersson, H. Nakatsuji, M. Caricato, X. Li, H. P. Hratchian, 
 A. F. Izmaylov, J. Bloino, G. Zheng, J. L. Sonnenberg, M. Hada, 
 M. Ehara, K. Toyota, R. Fukuda, J. Hasegawa, M. Ishida, T. Nakajima, 
 Y. Honda, O. Kitao, H. Nakai, T. Vreven, J. A. Montgomery, Jr., 
 J. E. Peralta, F. Ogliaro, M. Bearpark, J. J. Heyd, E. Brothers, 
 K. N. Kudin, V. N. Staroverov, T. Keith, R. Kobayashi, J. Normand, 
 K. Raghavachari, A. Rendell, J. C. Burant, S. S. Iyengar, J. Tomasi, 
 M. Cossi, N. Rega, J. M. Millam, M. Klene, J. E. Knox, J. B. Cross, 
 V. Bakken, C. Adamo, J. Jaramillo, R. Gomperts, R. E. Stratmann, 
 O. Yazyev, A. J. Austin, R. Cammi, C. Pomelli, J. W. Ochterski, 
 R. L. Martin, K. Morokuma, V. G. Zakrzewski, G. A. Voth, 
 P. Salvador, J. J. Dannenberg, S. Dapprich, A. D. Daniels, 
 O. Farkas, J. B. Foresman, J. V. Ortiz, J. Cioslowski, 
 and D. J. Fox, Gaussian, Inc., Wallingford CT, 2013.
 
 ******************************************
 Gaussian 09:  AM64L-G09RevD.01 24-Apr-2013
                28-Sep-2023 
 ******************************************
 %chk=m1_00_3355-34-80_C6H4_wB97XD
 %NProcLinda=1
 Will use up to    1 processors via Linda.
 %Nprocshared=16
 Will use up to   16 processors via shared memory.
 %mem=48000MB
 ----------------------------------------------------------------------
 #P wB97XD/def2tzvp opt=(tight) freq integral(Grid=ultrafine) # SCF(Max
 Cycle=380) 5d 7f GFPrint
 ----------------------------------------------------------------------
 1/7=10,14=-1,18=20,19=15,26=4,38=1/1,3;
 2/9=110,12=2,17=6,18=5,40=1/2;
 3/5=44,7=101,8=11,11=2,16=1,24=100,25=1,30=1,71=1,74=-58,75=-5/1,2,3;
 4//1;
 5/5=2,7=380,38=5/2;
 6/7=2,8=2,9=2,10=2,28=1/1;
 7//1,2,3,16;
 1/7=10,14=-1,18=20,19=15,26=4/3(2);
 2/9=110/2;
 99//99;
 2/9=110/2;
 3/5=44,7=101,8=11,11=2,16=1,25=1,30=1,71=1,74=-58,75=-5/1,2,3;
 4/5=5,16=3,69=1/1;
 5/5=2,7=380,38=5/2;
 7//1,2,3,16;
 1/7=10,14=-1,18=20,19=15,26=4/3(-5);
 2/9=110/2;
 6/7=2,8=2,9=2,10=2,19=2,28=1/1;
 99/9=1/99;
 Leave Link    1 at Thu Sep 28 17:40:23 2023, MaxMem=  6291456000 cpu:         0.3
 (Enter /home/minenky/programs//g09/l101.exe)
 ---------------------------------------
 The PBEPBE optimization and frequencies
 ---------------------------------------
 Symbolic Z-matrix:
 Charge =  0 Multiplicity = 1
 C                    -0.07885   1.18814   0.73959 
 C                     0.        0.        1.34139 
 C                     0.07885  -1.18814   0.73959 
 C                     0.07885  -1.18814  -0.73959 
 C                     0.        0.       -1.34139 
 C                    -0.07885   1.18814  -0.73959 
 H                     0.48297   2.17172   1.18658 
 H                    -0.48297  -2.17172   1.18658 
 H                    -0.48297  -2.17172  -1.18658 
 H                     0.48297   2.17172  -1.18658 
 
 NAtoms=     10 NQM=       10 NQMF=       0 NMMI=      0 NMMIF=      0
                NMic=       0 NMicF=      0.
                    Isotopes and Nuclear Properties:
 (Nuclear quadrupole moments (NQMom) in fm**2, nuclear magnetic moments (NMagM)
  in nuclear magnetons)

  Atom         1           2           3           4           5           6           7           8           9          10
 IAtWgt=          12          12          12          12          12          12           1           1           1           1
 AtmWgt=  12.0000000  12.0000000  12.0000000  12.0000000  12.0000000  12.0000000   1.0078250   1.0078250   1.0078250   1.0078250
 NucSpn=           0           0           0           0           0           0           1           1           1           1
 AtZEff=   0.0000000   0.0000000   0.0000000   0.0000000   0.0000000   0.0000000   0.0000000   0.0000000   0.0000000   0.0000000
 NQMom=    0.0000000   0.0000000   0.0000000   0.0000000   0.0000000   0.0000000   0.0000000   0.0000000   0.0000000   0.0000000
 NMagM=    0.0000000   0.0000000   0.0000000   0.0000000   0.0000000   0.0000000   2.7928460   2.7928460   2.7928460   2.7928460
 AtZNuc=   6.0000000   6.0000000   6.0000000   6.0000000   6.0000000   6.0000000   1.0000000   1.0000000   1.0000000   1.0000000
 Leave Link  101 at Thu Sep 28 17:40:24 2023, MaxMem=  6291456000 cpu:         4.3
 (Enter /home/minenky/programs//g09/l103.exe)

 GradGradGradGradGradGradGradGradGradGradGradGradGradGradGradGradGradGrad
 Berny optimization.
 Initialization pass.
                           ----------------------------
                           !    Initial Parameters    !
                           ! (Angstroms and Degrees)  !
 --------------------------                            --------------------------
 ! Name  Definition              Value          Derivative Info.                !
 --------------------------------------------------------------------------------
 ! R1    R(1,2)                  1.3342         estimate D2E/DX2                !
 ! R2    R(1,6)                  1.4792         estimate D2E/DX2                !
 ! R3    R(1,7)                  1.2177         estimate D2E/DX2                !
 ! R4    R(2,3)                  1.3342         estimate D2E/DX2                !
 ! R5    R(3,4)                  1.4792         estimate D2E/DX2                !
 ! R6    R(3,8)                  1.2177         estimate D2E/DX2                !
 ! R7    R(4,5)                  1.3342         estimate D2E/DX2                !
 ! R8    R(4,9)                  1.2177         estimate D2E/DX2                !
 ! R9    R(5,6)                  1.3342         estimate D2E/DX2                !
 ! R10   R(6,10)                 1.2177         estimate D2E/DX2                !
 ! A1    A(2,1,6)              116.8119         estimate D2E/DX2                !
 ! A2    A(2,1,7)              121.7667         estimate D2E/DX2                !
 ! A3    A(6,1,7)              111.5349         estimate D2E/DX2                !
 ! A4    A(1,2,3)              126.3762         estimate D2E/DX2                !
 ! A5    A(2,3,4)              116.8119         estimate D2E/DX2                !
 ! A6    A(2,3,8)              121.7667         estimate D2E/DX2                !
 ! A7    A(4,3,8)              111.5349         estimate D2E/DX2                !
 ! A8    A(3,4,5)              116.8119         estimate D2E/DX2                !
 ! A9    A(3,4,9)              111.5349         estimate D2E/DX2                !
 ! A10   A(5,4,9)              121.7667         estimate D2E/DX2                !
 ! A11   A(4,5,6)              126.3762         estimate D2E/DX2                !
 ! A12   A(1,6,5)              116.8119         estimate D2E/DX2                !
 ! A13   A(1,6,10)             111.5349         estimate D2E/DX2                !
 ! A14   A(5,6,10)             121.7667         estimate D2E/DX2                !
 ! D1    D(6,1,2,3)              0.0            estimate D2E/DX2                !
 ! D2    D(7,1,2,3)           -142.8163         estimate D2E/DX2                !
 ! D3    D(2,1,6,5)              0.0            estimate D2E/DX2                !
 ! D4    D(2,1,6,10)          -146.4684         estimate D2E/DX2                !
 ! D5    D(7,1,6,5)            146.4684         estimate D2E/DX2                !
 ! D6    D(7,1,6,10)             0.0            estimate D2E/DX2                !
 ! D7    D(1,2,3,4)              0.0            estimate D2E/DX2                !
 ! D8    D(1,2,3,8)           -142.8163         estimate D2E/DX2                !
 ! D9    D(2,3,4,5)              0.0            estimate D2E/DX2                !
 ! D10   D(2,3,4,9)           -146.4684         estimate D2E/DX2                !
 ! D11   D(8,3,4,5)            146.4684         estimate D2E/DX2                !
 ! D12   D(8,3,4,9)              0.0            estimate D2E/DX2                !
 ! D13   D(3,4,5,6)              0.0            estimate D2E/DX2                !
 ! D14   D(9,4,5,6)            142.8163         estimate D2E/DX2                !
 ! D15   D(4,5,6,1)              0.0            estimate D2E/DX2                !
 ! D16   D(4,5,6,10)           142.8163         estimate D2E/DX2                !
 --------------------------------------------------------------------------------
 Trust Radius=3.00D-01 FncErr=1.00D-07 GrdErr=1.00D-06
 Number of steps in this run=     50 maximum allowed number of steps=    100.
 GradGradGradGradGradGradGradGradGradGradGradGradGradGradGradGradGradGrad

 Leave Link  103 at Thu Sep 28 17:40:24 2023, MaxMem=  6291456000 cpu:         0.1
 (Enter /home/minenky/programs//g09/l202.exe)
                          Input orientation:                          
 ---------------------------------------------------------------------
 Center     Atomic      Atomic             Coordinates (Angstroms)
 Number     Number       Type             X           Y           Z
 ---------------------------------------------------------------------
      1          6           0       -0.078852    1.188135    0.739592
      2          6           0        0.000000    0.000000    1.341393
      3          6           0        0.078852   -1.188135    0.739592
      4          6           0        0.078852   -1.188135   -0.739592
      5          6           0        0.000000    0.000000   -1.341393
      6          6           0       -0.078852    1.188135   -0.739592
      7          1           0        0.482966    2.171721    1.186583
      8          1           0       -0.482966   -2.171721    1.186583
      9          1           0       -0.482966   -2.171721   -1.186583
     10          1           0        0.482966    2.171721   -1.186583
 ---------------------------------------------------------------------
                    Distance matrix (angstroms):
                    1          2          3          4          5
     1  C    0.000000
     2  C    1.334184   0.000000
     3  C    2.381497   1.334184   0.000000
     4  C    2.803483   2.397578   1.479184   0.000000
     5  C    2.397578   2.682786   2.397578   1.334184   0.000000
     6  C    1.479184   2.397578   2.803483   2.381497   1.334184
     7  H    1.217736   2.230156   3.413465   3.893853   3.367535
     8  H    3.413465   2.230156   1.217736   2.234554   3.367535
     9  H    3.893853   3.367535   2.234554   1.217736   2.230156
    10  H    2.234554   3.367535   3.893853   3.413465   2.230156
                    6          7          8          9         10
     6  C    0.000000
     7  H    2.234554   0.000000
     8  H    3.893853   4.449552   0.000000
     9  H    3.413465   5.042859   2.373166   0.000000
    10  H    1.217736   2.373166   5.042859   4.449552   0.000000
 Stoichiometry    C6H4
 Framework group  C2H[C2(C.C),X(C4H4)]
 Deg. of freedom     6
 Full point group                 C2H     NOp   4
 Largest Abelian subgroup         C2H     NOp   4
 Largest concise Abelian subgroup C2H     NOp   4
                         Standard orientation:                         
 ---------------------------------------------------------------------
 Center     Atomic      Atomic             Coordinates (Angstroms)
 Number     Number       Type             X           Y           Z
 ---------------------------------------------------------------------
      1          6           0        0.000000    1.190749    0.739592
      2          6           0        0.000000    0.000000    1.341393
      3          6           0        0.000000   -1.190749    0.739592
      4          6           0        0.000000   -1.190749   -0.739592
      5          6           0        0.000000    0.000000   -1.341393
      6          6           0        0.000000    1.190749   -0.739592
      7          1           0        0.625717    2.134972    1.186583
      8          1           0       -0.625717   -2.134972    1.186583
      9          1           0       -0.625717   -2.134972   -1.186583
     10          1           0        0.625717    2.134972   -1.186583
 ---------------------------------------------------------------------
 Rotational constants (GHZ):      6.6189128      5.7421740      3.1217486
 Leave Link  202 at Thu Sep 28 17:40:24 2023, MaxMem=  6291456000 cpu:         0.0
 (Enter /home/minenky/programs//g09/l301.exe)
 Standard basis: def2TZVP (5D, 7F)
 ======================================================================================================
                                       Pseudopotential Parameters
 ======================================================================================================
  Center     Atomic      Valence      Angular      Power
  Number     Number     Electrons     Momentum     of R      Exponent        Coefficient   SO-Coeffient
 ======================================================================================================
    1          6
                                   No pseudopotential on this center.
    2          6
                                   No pseudopotential on this center.
    3          6
                                   No pseudopotential on this center.
    4          6
                                   No pseudopotential on this center.
    5          6
                                   No pseudopotential on this center.
    6          6
                                   No pseudopotential on this center.
    7          1
                                   No pseudopotential on this center.
    8          1
                                   No pseudopotential on this center.
    9          1
                                   No pseudopotential on this center.
   10          1
                                   No pseudopotential on this center.
 ======================================================================================================
 Ernie: Thresh=  0.10000D-02 Tol=  0.10000D-05 Strict=F.
 AO basis set (Overlap normalization):
 Atom C1       Shell     1 S   6     bf    1 -     1          0.000000000000          2.250188842019          1.397626330073
      0.1357534968D+05  0.6064550360D-03
      0.2035233368D+04  0.4697908888D-02
      0.4632256236D+03  0.2433247765D-01
      0.1312001960D+03  0.9739996831D-01
      0.4285301589D+02  0.3019558425D+00
      0.1558418577D+02  0.6623360914D+00
 Atom C1       Shell     2 S   2     bf    2 -     2          0.000000000000          2.250188842019          1.397626330073
      0.6206713851D+01  0.6559530854D+00
      0.2576489653D+01  0.3758563329D+00
 Atom C1       Shell     3 S   1     bf    3 -     3          0.000000000000          2.250188842019          1.397626330073
      0.5769633942D+00  0.1000000000D+01
 Atom C1       Shell     4 S   1     bf    4 -     4          0.000000000000          2.250188842019          1.397626330073
      0.2297283136D+00  0.1000000000D+01
 Atom C1       Shell     5 S   1     bf    5 -     5          0.000000000000          2.250188842019          1.397626330073
      0.9516444003D-01  0.1000000000D+01
 Atom C1       Shell     6 P   4     bf    6 -     8          0.000000000000          2.250188842019          1.397626330073
      0.3469723224D+02  0.1132722000D-01
      0.7958262283D+01  0.7616965920D-01
      0.2378082688D+01  0.3019225220D+00
      0.8143320818D+00  0.7278502735D+00
 Atom C1       Shell     7 P   1     bf    9 -    11          0.000000000000          2.250188842019          1.397626330073
      0.2888754725D+00  0.1000000000D+01
 Atom C1       Shell     8 P   1     bf   12 -    14          0.000000000000          2.250188842019          1.397626330073
      0.1005682367D+00  0.1000000000D+01
 Atom C1       Shell     9 D   1     bf   15 -    19          0.000000000000          2.250188842019          1.397626330073
      0.1097000000D+01  0.1000000000D+01
 Atom C1       Shell    10 D   1     bf   20 -    24          0.000000000000          2.250188842019          1.397626330073
      0.3180000000D+00  0.1000000000D+01
 Atom C1       Shell    11 F   1     bf   25 -    31          0.000000000000          2.250188842019          1.397626330073
      0.7610000000D+00  0.1000000000D+01
 Atom C2       Shell    12 S   6     bf   32 -    32          0.000000000000          0.000000000000          2.534865406570
      0.1357534968D+05  0.6064550360D-03
      0.2035233368D+04  0.4697908888D-02
      0.4632256236D+03  0.2433247765D-01
      0.1312001960D+03  0.9739996831D-01
      0.4285301589D+02  0.3019558425D+00
      0.1558418577D+02  0.6623360914D+00
 Atom C2       Shell    13 S   2     bf   33 -    33          0.000000000000          0.000000000000          2.534865406570
      0.6206713851D+01  0.6559530854D+00
      0.2576489653D+01  0.3758563329D+00
 Atom C2       Shell    14 S   1     bf   34 -    34          0.000000000000          0.000000000000          2.534865406570
      0.5769633942D+00  0.1000000000D+01
 Atom C2       Shell    15 S   1     bf   35 -    35          0.000000000000          0.000000000000          2.534865406570
      0.2297283136D+00  0.1000000000D+01
 Atom C2       Shell    16 S   1     bf   36 -    36          0.000000000000          0.000000000000          2.534865406570
      0.9516444003D-01  0.1000000000D+01
 Atom C2       Shell    17 P   4     bf   37 -    39          0.000000000000          0.000000000000          2.534865406570
      0.3469723224D+02  0.1132722000D-01
      0.7958262283D+01  0.7616965920D-01
      0.2378082688D+01  0.3019225220D+00
      0.8143320818D+00  0.7278502735D+00
 Atom C2       Shell    18 P   1     bf   40 -    42          0.000000000000          0.000000000000          2.534865406570
      0.2888754725D+00  0.1000000000D+01
 Atom C2       Shell    19 P   1     bf   43 -    45          0.000000000000          0.000000000000          2.534865406570
      0.1005682367D+00  0.1000000000D+01
 Atom C2       Shell    20 D   1     bf   46 -    50          0.000000000000          0.000000000000          2.534865406570
      0.1097000000D+01  0.1000000000D+01
 Atom C2       Shell    21 D   1     bf   51 -    55          0.000000000000          0.000000000000          2.534865406570
      0.3180000000D+00  0.1000000000D+01
 Atom C2       Shell    22 F   1     bf   56 -    62          0.000000000000          0.000000000000          2.534865406570
      0.7610000000D+00  0.1000000000D+01
 Atom C3       Shell    23 S   6     bf   63 -    63          0.000000000000         -2.250188842019          1.397626330073
      0.1357534968D+05  0.6064550360D-03
      0.2035233368D+04  0.4697908888D-02
      0.4632256236D+03  0.2433247765D-01
      0.1312001960D+03  0.9739996831D-01
      0.4285301589D+02  0.3019558425D+00
      0.1558418577D+02  0.6623360914D+00
 Atom C3       Shell    24 S   2     bf   64 -    64          0.000000000000         -2.250188842019          1.397626330073
      0.6206713851D+01  0.6559530854D+00
      0.2576489653D+01  0.3758563329D+00
 Atom C3       Shell    25 S   1     bf   65 -    65          0.000000000000         -2.250188842019          1.397626330073
      0.5769633942D+00  0.1000000000D+01
 Atom C3       Shell    26 S   1     bf   66 -    66          0.000000000000         -2.250188842019          1.397626330073
      0.2297283136D+00  0.1000000000D+01
 Atom C3       Shell    27 S   1     bf   67 -    67          0.000000000000         -2.250188842019          1.397626330073
      0.9516444003D-01  0.1000000000D+01
 Atom C3       Shell    28 P   4     bf   68 -    70          0.000000000000         -2.250188842019          1.397626330073
      0.3469723224D+02  0.1132722000D-01
      0.7958262283D+01  0.7616965920D-01
      0.2378082688D+01  0.3019225220D+00
      0.8143320818D+00  0.7278502735D+00
 Atom C3       Shell    29 P   1     bf   71 -    73          0.000000000000         -2.250188842019          1.397626330073
      0.2888754725D+00  0.1000000000D+01
 Atom C3       Shell    30 P   1     bf   74 -    76          0.000000000000         -2.250188842019          1.397626330073
      0.1005682367D+00  0.1000000000D+01
 Atom C3       Shell    31 D   1     bf   77 -    81          0.000000000000         -2.250188842019          1.397626330073
      0.1097000000D+01  0.1000000000D+01
 Atom C3       Shell    32 D   1     bf   82 -    86          0.000000000000         -2.250188842019          1.397626330073
      0.3180000000D+00  0.1000000000D+01
 Atom C3       Shell    33 F   1     bf   87 -    93          0.000000000000         -2.250188842019          1.397626330073
      0.7610000000D+00  0.1000000000D+01
 Atom C4       Shell    34 S   6     bf   94 -    94          0.000000000000         -2.250188842019         -1.397626330073
      0.1357534968D+05  0.6064550360D-03
      0.2035233368D+04  0.4697908888D-02
      0.4632256236D+03  0.2433247765D-01
      0.1312001960D+03  0.9739996831D-01
      0.4285301589D+02  0.3019558425D+00
      0.1558418577D+02  0.6623360914D+00
 Atom C4       Shell    35 S   2     bf   95 -    95          0.000000000000         -2.250188842019         -1.397626330073
      0.6206713851D+01  0.6559530854D+00
      0.2576489653D+01  0.3758563329D+00
 Atom C4       Shell    36 S   1     bf   96 -    96          0.000000000000         -2.250188842019         -1.397626330073
      0.5769633942D+00  0.1000000000D+01
 Atom C4       Shell    37 S   1     bf   97 -    97          0.000000000000         -2.250188842019         -1.397626330073
      0.2297283136D+00  0.1000000000D+01
 Atom C4       Shell    38 S   1     bf   98 -    98          0.000000000000         -2.250188842019         -1.397626330073
      0.9516444003D-01  0.1000000000D+01
 Atom C4       Shell    39 P   4     bf   99 -   101          0.000000000000         -2.250188842019         -1.397626330073
      0.3469723224D+02  0.1132722000D-01
      0.7958262283D+01  0.7616965920D-01
      0.2378082688D+01  0.3019225220D+00
      0.8143320818D+00  0.7278502735D+00
 Atom C4       Shell    40 P   1     bf  102 -   104          0.000000000000         -2.250188842019         -1.397626330073
      0.2888754725D+00  0.1000000000D+01
 Atom C4       Shell    41 P   1     bf  105 -   107          0.000000000000         -2.250188842019         -1.397626330073
      0.1005682367D+00  0.1000000000D+01
 Atom C4       Shell    42 D   1     bf  108 -   112          0.000000000000         -2.250188842019         -1.397626330073
      0.1097000000D+01  0.1000000000D+01
 Atom C4       Shell    43 D   1     bf  113 -   117          0.000000000000         -2.250188842019         -1.397626330073
      0.3180000000D+00  0.1000000000D+01
 Atom C4       Shell    44 F   1     bf  118 -   124          0.000000000000         -2.250188842019         -1.397626330073
      0.7610000000D+00  0.1000000000D+01
 Atom C5       Shell    45 S   6     bf  125 -   125          0.000000000000          0.000000000000         -2.534865406570
      0.1357534968D+05  0.6064550360D-03
      0.2035233368D+04  0.4697908888D-02
      0.4632256236D+03  0.2433247765D-01
      0.1312001960D+03  0.9739996831D-01
      0.4285301589D+02  0.3019558425D+00
      0.1558418577D+02  0.6623360914D+00
 Atom C5       Shell    46 S   2     bf  126 -   126          0.000000000000          0.000000000000         -2.534865406570
      0.6206713851D+01  0.6559530854D+00
      0.2576489653D+01  0.3758563329D+00
 Atom C5       Shell    47 S   1     bf  127 -   127          0.000000000000          0.000000000000         -2.534865406570
      0.5769633942D+00  0.1000000000D+01
 Atom C5       Shell    48 S   1     bf  128 -   128          0.000000000000          0.000000000000         -2.534865406570
      0.2297283136D+00  0.1000000000D+01
 Atom C5       Shell    49 S   1     bf  129 -   129          0.000000000000          0.000000000000         -2.534865406570
      0.9516444003D-01  0.1000000000D+01
 Atom C5       Shell    50 P   4     bf  130 -   132          0.000000000000          0.000000000000         -2.534865406570
      0.3469723224D+02  0.1132722000D-01
      0.7958262283D+01  0.7616965920D-01
      0.2378082688D+01  0.3019225220D+00
      0.8143320818D+00  0.7278502735D+00
 Atom C5       Shell    51 P   1     bf  133 -   135          0.000000000000          0.000000000000         -2.534865406570
      0.2888754725D+00  0.1000000000D+01
 Atom C5       Shell    52 P   1     bf  136 -   138          0.000000000000          0.000000000000         -2.534865406570
      0.1005682367D+00  0.1000000000D+01
 Atom C5       Shell    53 D   1     bf  139 -   143          0.000000000000          0.000000000000         -2.534865406570
      0.1097000000D+01  0.1000000000D+01
 Atom C5       Shell    54 D   1     bf  144 -   148          0.000000000000          0.000000000000         -2.534865406570
      0.3180000000D+00  0.1000000000D+01
 Atom C5       Shell    55 F   1     bf  149 -   155          0.000000000000          0.000000000000         -2.534865406570
      0.7610000000D+00  0.1000000000D+01
 Atom C6       Shell    56 S   6     bf  156 -   156          0.000000000000          2.250188842019         -1.397626330073
      0.1357534968D+05  0.6064550360D-03
      0.2035233368D+04  0.4697908888D-02
      0.4632256236D+03  0.2433247765D-01
      0.1312001960D+03  0.9739996831D-01
      0.4285301589D+02  0.3019558425D+00
      0.1558418577D+02  0.6623360914D+00
 Atom C6       Shell    57 S   2     bf  157 -   157          0.000000000000          2.250188842019         -1.397626330073
      0.6206713851D+01  0.6559530854D+00
      0.2576489653D+01  0.3758563329D+00
 Atom C6       Shell    58 S   1     bf  158 -   158          0.000000000000          2.250188842019         -1.397626330073
      0.5769633942D+00  0.1000000000D+01
 Atom C6       Shell    59 S   1     bf  159 -   159          0.000000000000          2.250188842019         -1.397626330073
      0.2297283136D+00  0.1000000000D+01
 Atom C6       Shell    60 S   1     bf  160 -   160          0.000000000000          2.250188842019         -1.397626330073
      0.9516444003D-01  0.1000000000D+01
 Atom C6       Shell    61 P   4     bf  161 -   163          0.000000000000          2.250188842019         -1.397626330073
      0.3469723224D+02  0.1132722000D-01
      0.7958262283D+01  0.7616965920D-01
      0.2378082688D+01  0.3019225220D+00
      0.8143320818D+00  0.7278502735D+00
 Atom C6       Shell    62 P   1     bf  164 -   166          0.000000000000          2.250188842019         -1.397626330073
      0.2888754725D+00  0.1000000000D+01
 Atom C6       Shell    63 P   1     bf  167 -   169          0.000000000000          2.250188842019         -1.397626330073
      0.1005682367D+00  0.1000000000D+01
 Atom C6       Shell    64 D   1     bf  170 -   174          0.000000000000          2.250188842019         -1.397626330073
      0.1097000000D+01  0.1000000000D+01
 Atom C6       Shell    65 D   1     bf  175 -   179          0.000000000000          2.250188842019         -1.397626330073
      0.3180000000D+00  0.1000000000D+01
 Atom C6       Shell    66 F   1     bf  180 -   186          0.000000000000          2.250188842019         -1.397626330073
      0.7610000000D+00  0.1000000000D+01
 Atom H7       Shell    67 S   3     bf  187 -   187          1.182434664151          4.034512521602          2.242316903938
      0.3406134100D+02  0.2543930721D-01
      0.5123574600D+01  0.1900859489D+00
      0.1164662600D+01  0.8524411301D+00
 Atom H7       Shell    68 S   1     bf  188 -   188          1.182434664151          4.034512521602          2.242316903938
      0.3272304100D+00  0.1000000000D+01
 Atom H7       Shell    69 S   1     bf  189 -   189          1.182434664151          4.034512521602          2.242316903938
      0.1030724100D+00  0.1000000000D+01
 Atom H7       Shell    70 P   1     bf  190 -   192          1.182434664151          4.034512521602          2.242316903938
      0.8000000000D+00  0.1000000000D+01
 Atom H8       Shell    71 S   3     bf  193 -   193         -1.182434664151         -4.034512521602          2.242316903938
      0.3406134100D+02  0.2543930721D-01
      0.5123574600D+01  0.1900859489D+00
      0.1164662600D+01  0.8524411301D+00
 Atom H8       Shell    72 S   1     bf  194 -   194         -1.182434664151         -4.034512521602          2.242316903938
      0.3272304100D+00  0.1000000000D+01
 Atom H8       Shell    73 S   1     bf  195 -   195         -1.182434664151         -4.034512521602          2.242316903938
      0.1030724100D+00  0.1000000000D+01
 Atom H8       Shell    74 P   1     bf  196 -   198         -1.182434664151         -4.034512521602          2.242316903938
      0.8000000000D+00  0.1000000000D+01
 Atom H9       Shell    75 S   3     bf  199 -   199         -1.182434664151         -4.034512521602         -2.242316903938
      0.3406134100D+02  0.2543930721D-01
      0.5123574600D+01  0.1900859489D+00
      0.1164662600D+01  0.8524411301D+00
 Atom H9       Shell    76 S   1     bf  200 -   200         -1.182434664151         -4.034512521602         -2.242316903938
      0.3272304100D+00  0.1000000000D+01
 Atom H9       Shell    77 S   1     bf  201 -   201         -1.182434664151         -4.034512521602         -2.242316903938
      0.1030724100D+00  0.1000000000D+01
 Atom H9       Shell    78 P   1     bf  202 -   204         -1.182434664151         -4.034512521602         -2.242316903938
      0.8000000000D+00  0.1000000000D+01
 Atom H10      Shell    79 S   3     bf  205 -   205          1.182434664151          4.034512521602         -2.242316903938
      0.3406134100D+02  0.2543930721D-01
      0.5123574600D+01  0.1900859489D+00
      0.1164662600D+01  0.8524411301D+00
 Atom H10      Shell    80 S   1     bf  206 -   206          1.182434664151          4.034512521602         -2.242316903938
      0.3272304100D+00  0.1000000000D+01
 Atom H10      Shell    81 S   1     bf  207 -   207          1.182434664151          4.034512521602         -2.242316903938
      0.1030724100D+00  0.1000000000D+01
 Atom H10      Shell    82 P   1     bf  208 -   210          1.182434664151          4.034512521602         -2.242316903938
      0.8000000000D+00  0.1000000000D+01
 There are    62 symmetry adapted cartesian basis functions of AG  symmetry.
 There are    58 symmetry adapted cartesian basis functions of BG  symmetry.
 There are    62 symmetry adapted cartesian basis functions of AU  symmetry.
 There are    58 symmetry adapted cartesian basis functions of BU  symmetry.
 There are    54 symmetry adapted basis functions of AG  symmetry.
 There are    51 symmetry adapted basis functions of BG  symmetry.
 There are    54 symmetry adapted basis functions of AU  symmetry.
 There are    51 symmetry adapted basis functions of BU  symmetry.
   210 basis functions,   338 primitive gaussians,   240 cartesian basis functions
    20 alpha electrons       20 beta electrons
       nuclear repulsion energy       184.8005807998 Hartrees.
 IExCor= 4639 DFT=T Ex+Corr=wB97XD ExCW=0 ScaHFX=  1.000000
 ScaDFX=  1.000000  1.000000  1.000000  1.000000 ScalE2=  1.000000  1.000000
 IRadAn=      5 IRanWt=     -1 IRanGd=            0 ICorTp=0 IEmpDi=121
  HFx wShort=  0.000000 wLong=  0.200000 cFull=  0.222036 cShort=  0.000000 cLong=  0.777964
  DFx wShort=  0.000000 wLong=  0.200000 cFull=  0.000000 cShort=  0.000000 cLong=  1.000000
 NAtoms=   10 NActive=   10 NUniq=    3 SFac= 4.00D+00 NAtFMM=   60 NAOKFM=F Big=F
 Integral buffers will be    131072 words long.
 Raffenetti 2 integral format.
 Two-electron integral symmetry is turned on.
 R6Disp:  Grimme-D2 Dispersion energy=       -0.0028154578 Hartrees.
 Nuclear repulsion after empirical dispersion term =      184.7977653420 Hartrees.
 Leave Link  301 at Thu Sep 28 17:40:24 2023, MaxMem=  6291456000 cpu:         0.3
 (Enter /home/minenky/programs//g09/l302.exe)
 NPDir=0 NMtPBC=     1 NCelOv=     1 NCel=       1 NClECP=     1 NCelD=      1
         NCelK=      1 NCelE2=     1 NClLst=     1 CellRange=     0.0.
 One-electron integrals computed using PRISM.
 One-electron integral symmetry used in STVInt
   4 Symmetry operations used in ECPInt.
 ECPInt:  NShTT=    3403 NPrTT=   10584 LenC2=    3383 LenP2D=    8905.
 LDataN:  DoStor=T MaxTD1= 6 Len=  172
 NBasis=   210 RedAO= T EigKep=  3.85D-05  NBF=    54    51    54    51
 NBsUse=   210 1.00D-06 EigRej= -1.00D+00 NBFU=    54    51    54    51
 Precomputing XC quadrature grid using
 IXCGrd= 4 IRadAn=           5 IRanWt=          -1 IRanGd=           0 AccXCQ= 0.00D+00.
 Generated NRdTot=       0 NPtTot=           0 NUsed=           0 NTot=          32
 NSgBfM=   239   239   239   239   239 MxSgAt=    10 MxSgA2=    10.
 Leave Link  302 at Thu Sep 28 17:40:24 2023, MaxMem=  6291456000 cpu:         2.1
 (Enter /home/minenky/programs//g09/l303.exe)
 DipDrv:  MaxL=1.
 Leave Link  303 at Thu Sep 28 17:40:24 2023, MaxMem=  6291456000 cpu:         0.3
 (Enter /home/minenky/programs//g09/l401.exe)
 ExpMin= 9.52D-02 ExpMax= 1.36D+04 ExpMxC= 4.63D+02 IAcc=3 IRadAn=         5 AccDes= 0.00D+00
 Harris functional with IExCor= 4639 and IRadAn=       5 diagonalized for initial guess.
 HarFok:  IExCor= 4639 AccDes= 0.00D+00 IRadAn=         5 IDoV= 1 UseB2=F ITyADJ=14
 ICtDFT=  3500011 ScaDFX=  1.000000  1.000000  1.000000  1.000000
 FoFCou: FMM=F IPFlag=           0 FMFlag=      100000 FMFlg1=           0
         NFxFlg=           0 DoJE=T BraDBF=F KetDBF=T FulRan=T
         wScrn=  0.000000 ICntrl=     500 IOpCl=  0 I1Cent=   200000004 NGrid=           0
         NMat0=    1 NMatS0=      1 NMatT0=    0 NMatD0=    1 NMtDS0=    0 NMtDT0=    0
 Petite list used in FoFCou.
 Harris En= -220.371784047272    
 JPrj=0 DoOrth=F DoCkMO=F.
 Initial guess orbital symmetries:
       Occupied  (AU) (AG) (BU) (BG) (AG) (AU) (AG) (AU) (BU) (BG)
                 (AG) (BU) (AG) (BU) (AU) (BG) (BU) (AG) (BG) (AU)
       Virtual   (AG) (AU) (BU) (AG) (BU) (BG) (AU) (BG) (AG) (AG)
                 (BU) (BG) (BU) (AU) (AG) (BU) (BG) (AU) (BU) (AU)
                 (AG) (AU) (BU) (AG) (BU) (BG) (BG) (AU) (AG) (BU)
                 (AG) (BG) (BG) (AU) (AG) (AU) (BG) (AU) (BG) (BU)
                 (AG) (AG) (BU) (AU) (BG) (BU) (AG) (BG) (BU) (AG)
                 (AU) (BU) (AU) (BG) (AG) (BG) (AU) (AU) (BU) (AG)
                 (BU) (BU) (BG) (AU) (AG) (AU) (BG) (AG) (BU) (BG)
                 (AG) (BG) (AU) (AG) (BG) (AU) (BU) (AU) (AG) (BU)
                 (BU) (AU) (AG) (BG) (AG) (AU) (BU) (BU) (BG) (BG)
                 (AU) (AG) (BU) (AU) (AG) (BU) (BG) (AG) (BG) (AG)
                 (BG) (BU) (AU) (BU) (AU) (AG) (BG) (AG) (AU) (BU)
                 (BU) (BU) (AG) (BG) (AU) (AU) (AG) (BU) (AU) (BG)
                 (AG) (BG) (BU) (AU) (AG) (BU) (BG) (AG) (BG) (AG)
                 (BG) (AU) (BU) (AG) (AU) (AU) (BG) (AG) (AG) (BU)
                 (BU) (AU) (BU) (BG) (AU) (BU) (BG) (AU) (BG) (BU)
                 (AG) (BG) (AU) (AG) (AG) (BG) (BU) (AU) (BU) (AU)
                 (BG) (AG) (BG) (AG) (AU) (BG) (BU) (AG) (AU) (BU)
                 (AG) (BG) (BU) (AU) (AU) (AU) (BG) (BG) (AG) (AU)
                 (BU) (AU) (BG) (BG) (AG) (AU) (BG) (BU) (AG) (AU)
 The electronic state of the initial guess is 1-AG.
 Leave Link  401 at Thu Sep 28 17:40:24 2023, MaxMem=  6291456000 cpu:         4.2
 (Enter /home/minenky/programs//g09/l502.exe)
 Closed shell SCF:
 Using DIIS extrapolation, IDIIS=  1040.
 Integral symmetry usage will be decided dynamically.
 Keep R1 ints in memory in symmetry-blocked form, NReq=613983068.
 IVT=      327106 IEndB=      327106 NGot=  6291456000 MDV=  6229710551
 LenX=  6229710551 LenY=  6229652510
 Requested convergence on RMS density matrix=1.00D-08 within 380 cycles.
 Requested convergence on MAX density matrix=1.00D-06.
 Requested convergence on             energy=1.00D-06.
 No special actions if energy rises.
 FoFCou: FMM=F IPFlag=           0 FMFlag=           0 FMFlg1=           0
         NFxFlg=           0 DoJE=F BraDBF=F KetDBF=F FulRan=T
         wScrn=  0.000000 ICntrl=     600 IOpCl=  0 I1Cent=           0 NGrid=           0
         NMat0=    1 NMatS0=  22155 NMatT0=    0 NMatD0=    1 NMtDS0=    0 NMtDT0=    0
 Petite list used in FoFCou.
 Integral accuracy reduced to 1.0D-05 until final iterations.

 Cycle   1  Pass 0  IDiag  1:
 E= -230.707556130379    
 DIIS: error= 6.96D-02 at cycle   1 NSaved=   1.
 NSaved= 1 IEnMin= 1 EnMin= -230.707556130379     IErMin= 1 ErrMin= 6.96D-02
 ErrMax= 6.96D-02  0.00D+00 EMaxC= 1.00D-01 BMatC= 5.08D-01 BMatP= 5.08D-01
 IDIUse=3 WtCom= 3.04D-01 WtEn= 6.96D-01
 Coeff-Com:  0.100D+01
 Coeff-En:   0.100D+01
 Coeff:      0.100D+01
 Gap=     0.228 Goal=   None    Shift=    0.000
 GapD=    0.228 DampG=1.000 DampE=0.500 DampFc=0.5000 IDamp=-1.
 Damping current iteration by 5.00D-01
 RMSDP=1.39D-03 MaxDP=3.15D-02              OVMax= 5.26D-02

 Cycle   2  Pass 0  IDiag  1:
 E= -230.740239943131     Delta-E=       -0.032683812752 Rises=F Damp=T
 DIIS: error= 3.35D-02 at cycle   2 NSaved=   2.
 NSaved= 2 IEnMin= 2 EnMin= -230.740239943131     IErMin= 2 ErrMin= 3.35D-02
 ErrMax= 3.35D-02  0.00D+00 EMaxC= 1.00D-01 BMatC= 1.11D-01 BMatP= 5.08D-01
 IDIUse=3 WtCom= 6.65D-01 WtEn= 3.35D-01
 Coeff-Com: -0.837D+00 0.184D+01
 Coeff-En:   0.000D+00 0.100D+01
 Coeff:     -0.557D+00 0.156D+01
 Gap=     0.248 Goal=   None    Shift=    0.000
 RMSDP=8.78D-04 MaxDP=1.64D-02 DE=-3.27D-02 OVMax= 3.35D-02

 Cycle   3  Pass 0  IDiag  1:
 E= -230.770006682536     Delta-E=       -0.029766739405 Rises=F Damp=F
 DIIS: error= 6.28D-03 at cycle   3 NSaved=   3.
 NSaved= 3 IEnMin= 3 EnMin= -230.770006682536     IErMin= 3 ErrMin= 6.28D-03
 ErrMax= 6.28D-03  0.00D+00 EMaxC= 1.00D-01 BMatC= 3.06D-03 BMatP= 1.11D-01
 IDIUse=3 WtCom= 9.37D-01 WtEn= 6.28D-02
 Coeff-Com: -0.329D+00 0.714D+00 0.615D+00
 Coeff-En:   0.000D+00 0.000D+00 0.100D+01
 Coeff:     -0.309D+00 0.670D+00 0.639D+00
 Gap=     0.241 Goal=   None    Shift=    0.000
 RMSDP=1.89D-04 MaxDP=5.43D-03 DE=-2.98D-02 OVMax= 1.46D-02

 Cycle   4  Pass 0  IDiag  1:
 E= -230.772732965593     Delta-E=       -0.002726283057 Rises=F Damp=F
 DIIS: error= 8.51D-04 at cycle   4 NSaved=   4.
 NSaved= 4 IEnMin= 4 EnMin= -230.772732965593     IErMin= 4 ErrMin= 8.51D-04
 ErrMax= 8.51D-04  0.00D+00 EMaxC= 1.00D-01 BMatC= 1.14D-04 BMatP= 3.06D-03
 IDIUse=3 WtCom= 9.91D-01 WtEn= 8.51D-03
 Coeff-Com: -0.685D-01 0.150D+00 0.211D+00 0.708D+00
 Coeff-En:   0.000D+00 0.000D+00 0.000D+00 0.100D+01
 Coeff:     -0.680D-01 0.148D+00 0.209D+00 0.711D+00
 Gap=     0.243 Goal=   None    Shift=    0.000
 RMSDP=5.30D-05 MaxDP=9.25D-04 DE=-2.73D-03 OVMax= 5.96D-03

 Cycle   5  Pass 0  IDiag  1:
 E= -230.772872220551     Delta-E=       -0.000139254959 Rises=F Damp=F
 DIIS: error= 3.49D-04 at cycle   5 NSaved=   5.
 NSaved= 5 IEnMin= 5 EnMin= -230.772872220551     IErMin= 5 ErrMin= 3.49D-04
 ErrMax= 3.49D-04  0.00D+00 EMaxC= 1.00D-01 BMatC= 1.56D-05 BMatP= 1.14D-04
 IDIUse=3 WtCom= 9.97D-01 WtEn= 3.49D-03
 Coeff-Com:  0.339D-01-0.739D-01-0.406D-01 0.239D+00 0.842D+00
 Coeff-En:   0.000D+00 0.000D+00 0.000D+00 0.000D+00 0.100D+01
 Coeff:      0.338D-01-0.736D-01-0.405D-01 0.238D+00 0.843D+00
 Gap=     0.243 Goal=   None    Shift=    0.000
 RMSDP=4.98D-05 MaxDP=1.13D-03 DE=-1.39D-04 OVMax= 3.89D-03

 Cycle   6  Pass 0  IDiag  1:
 E= -230.772913521777     Delta-E=       -0.000041301226 Rises=F Damp=F
 DIIS: error= 1.89D-04 at cycle   6 NSaved=   6.
 NSaved= 6 IEnMin= 6 EnMin= -230.772913521777     IErMin= 6 ErrMin= 1.89D-04
 ErrMax= 1.89D-04  0.00D+00 EMaxC= 1.00D-01 BMatC= 1.20D-06 BMatP= 1.56D-05
 IDIUse=3 WtCom= 9.98D-01 WtEn= 1.89D-03
 Coeff-Com:  0.271D-02-0.564D-02-0.167D-01-0.987D-01-0.126D+00 0.124D+01
 Coeff-En:   0.000D+00 0.000D+00 0.000D+00 0.000D+00 0.000D+00 0.100D+01
 Coeff:      0.271D-02-0.563D-02-0.167D-01-0.985D-01-0.125D+00 0.124D+01
 Gap=     0.243 Goal=   None    Shift=    0.000
 RMSDP=2.93D-05 MaxDP=5.29D-04 DE=-4.13D-05 OVMax= 3.31D-03

 Cycle   7  Pass 0  IDiag  1:
 E= -230.772927205014     Delta-E=       -0.000013683236 Rises=F Damp=F
 DIIS: error= 1.01D-04 at cycle   7 NSaved=   7.
 NSaved= 7 IEnMin= 7 EnMin= -230.772927205014     IErMin= 7 ErrMin= 1.01D-04
 ErrMax= 1.01D-04  0.00D+00 EMaxC= 1.00D-01 BMatC= 2.98D-07 BMatP= 1.20D-06
 IDIUse=3 WtCom= 9.99D-01 WtEn= 1.01D-03
 Coeff-Com: -0.110D-01 0.237D-01 0.180D-01-0.334D-01-0.194D+00-0.276D+00
 Coeff-Com:  0.147D+01
 Coeff-En:   0.000D+00 0.000D+00 0.000D+00 0.000D+00 0.000D+00 0.000D+00
 Coeff-En:   0.100D+01
 Coeff:     -0.110D-01 0.236D-01 0.180D-01-0.334D-01-0.194D+00-0.275D+00
 Coeff:      0.147D+01
 Gap=     0.243 Goal=   None    Shift=    0.000
 RMSDP=1.83D-05 MaxDP=2.96D-04 DE=-1.37D-05 OVMax= 2.67D-03

 Cycle   8  Pass 0  IDiag  1:
 E= -230.772931447128     Delta-E=       -0.000004242114 Rises=F Damp=F
 DIIS: error= 3.17D-05 at cycle   8 NSaved=   8.
 NSaved= 8 IEnMin= 8 EnMin= -230.772931447128     IErMin= 8 ErrMin= 3.17D-05
 ErrMax= 3.17D-05  0.00D+00 EMaxC= 1.00D-01 BMatC= 2.33D-08 BMatP= 2.98D-07
 IDIUse=1 WtCom= 1.00D+00 WtEn= 0.00D+00
 Coeff-Com:  0.113D-02-0.246D-02-0.115D-02 0.119D-01 0.538D-01-0.103D+00
 Coeff-Com: -0.288D+00 0.133D+01
 Coeff:      0.113D-02-0.246D-02-0.115D-02 0.119D-01 0.538D-01-0.103D+00
 Coeff:     -0.288D+00 0.133D+01
 Gap=     0.243 Goal=   None    Shift=    0.000
 RMSDP=5.33D-06 MaxDP=7.27D-05 DE=-4.24D-06 OVMax= 9.23D-04

 Initial convergence to 1.0D-05 achieved.  Increase integral accuracy.
 Cycle   9  Pass 1  IDiag  1:
 E= -230.772907427732     Delta-E=        0.000024019395 Rises=F Damp=F
 DIIS: error= 3.21D-05 at cycle   1 NSaved=   1.
 NSaved= 1 IEnMin= 1 EnMin= -230.772907427732     IErMin= 1 ErrMin= 3.21D-05
 ErrMax= 3.21D-05  0.00D+00 EMaxC= 1.00D-01 BMatC= 2.10D-07 BMatP= 2.10D-07
 IDIUse=1 WtCom= 1.00D+00 WtEn= 0.00D+00
 Coeff-Com:  0.100D+01
 Coeff:      0.100D+01
 Gap=     0.244 Goal=   None    Shift=    0.000
 RMSDP=5.33D-06 MaxDP=7.27D-05 DE= 2.40D-05 OVMax= 8.83D-05

 Cycle  10  Pass 1  IDiag  1:
 E= -230.772907575364     Delta-E=       -0.000000147631 Rises=F Damp=F
 DIIS: error= 3.90D-06 at cycle   2 NSaved=   2.
 NSaved= 2 IEnMin= 2 EnMin= -230.772907575364     IErMin= 2 ErrMin= 3.90D-06
 ErrMax= 3.90D-06  0.00D+00 EMaxC= 1.00D-01 BMatC= 2.20D-09 BMatP= 2.10D-07
 IDIUse=1 WtCom= 1.00D+00 WtEn= 0.00D+00
 Coeff-Com: -0.794D-01 0.108D+01
 Coeff:     -0.794D-01 0.108D+01
 Gap=     0.244 Goal=   None    Shift=    0.000
 RMSDP=8.29D-07 MaxDP=1.72D-05 DE=-1.48D-07 OVMax= 5.01D-05

 Cycle  11  Pass 1  IDiag  1:
 E= -230.772907580283     Delta-E=       -0.000000004919 Rises=F Damp=F
 DIIS: error= 1.95D-06 at cycle   3 NSaved=   3.
 NSaved= 3 IEnMin= 3 EnMin= -230.772907580283     IErMin= 3 ErrMin= 1.95D-06
 ErrMax= 1.95D-06  0.00D+00 EMaxC= 1.00D-01 BMatC= 1.32D-10 BMatP= 2.20D-09
 IDIUse=1 WtCom= 1.00D+00 WtEn= 0.00D+00
 Coeff-Com: -0.206D-02-0.483D-01 0.105D+01
 Coeff:     -0.206D-02-0.483D-01 0.105D+01
 Gap=     0.244 Goal=   None    Shift=    0.000
 RMSDP=2.35D-07 MaxDP=4.84D-06 DE=-4.92D-09 OVMax= 2.70D-05

 Cycle  12  Pass 1  IDiag  1:
 E= -230.772907581090     Delta-E=       -0.000000000807 Rises=F Damp=F
 DIIS: error= 1.12D-06 at cycle   4 NSaved=   4.
 NSaved= 4 IEnMin= 4 EnMin= -230.772907581090     IErMin= 4 ErrMin= 1.12D-06
 ErrMax= 1.12D-06  0.00D+00 EMaxC= 1.00D-01 BMatC= 4.01D-11 BMatP= 1.32D-10
 IDIUse=1 WtCom= 1.00D+00 WtEn= 0.00D+00
 Coeff-Com:  0.724D-02-0.111D+00 0.156D+00 0.948D+00
 Coeff:      0.724D-02-0.111D+00 0.156D+00 0.948D+00
 Gap=     0.244 Goal=   None    Shift=    0.000
 RMSDP=1.28D-07 MaxDP=2.08D-06 DE=-8.07D-10 OVMax= 1.67D-05

 Cycle  13  Pass 1  IDiag  1:
 E= -230.772907581338     Delta-E=       -0.000000000248 Rises=F Damp=F
 DIIS: error= 6.83D-07 at cycle   5 NSaved=   5.
 NSaved= 5 IEnMin= 5 EnMin= -230.772907581338     IErMin= 5 ErrMin= 6.83D-07
 ErrMax= 6.83D-07  0.00D+00 EMaxC= 1.00D-01 BMatC= 1.12D-11 BMatP= 4.01D-11
 IDIUse=1 WtCom= 1.00D+00 WtEn= 0.00D+00
 Coeff-Com:  0.586D-03 0.924D-02-0.279D+00 0.151D+00 0.112D+01
 Coeff:      0.586D-03 0.924D-02-0.279D+00 0.151D+00 0.112D+01
 Gap=     0.244 Goal=   None    Shift=    0.000
 RMSDP=9.88D-08 MaxDP=1.90D-06 DE=-2.48D-10 OVMax= 1.35D-05

 Cycle  14  Pass 1  IDiag  1:
 E= -230.772907581434     Delta-E=       -0.000000000096 Rises=F Damp=F
 DIIS: error= 2.50D-07 at cycle   6 NSaved=   6.
 NSaved= 6 IEnMin= 6 EnMin= -230.772907581434     IErMin= 6 ErrMin= 2.50D-07
 ErrMax= 2.50D-07  0.00D+00 EMaxC= 1.00D-01 BMatC= 1.50D-12 BMatP= 1.12D-11
 IDIUse=1 WtCom= 1.00D+00 WtEn= 0.00D+00
 Coeff-Com: -0.147D-02 0.233D-01-0.590D-01-0.142D+00 0.106D+00 0.107D+01
 Coeff:     -0.147D-02 0.233D-01-0.590D-01-0.142D+00 0.106D+00 0.107D+01
 Gap=     0.244 Goal=   None    Shift=    0.000
 RMSDP=3.59D-08 MaxDP=6.35D-07 DE=-9.61D-11 OVMax= 5.76D-06

 Cycle  15  Pass 1  IDiag  1:
 E= -230.772907581454     Delta-E=       -0.000000000020 Rises=F Damp=F
 DIIS: error= 8.29D-08 at cycle   7 NSaved=   7.
 NSaved= 7 IEnMin= 7 EnMin= -230.772907581454     IErMin= 7 ErrMin= 8.29D-08
 ErrMax= 8.29D-08  0.00D+00 EMaxC= 1.00D-01 BMatC= 4.33D-13 BMatP= 1.50D-12
 IDIUse=1 WtCom= 1.00D+00 WtEn= 0.00D+00
 Coeff-Com: -0.614D-03 0.749D-02 0.116D-01-0.753D-01-0.125D+00 0.344D+00
 Coeff-Com:  0.839D+00
 Coeff:     -0.614D-03 0.749D-02 0.116D-01-0.753D-01-0.125D+00 0.344D+00
 Coeff:      0.839D+00
 Gap=     0.244 Goal=   None    Shift=    0.000
 RMSDP=1.29D-08 MaxDP=1.91D-07 DE=-1.98D-11 OVMax= 2.11D-06

 Cycle  16  Pass 1  IDiag  1:
 E= -230.772907581464     Delta-E=       -0.000000000010 Rises=F Damp=F
 DIIS: error= 4.73D-08 at cycle   8 NSaved=   8.
 NSaved= 8 IEnMin= 8 EnMin= -230.772907581464     IErMin= 8 ErrMin= 4.73D-08
 ErrMax= 4.73D-08  0.00D+00 EMaxC= 1.00D-01 BMatC= 1.28D-13 BMatP= 4.33D-13
 IDIUse=1 WtCom= 1.00D+00 WtEn= 0.00D+00
 Coeff-Com:  0.317D-03-0.586D-02 0.262D-01 0.347D-01-0.704D-01-0.298D+00
 Coeff-Com:  0.324D+00 0.989D+00
 Coeff:      0.317D-03-0.586D-02 0.262D-01 0.347D-01-0.704D-01-0.298D+00
 Coeff:      0.324D+00 0.989D+00
 Gap=     0.244 Goal=   None    Shift=    0.000
 RMSDP=5.34D-09 MaxDP=8.40D-08 DE=-9.95D-12 OVMax= 8.60D-07

 SCF Done:  E(RwB97XD) =  -230.772907581     A.U. after   16 cycles
            NFock= 16  Conv=0.53D-08     -V/T= 2.0073
 KE= 2.291077304378D+02 PE=-9.042406472802D+02 EE= 2.595622439190D+02
 Leave Link  502 at Thu Sep 28 17:40:30 2023, MaxMem=  6291456000 cpu:        80.6
 (Enter /home/minenky/programs//g09/l601.exe)
 Copying SCF densities to generalized density rwf, IOpCl= 0 IROHF=0.

 **********************************************************************

            Population analysis using the SCF density.

 **********************************************************************

 Orbital symmetries:
       Occupied  (BU) (AG) (AU) (BG) (AU) (AG) (AG) (BU) (AU) (BG)
                 (AG) (BU) (AG) (AU) (BU) (BG) (BU) (AG) (BG) (AU)
       Virtual   (AG) (AU) (BU) (AG) (BU) (BG) (AU) (BG) (AG) (AG)
                 (BU) (BG) (BU) (AU) (AG) (BU) (BG) (AU) (BU) (AU)
                 (AG) (AU) (BU) (AG) (BU) (BG) (BG) (AU) (AG) (BU)
                 (BG) (AG) (BG) (AU) (AU) (AG) (BG) (AU) (BG) (BU)
                 (AG) (AG) (BU) (AU) (BG) (BU) (AG) (BG) (BU) (AG)
                 (BU) (AU) (AU) (BG) (AG) (BG) (AU) (AU) (BU) (AG)
                 (BU) (BU) (BG) (AU) (AG) (AU) (BG) (AG) (BG) (BU)
                 (AU) (AG) (BG) (AG) (BG) (AU) (BU) (AU) (AG) (BU)
                 (BU) (AU) (AG) (BG) (AG) (AU) (BU) (BU) (BG) (AU)
                 (BG) (BU) (AG) (AU) (AG) (BU) (AG) (BG) (BG) (AG)
                 (BG) (BU) (AU) (AU) (BU) (AG) (BG) (AG) (BU) (AU)
                 (BG) (BU) (AG) (AU) (BU) (AU) (AG) (BU) (BG) (AU)
                 (AG) (BG) (BU) (AU) (AG) (BU) (BG) (AG) (BG) (AG)
                 (BG) (AU) (BU) (AG) (AU) (AU) (BG) (AG) (AG) (BU)
                 (BU) (AU) (BG) (BU) (AU) (BU) (BG) (AU) (BG) (BU)
                 (AG) (BG) (AU) (AG) (AG) (BG) (BU) (AU) (BU) (AU)
                 (BG) (AG) (BG) (AG) (AU) (BG) (BU) (AG) (AU) (BU)
                 (BG) (AG) (BU) (AU) (AU) (AU) (BG) (BG) (AG) (AU)
                 (BU) (AU) (BG) (BG) (AG) (AU) (BU) (BG) (AG) (AU)
 The electronic state is 1-AG.
 Alpha  occ. eigenvalues --  -10.34199 -10.34197 -10.34169 -10.34168 -10.29885
 Alpha  occ. eigenvalues --  -10.29881  -0.98158  -0.85877  -0.85476  -0.71384
 Alpha  occ. eigenvalues --   -0.67428  -0.56484  -0.56397  -0.52560  -0.52523
 Alpha  occ. eigenvalues --   -0.45861  -0.44154  -0.37277  -0.34832  -0.29260
 Alpha virt. eigenvalues --   -0.04910  -0.00391   0.05006   0.10658   0.12745
 Alpha virt. eigenvalues --    0.15255   0.16523   0.19616   0.22482   0.24782
 Alpha virt. eigenvalues --    0.25968   0.27441   0.28493   0.28967   0.29543
 Alpha virt. eigenvalues --    0.32401   0.32814   0.33163   0.34609   0.35457
 Alpha virt. eigenvalues --    0.37956   0.39146   0.39821   0.40630   0.42112
 Alpha virt. eigenvalues --    0.43564   0.45673   0.47459   0.48065   0.48552
 Alpha virt. eigenvalues --    0.49263   0.49436   0.51941   0.54999   0.56588
 Alpha virt. eigenvalues --    0.57237   0.58131   0.60134   0.61424   0.64471
 Alpha virt. eigenvalues --    0.70344   0.71348   0.72887   0.75187   0.80393
 Alpha virt. eigenvalues --    0.91775   0.93982   0.94966   0.96350   0.98443
 Alpha virt. eigenvalues --    1.02023   1.02180   1.04538   1.11183   1.13003
 Alpha virt. eigenvalues --    1.14462   1.16726   1.18357   1.18594   1.20655
 Alpha virt. eigenvalues --    1.27025   1.27823   1.28608   1.31490   1.32013
 Alpha virt. eigenvalues --    1.35132   1.35658   1.37534   1.48401   1.50182
 Alpha virt. eigenvalues --    1.51233   1.51305   1.51854   1.54169   1.60703
 Alpha virt. eigenvalues --    1.61961   1.62936   1.65441   1.66349   1.71198
 Alpha virt. eigenvalues --    1.75364   1.76244   1.78901   1.79734   1.81465
 Alpha virt. eigenvalues --    1.86477   1.87282   1.91692   1.92791   2.03526
 Alpha virt. eigenvalues --    2.04237   2.13333   2.13942   2.16095   2.20341
 Alpha virt. eigenvalues --    2.21230   2.27371   2.27389   2.31392   2.36810
 Alpha virt. eigenvalues --    2.38171   2.39532   2.46952   2.52005   2.52403
 Alpha virt. eigenvalues --    2.56327   2.56878   2.59059   2.60645   2.61046
 Alpha virt. eigenvalues --    2.69729   2.70437   2.71180   2.71651   2.71868
 Alpha virt. eigenvalues --    2.79571   2.82085   2.89446   2.89947   2.90565
 Alpha virt. eigenvalues --    2.91843   2.95290   2.95620   2.98605   2.99677
 Alpha virt. eigenvalues --    3.04319   3.04839   3.06420   3.11851   3.14679
 Alpha virt. eigenvalues --    3.15082   3.17313   3.19767   3.22324   3.24224
 Alpha virt. eigenvalues --    3.25792   3.26820   3.28608   3.32385   3.32944
 Alpha virt. eigenvalues --    3.35984   3.40873   3.44414   3.44445   3.50491
 Alpha virt. eigenvalues --    3.55693   3.56844   3.57925   3.61897   3.65897
 Alpha virt. eigenvalues --    3.66255   3.66665   3.69320   3.80803   3.85458
 Alpha virt. eigenvalues --    3.88659   3.90355   3.91049   4.02652   4.12845
 Alpha virt. eigenvalues --    4.15934   4.18826   4.21803   4.27305   4.35566
 Alpha virt. eigenvalues --    4.37527   4.37630   4.41438   4.46220   4.48762
 Alpha virt. eigenvalues --    4.52759   4.53646   4.59928   4.60429   4.73140
 Alpha virt. eigenvalues --    4.78338   4.83174   4.87194   4.95071   5.08414
 Alpha virt. eigenvalues --    5.12412   5.17599   5.23818   5.49119  21.72059
 Alpha virt. eigenvalues --   22.27188  22.47904  22.47954  22.71701  22.91781
          Condensed to atoms (all electrons):
               1          2          3          4          5          6
     1  C    4.921970   0.662971  -0.039251  -0.046890  -0.056191   0.310332
     2  C    0.662971   5.010517   0.662971  -0.056191  -0.056774  -0.056191
     3  C   -0.039251   0.662971   4.921970   0.310332  -0.056191  -0.046890
     4  C   -0.046890  -0.056191   0.310332   4.921970   0.662971  -0.039251
     5  C   -0.056191  -0.056774  -0.056191   0.662971   5.010517   0.662971
     6  C    0.310332  -0.056191  -0.046890  -0.039251   0.662971   4.921970
     7  H    0.384221  -0.030191   0.007187  -0.000406  -0.000638  -0.039830
     8  H    0.007187  -0.030191   0.384221  -0.039830  -0.000638  -0.000406
     9  H   -0.000406  -0.000638  -0.039830   0.384221  -0.030191   0.007187
    10  H   -0.039830  -0.000638  -0.000406   0.007187  -0.030191   0.384221
               7          8          9         10
     1  C    0.384221   0.007187  -0.000406  -0.039830
     2  C   -0.030191  -0.030191  -0.000638  -0.000638
     3  C    0.007187   0.384221  -0.039830  -0.000406
     4  C   -0.000406  -0.039830   0.384221   0.007187
     5  C   -0.000638  -0.000638  -0.030191  -0.030191
     6  C   -0.039830  -0.000406   0.007187   0.384221
     7  H    0.530776  -0.000267   0.000013  -0.007803
     8  H   -0.000267   0.530776  -0.007803   0.000013
     9  H    0.000013  -0.007803   0.530776  -0.000267
    10  H   -0.007803   0.000013  -0.000267   0.530776
 Mulliken charges:
               1
     1  C   -0.104114
     2  C   -0.105647
     3  C   -0.104114
     4  C   -0.104114
     5  C   -0.105647
     6  C   -0.104114
     7  H    0.156937
     8  H    0.156937
     9  H    0.156937
    10  H    0.156937
 Sum of Mulliken charges =   0.00000
 Mulliken charges with hydrogens summed into heavy atoms:
               1
     1  C    0.052824
     2  C   -0.105647
     3  C    0.052824
     4  C    0.052824
     5  C   -0.105647
     6  C    0.052824
 Electronic spatial extent (au):  <R**2>=            414.1391
 Charge=              0.0000 electrons
 Dipole moment (field-independent basis, Debye):
    X=              0.0000    Y=              0.0000    Z=              0.0000  Tot=              0.0000
 Quadrupole moment (field-independent basis, Debye-Ang):
   XX=            -36.4636   YY=            -27.8849   ZZ=            -40.3192
   XY=              4.5065   XZ=              0.0000   YZ=              0.0000
 Traceless Quadrupole moment (field-independent basis, Debye-Ang):
   XX=             -1.5743   YY=              7.0043   ZZ=             -5.4299
   XY=              4.5065   XZ=              0.0000   YZ=              0.0000
 Octapole moment (field-independent basis, Debye-Ang**2):
  XXX=              0.0000  YYY=              0.0000  ZZZ=              0.0000  XYY=              0.0000
  XXY=              0.0000  XXZ=              0.0000  XZZ=              0.0000  YZZ=              0.0000
  YYZ=              0.0000  XYZ=              0.0000
 Hexadecapole moment (field-independent basis, Debye-Ang**3):
 XXXX=            -50.4490 YYYY=           -263.8813 ZZZZ=           -300.9185 XXXY=             -8.3624
 XXXZ=              0.0000 YYYX=             13.5139 YYYZ=              0.0000 ZZZX=              0.0000
 ZZZY=              0.0000 XXYY=            -55.0826 XXZZ=            -54.1685 YYZZ=            -83.6891
 XXYZ=              0.0000 YYXZ=              0.0000 ZZXY=              4.8385
 N-N= 1.847977653420D+02 E-N=-9.042406489601D+02  KE= 2.291077304378D+02
 Symmetry AG   KE= 7.408142259707D+01
 Symmetry BG   KE= 4.012457176166D+01
 Symmetry AU   KE= 7.258394154909D+01
 Symmetry BU   KE= 4.231779452996D+01
 No NMR shielding tensors so no spin-rotation constants.
 Leave Link  601 at Thu Sep 28 17:40:30 2023, MaxMem=  6291456000 cpu:         1.9
 (Enter /home/minenky/programs//g09/l701.exe)
 Compute integral first derivatives.
 ... and contract with generalized density number  0.
 R6Disp: Adding Grimme-D2 dispersion energy 1st derivatives to the gradient.
   4 Symmetry operations used in ECPInt.
 ECPInt:  NShTT=    3403 NPrTT=   10584 LenC2=    3383 LenP2D=    8905.
 LDataN:  DoStor=T MaxTD1= 7 Len=  274
 Leave Link  701 at Thu Sep 28 17:40:30 2023, MaxMem=  6291456000 cpu:         2.3
 (Enter /home/minenky/programs//g09/l702.exe)
 L702 exits ... SP integral derivatives will be done elsewhere.
 Leave Link  702 at Thu Sep 28 17:40:30 2023, MaxMem=  6291456000 cpu:         0.2
 (Enter /home/minenky/programs//g09/l703.exe)
 Compute integral first derivatives, UseDBF=F ICtDFT=           0.
 Integral derivatives from FoFJK, PRISM(SPDF).
 Calling FoFJK, ICntrl=      2127 FMM=F ISym2X=1 I1Cent= 0 IOpClX= 0 NMat=1 NMatS=1 NMatT=0.
 FoFJK:  IHMeth= 1 ICntrl=    2127 DoSepK=T KAlg= 0 I1Cent=   0 FoldK=F
 IRaf=         1 NMat=   1 IRICut=       1 DoRegI=T DoRafI=F ISym2E= 1.
 FoFCou: FMM=F IPFlag=           0 FMFlag=      100000 FMFlg1=         800
         NFxFlg=           0 DoJE=F BraDBF=F KetDBF=F FulRan=T
         wScrn=  0.000000 ICntrl=    2527 IOpCl=  0 I1Cent=           0 NGrid=           0
         NMat0=    1 NMatS0=      1 NMatT0=    0 NMatD0=    1 NMtDS0=    0 NMtDT0=    0
 Petite list used in FoFCou.
 Leave Link  703 at Thu Sep 28 17:40:32 2023, MaxMem=  6291456000 cpu:        31.5
 (Enter /home/minenky/programs//g09/l716.exe)
 Dipole        = 0.00000000D+00 0.00000000D+00 5.32907052D-15
 ***** Axes restored to original set *****
 -------------------------------------------------------------------
 Center     Atomic                   Forces (Hartrees/Bohr)
 Number     Number              X              Y              Z
 -------------------------------------------------------------------
      1        6           0.048747628    0.040392636    0.031402087
      2        6           0.000000000    0.000000000   -0.006522060
      3        6          -0.048747628   -0.040392636    0.031402087
      4        6          -0.048747628   -0.040392636   -0.031402087
      5        6           0.000000000    0.000000000    0.006522060
      6        6           0.048747628    0.040392636   -0.031402087
      7        1          -0.038512989   -0.046670416   -0.020114987
      8        1           0.038512989    0.046670416   -0.020114987
      9        1           0.038512989    0.046670416    0.020114987
     10        1          -0.038512989   -0.046670416    0.020114987
 -------------------------------------------------------------------
 Cartesian Forces:  Max     0.048747628 RMS     0.034797024
 Leave Link  716 at Thu Sep 28 17:40:32 2023, MaxMem=  6291456000 cpu:         0.2
 (Enter /home/minenky/programs//g09/l103.exe)

 GradGradGradGradGradGradGradGradGradGradGradGradGradGradGradGradGradGrad
 Berny optimization.
 FormGI is forming the generalized inverse of G from B-inverse, IUseBI=4.
 Internal  Forces:  Max     0.062848909 RMS     0.020708706
 Search for a local minimum.
 Step number   1 out of a maximum of   50
 All quantities printed in internal units (Hartrees-Bohrs-Radians)
 RMS Force = .20709D-01 SwitMx=.10000D-02 MixMth= 1
 Mixed Optimization -- RFO/linear search
 Second derivative matrix not updated -- first step.
 ITU=  0
     Eigenvalues ---    0.01417   0.01936   0.02935   0.02959   0.03002
     Eigenvalues ---    0.03047   0.03144   0.13795   0.13822   0.14402
     Eigenvalues ---    0.14889   0.22472   0.23225   0.23415   0.23415
     Eigenvalues ---    0.23415   0.23415   0.23946   0.33178   0.34663
     Eigenvalues ---    0.53506   0.56961   0.58528   0.58528
 RFO step:  Lambda=-6.40755377D-02 EMin= 1.41674786D-02
 Linear search not attempted -- first point.
 Maximum step size (   0.300) exceeded in Quadratic search.
    -- Step size scaled by   0.692
 Iteration  1 RMS(Cart)=  0.04441074 RMS(Int)=  0.00196548
 Iteration  2 RMS(Cart)=  0.00217043 RMS(Int)=  0.00061567
 Iteration  3 RMS(Cart)=  0.00000273 RMS(Int)=  0.00061566
 Iteration  4 RMS(Cart)=  0.00000000 RMS(Int)=  0.00061566
 ITry= 1 IFail=0 DXMaxC= 9.70D-02 DCOld= 1.00D+10 DXMaxT= 3.00D-01 DXLimC= 3.00D+00 Rises=F
 ClnCor:  largest displacement from symmetrization is 1.07D-08 for atom     9.
 Variable       Old X    -DE/DX   Delta X   Delta X   Delta X     New X
                                 (Linear)    (Quad)   (Total)
    R1        2.52124  -0.00767   0.00000  -0.00817  -0.00817   2.51307
    R2        2.79525   0.00803   0.00000   0.01353   0.01353   2.80878
    R3        2.30119  -0.06285   0.00000  -0.14589  -0.14589   2.15530
    R4        2.52124  -0.00767   0.00000  -0.00817  -0.00817   2.51307
    R5        2.79525   0.00803   0.00000   0.01353   0.01353   2.80878
    R6        2.30119  -0.06285   0.00000  -0.14589  -0.14589   2.15530
    R7        2.52124  -0.00767   0.00000  -0.00817  -0.00817   2.51307
    R8        2.30119  -0.06285   0.00000  -0.14589  -0.14589   2.15530
    R9        2.52124  -0.00767   0.00000  -0.00817  -0.00817   2.51307
   R10        2.30119  -0.06285   0.00000  -0.14589  -0.14589   2.15530
    A1        2.03875  -0.00024   0.00000   0.00191   0.00152   2.04027
    A2        2.12523   0.00355   0.00000   0.02380   0.02262   2.14785
    A3        1.94665   0.00272   0.00000   0.01891   0.01760   1.96425
    A4        2.20568   0.00048   0.00000  -0.00382  -0.00304   2.20264
    A5        2.03875  -0.00024   0.00000   0.00191   0.00152   2.04027
    A6        2.12523   0.00355   0.00000   0.02380   0.02262   2.14785
    A7        1.94665   0.00272   0.00000   0.01891   0.01760   1.96425
    A8        2.03875  -0.00024   0.00000   0.00191   0.00152   2.04027
    A9        1.94665   0.00272   0.00000   0.01891   0.01760   1.96425
   A10        2.12523   0.00355   0.00000   0.02380   0.02262   2.14785
   A11        2.20568   0.00048   0.00000  -0.00382  -0.00304   2.20264
   A12        2.03875  -0.00024   0.00000   0.00191   0.00152   2.04027
   A13        1.94665   0.00272   0.00000   0.01891   0.01760   1.96425
   A14        2.12523   0.00355   0.00000   0.02380   0.02262   2.14785
    D1        0.00000   0.00000   0.00000   0.00000   0.00000   0.00000
    D2       -2.49262  -0.01098   0.00000  -0.08091  -0.08138  -2.57399
    D3        0.00000   0.00000   0.00000   0.00000   0.00000   0.00000
    D4       -2.55636  -0.01034   0.00000  -0.07550  -0.07563  -2.63199
    D5        2.55636   0.01034   0.00000   0.07550   0.07563   2.63199
    D6        0.00000   0.00000   0.00000   0.00000   0.00000   0.00000
    D7        0.00000   0.00000   0.00000   0.00000   0.00000   0.00000
    D8       -2.49262  -0.01098   0.00000  -0.08091  -0.08138  -2.57399
    D9        0.00000   0.00000   0.00000   0.00000   0.00000   0.00000
   D10       -2.55636  -0.01034   0.00000  -0.07550  -0.07563  -2.63199
   D11        2.55636   0.01034   0.00000   0.07550   0.07563   2.63199
   D12        0.00000   0.00000   0.00000   0.00000   0.00000   0.00000
   D13        0.00000   0.00000   0.00000   0.00000   0.00000   0.00000
   D14        2.49262   0.01098   0.00000   0.08091   0.08138   2.57399
   D15        0.00000   0.00000   0.00000   0.00000   0.00000   0.00000
   D16        2.49262   0.01098   0.00000   0.08091   0.08138   2.57399
         Item               Value     Threshold  Converged?
 Maximum Force            0.062849     0.000015     NO 
 RMS     Force            0.020709     0.000010     NO 
 Maximum Displacement     0.097010     0.000060     NO 
 RMS     Displacement     0.044972     0.000040     NO 
 Predicted change in Energy=-3.346680D-02
 Lowest energy point so far.  Saving SCF results.
 GradGradGradGradGradGradGradGradGradGradGradGradGradGradGradGradGradGrad

 Leave Link  103 at Thu Sep 28 17:40:32 2023, MaxMem=  6291456000 cpu:         0.1
 (Enter /home/minenky/programs//g09/l202.exe)
                          Input orientation:                          
 ---------------------------------------------------------------------
 Center     Atomic      Atomic             Coordinates (Angstroms)
 Number     Number       Type             X           Y           Z
 ---------------------------------------------------------------------
      1          6           0       -0.036643    1.185409    0.743171
      2          6           0        0.000000    0.000000    1.344825
      3          6           0        0.036643   -1.185409    0.743171
      4          6           0        0.036643   -1.185409   -0.743171
      5          6           0        0.000000    0.000000   -1.344825
      6          6           0       -0.036643    1.185409   -0.743171
      7          1           0        0.448577    2.120385    1.180434
      8          1           0       -0.448577   -2.120385    1.180434
      9          1           0       -0.448577   -2.120385   -1.180434
     10          1           0        0.448577    2.120385   -1.180434
 ---------------------------------------------------------------------
                    Distance matrix (angstroms):
                    1          2          3          4          5
     1  C    0.000000
     2  C    1.329859   0.000000
     3  C    2.371951   1.329859   0.000000
     4  C    2.799173   2.401306   1.486343   0.000000
     5  C    2.401306   2.689651   2.401306   1.329859   0.000000
     6  C    1.486343   2.401306   2.799173   2.371951   1.329859
     7  H    1.140534   2.173541   3.359936   3.846846   3.327791
     8  H    3.359936   2.173541   1.140534   2.193143   3.327791
     9  H    3.846846   3.327791   2.193143   1.140534   2.173541
    10  H    2.193143   3.327791   3.846846   3.359936   2.173541
                    6          7          8          9         10
     6  C    0.000000
     7  H    2.193143   0.000000
     8  H    3.846846   4.334631   0.000000
     9  H    3.359936   4.935861   2.360868   0.000000
    10  H    1.140534   2.360868   4.935861   4.334631   0.000000
 Stoichiometry    C6H4
 Framework group  C2H[C2(C.C),X(C4H4)]
 Deg. of freedom     6
 Full point group                 C2H     NOp   4
 RotChk:  IX=0 Diff= 5.00D-02
 Largest Abelian subgroup         C2H     NOp   4
 Largest concise Abelian subgroup C2H     NOp   4
                         Standard orientation:                         
 ---------------------------------------------------------------------
 Center     Atomic      Atomic             Coordinates (Angstroms)
 Number     Number       Type             X           Y           Z
 ---------------------------------------------------------------------
      1          6           0        0.000000    1.185976    0.743171
      2          6           0        0.000000    0.000000    1.344825
      3          6           0        0.000000   -1.185976    0.743171
      4          6           0        0.000000   -1.185976   -0.743171
      5          6           0        0.000000    0.000000   -1.344825
      6          6           0        0.000000    1.185976   -0.743171
      7          1           0        0.513876    2.105513    1.180434
      8          1           0       -0.513876   -2.105513    1.180434
      9          1           0       -0.513876   -2.105513   -1.180434
     10          1           0        0.513876    2.105513   -1.180434
 ---------------------------------------------------------------------
 Rotational constants (GHZ):      6.6172694      5.8459196      3.1362031
 Leave Link  202 at Thu Sep 28 17:40:32 2023, MaxMem=  6291456000 cpu:         0.0
 (Enter /home/minenky/programs//g09/l301.exe)
 Standard basis: def2TZVP (5D, 7F)
 Ernie: Thresh=  0.10000D-02 Tol=  0.10000D-05 Strict=F.
 There are    62 symmetry adapted cartesian basis functions of AG  symmetry.
 There are    58 symmetry adapted cartesian basis functions of BG  symmetry.
 There are    62 symmetry adapted cartesian basis functions of AU  symmetry.
 There are    58 symmetry adapted cartesian basis functions of BU  symmetry.
 There are    54 symmetry adapted basis functions of AG  symmetry.
 There are    51 symmetry adapted basis functions of BG  symmetry.
 There are    54 symmetry adapted basis functions of AU  symmetry.
 There are    51 symmetry adapted basis functions of BU  symmetry.
   210 basis functions,   338 primitive gaussians,   240 cartesian basis functions
    20 alpha electrons       20 beta electrons
       nuclear repulsion energy       185.9990744817 Hartrees.
 IExCor= 4639 DFT=T Ex+Corr=wB97XD ExCW=0 ScaHFX=  1.000000
 ScaDFX=  1.000000  1.000000  1.000000  1.000000 ScalE2=  1.000000  1.000000
 IRadAn=      5 IRanWt=     -1 IRanGd=            0 ICorTp=0 IEmpDi=121
  HFx wShort=  0.000000 wLong=  0.200000 cFull=  0.222036 cShort=  0.000000 cLong=  0.777964
  DFx wShort=  0.000000 wLong=  0.200000 cFull=  0.000000 cShort=  0.000000 cLong=  1.000000
 NAtoms=   10 NActive=   10 NUniq=    3 SFac= 4.00D+00 NAtFMM=   60 NAOKFM=F Big=F
 Integral buffers will be    131072 words long.
 Raffenetti 2 integral format.
 Two-electron integral symmetry is turned on.
 R6Disp:  Grimme-D2 Dispersion energy=       -0.0028180529 Hartrees.
 Nuclear repulsion after empirical dispersion term =      185.9962564288 Hartrees.
 Leave Link  301 at Thu Sep 28 17:40:32 2023, MaxMem=  6291456000 cpu:         0.3
 (Enter /home/minenky/programs//g09/l302.exe)
 NPDir=0 NMtPBC=     1 NCelOv=     1 NCel=       1 NClECP=     1 NCelD=      1
         NCelK=      1 NCelE2=     1 NClLst=     1 CellRange=     0.0.
 One-electron integrals computed using PRISM.
 One-electron integral symmetry used in STVInt
   4 Symmetry operations used in ECPInt.
 ECPInt:  NShTT=    3403 NPrTT=   10584 LenC2=    3383 LenP2D=    8921.
 LDataN:  DoStor=T MaxTD1= 6 Len=  172
 NBasis=   210 RedAO= T EigKep=  3.74D-05  NBF=    54    51    54    51
 NBsUse=   210 1.00D-06 EigRej= -1.00D+00 NBFU=    54    51    54    51
 Precomputing XC quadrature grid using
 IXCGrd= 4 IRadAn=           5 IRanWt=          -1 IRanGd=           0 AccXCQ= 0.00D+00.
 Generated NRdTot=       0 NPtTot=           0 NUsed=           0 NTot=          32
 NSgBfM=   239   239   239   239   239 MxSgAt=    10 MxSgA2=    10.
 Leave Link  302 at Thu Sep 28 17:40:32 2023, MaxMem=  6291456000 cpu:         2.1
 (Enter /home/minenky/programs//g09/l303.exe)
 DipDrv:  MaxL=1.
 Leave Link  303 at Thu Sep 28 17:40:32 2023, MaxMem=  6291456000 cpu:         0.3
 (Enter /home/minenky/programs//g09/l401.exe)
 Initial guess from the checkpoint file:  "m1_00_3355-34-80_C6H4_wB97XD.chk"
 B after Tr=     0.000000    0.000000    0.000000
         Rot=    0.999966    0.000000    0.000000   -0.008289 Ang=  -0.95 deg.
 Guess basis will be translated and rotated to current coordinates.
 JPrj=2 DoOrth=T DoCkMO=T.
 Initial guess orbital symmetries:
       Occupied  (BU) (AG) (AU) (BG) (AU) (AG) (AG) (BU) (AU) (BG)
                 (AG) (BU) (AG) (AU) (BU) (BG) (BU) (AG) (BG) (AU)
       Virtual   (AG) (AG) (AG) (AG) (AG) (AG) (AG) (AG) (AG) (AG)
                 (AG) (AG) (AG) (AG) (AG) (AG) (AG) (AG) (AG) (AG)
                 (AG) (AG) (AG) (AG) (AG) (AG) (AG) (AG) (AG) (AG)
                 (AG) (AG) (AG) (AG) (AG) (AG) (AG) (AG) (AG) (AG)
                 (AG) (AG) (AG) (AG) (AG) (AG) (AG) (AG) (BG) (BG)
                 (BG) (BG) (BG) (BG) (BG) (BG) (BG) (BG) (BG) (BG)
                 (BG) (BG) (BG) (BG) (BG) (BG) (BG) (BG) (BG) (BG)
                 (BG) (BG) (BG) (BG) (BG) (BG) (BG) (BG) (BG) (BG)
                 (BG) (BG) (BG) (BG) (BG) (BG) (BG) (BG) (BG) (BG)
                 (BG) (BG) (BG) (BG) (BG) (AU) (AU) (AU) (AU) (AU)
                 (AU) (AU) (AU) (AU) (AU) (AU) (AU) (AU) (AU) (AU)
                 (AU) (AU) (AU) (AU) (AU) (AU) (AU) (AU) (AU) (AU)
                 (AU) (AU) (AU) (AU) (AU) (AU) (AU) (AU) (AU) (AU)
                 (AU) (AU) (AU) (AU) (AU) (AU) (AU) (AU) (AU) (AU)
                 (AU) (AU) (AU) (AU) (BU) (BU) (BU) (BU) (BU) (BU)
                 (BU) (BU) (BU) (BU) (BU) (BU) (BU) (BU) (BU) (BU)
                 (BU) (BU) (BU) (BU) (BU) (BU) (BU) (BU) (BU) (BU)
                 (BU) (BU) (BU) (BU) (BU) (BU) (BU) (BU) (BU) (BU)
                 (BU) (BU) (BU) (BU) (BU) (BU) (BU) (BU) (BU) (BU)
 The electronic state of the initial guess is 1-AG.
 Generating alternative initial guess.
 ExpMin= 9.52D-02 ExpMax= 1.36D+04 ExpMxC= 4.63D+02 IAcc=2 IRadAn=         4 AccDes= 0.00D+00
 Harris functional with IExCor= 4639 and IRadAn=       4 diagonalized for initial guess.
 HarFok:  IExCor= 4639 AccDes= 0.00D+00 IRadAn=         4 IDoV= 1 UseB2=F ITyADJ=14
 ICtDFT=  3500011 ScaDFX=  1.000000  1.000000  1.000000  1.000000
 FoFCou: FMM=F IPFlag=           0 FMFlag=      100000 FMFlg1=           0
         NFxFlg=           0 DoJE=T BraDBF=F KetDBF=T FulRan=T
         wScrn=  0.000000 ICntrl=     500 IOpCl=  0 I1Cent=   200000004 NGrid=           0
         NMat0=    1 NMatS0=      1 NMatT0=    0 NMatD0=    1 NMtDS0=    0 NMtDT0=    0
 Petite list used in FoFCou.
 Harris En= -220.387827608796    
 Leave Link  401 at Thu Sep 28 17:40:32 2023, MaxMem=  6291456000 cpu:         4.4
 (Enter /home/minenky/programs//g09/l502.exe)
 Closed shell SCF:
 Using DIIS extrapolation, IDIIS=  1040.
 Integral symmetry usage will be decided dynamically.
 Keep R1 ints in memory in symmetry-blocked form, NReq=613983068.
 IVT=      327106 IEndB=      327106 NGot=  6291456000 MDV=  6229710551
 LenX=  6229710551 LenY=  6229652510
 Requested convergence on RMS density matrix=1.00D-08 within 380 cycles.
 Requested convergence on MAX density matrix=1.00D-06.
 Requested convergence on             energy=1.00D-06.
 No special actions if energy rises.
 FoFCou: FMM=F IPFlag=           0 FMFlag=           0 FMFlg1=           0
         NFxFlg=           0 DoJE=F BraDBF=F KetDBF=F FulRan=T
         wScrn=  0.000000 ICntrl=     600 IOpCl=  0 I1Cent=           0 NGrid=           0
         NMat0=    1 NMatS0=  22155 NMatT0=    0 NMatD0=    1 NMtDS0=    0 NMtDT0=    0
 Petite list used in FoFCou.
 Integral accuracy reduced to 1.0D-05 until final iterations.

 Cycle   1  Pass 0  IDiag  1:
 E= -230.803991467949    
 DIIS: error= 4.73D-03 at cycle   1 NSaved=   1.
 NSaved= 1 IEnMin= 1 EnMin= -230.803991467949     IErMin= 1 ErrMin= 4.73D-03
 ErrMax= 4.73D-03  0.00D+00 EMaxC= 1.00D-01 BMatC= 3.79D-03 BMatP= 3.79D-03
 IDIUse=3 WtCom= 9.53D-01 WtEn= 4.73D-02
 Coeff-Com:  0.100D+01
 Coeff-En:   0.100D+01
 Coeff:      0.100D+01
 Gap=     0.824 Goal=   None    Shift=    0.000
 GapD=    0.824 DampG=2.000 DampE=1.000 DampFc=2.0000 IDamp=-1.
 RMSDP=3.01D-04 MaxDP=4.52D-03              OVMax= 1.60D-02

 Cycle   2  Pass 0  IDiag  1:
 E= -230.807925818801     Delta-E=       -0.003934350852 Rises=F Damp=F
 DIIS: error= 1.25D-03 at cycle   2 NSaved=   2.
 NSaved= 2 IEnMin= 2 EnMin= -230.807925818801     IErMin= 2 ErrMin= 1.25D-03
 ErrMax= 1.25D-03  0.00D+00 EMaxC= 1.00D-01 BMatC= 2.10D-04 BMatP= 3.79D-03
 IDIUse=3 WtCom= 9.87D-01 WtEn= 1.25D-02
 Coeff-Com:  0.345D-01 0.965D+00
 Coeff-En:   0.000D+00 0.100D+01
 Coeff:      0.341D-01 0.966D+00
 Gap=     0.244 Goal=   None    Shift=    0.000
 RMSDP=9.97D-05 MaxDP=1.85D-03 DE=-3.93D-03 OVMax= 6.93D-03

 Cycle   3  Pass 0  IDiag  1:
 E= -230.808089240336     Delta-E=       -0.000163421535 Rises=F Damp=F
 DIIS: error= 9.83D-04 at cycle   3 NSaved=   3.
 NSaved= 3 IEnMin= 3 EnMin= -230.808089240336     IErMin= 3 ErrMin= 9.83D-04
 ErrMax= 9.83D-04  0.00D+00 EMaxC= 1.00D-01 BMatC= 1.34D-04 BMatP= 2.10D-04
 IDIUse=3 WtCom= 9.90D-01 WtEn= 9.83D-03
 Coeff-Com: -0.264D-01 0.441D+00 0.586D+00
 Coeff-En:   0.000D+00 0.994D-01 0.901D+00
 Coeff:     -0.261D-01 0.437D+00 0.589D+00
 Gap=     0.243 Goal=   None    Shift=    0.000
 RMSDP=4.02D-05 MaxDP=8.60D-04 DE=-1.63D-04 OVMax= 4.09D-03

 Cycle   4  Pass 0  IDiag  1:
 E= -230.808222906194     Delta-E=       -0.000133665858 Rises=F Damp=F
 DIIS: error= 2.45D-04 at cycle   4 NSaved=   4.
 NSaved= 4 IEnMin= 4 EnMin= -230.808222906194     IErMin= 4 ErrMin= 2.45D-04
 ErrMax= 2.45D-04  0.00D+00 EMaxC= 1.00D-01 BMatC= 6.90D-06 BMatP= 1.34D-04
 IDIUse=3 WtCom= 9.98D-01 WtEn= 2.45D-03
 Coeff-Com: -0.938D-02-0.108D-01 0.153D+00 0.867D+00
 Coeff-En:   0.000D+00 0.000D+00 0.000D+00 0.100D+01
 Coeff:     -0.935D-02-0.108D-01 0.153D+00 0.867D+00
 Gap=     0.243 Goal=   None    Shift=    0.000
 RMSDP=2.51D-05 MaxDP=4.40D-04 DE=-1.34D-04 OVMax= 2.43D-03

 Cycle   5  Pass 0  IDiag  1:
 E= -230.808239554973     Delta-E=       -0.000016648779 Rises=F Damp=F
 DIIS: error= 1.36D-04 at cycle   5 NSaved=   5.
 NSaved= 5 IEnMin= 5 EnMin= -230.808239554973     IErMin= 5 ErrMin= 1.36D-04
 ErrMax= 1.36D-04  0.00D+00 EMaxC= 1.00D-01 BMatC= 5.78D-07 BMatP= 6.90D-06
 IDIUse=3 WtCom= 9.99D-01 WtEn= 1.36D-03
 Coeff-Com:  0.161D-02-0.367D-01-0.473D-01-0.313D-01 0.111D+01
 Coeff-En:   0.000D+00 0.000D+00 0.000D+00 0.000D+00 0.100D+01
 Coeff:      0.160D-02-0.366D-01-0.473D-01-0.313D-01 0.111D+01
 Gap=     0.243 Goal=   None    Shift=    0.000
 RMSDP=1.65D-05 MaxDP=3.21D-04 DE=-1.66D-05 OVMax= 1.87D-03

 Cycle   6  Pass 0  IDiag  1:
 E= -230.808244860499     Delta-E=       -0.000005305527 Rises=F Damp=F
 DIIS: error= 7.73D-05 at cycle   6 NSaved=   6.
 NSaved= 6 IEnMin= 6 EnMin= -230.808244860499     IErMin= 6 ErrMin= 7.73D-05
 ErrMax= 7.73D-05  0.00D+00 EMaxC= 1.00D-01 BMatC= 1.77D-07 BMatP= 5.78D-07
 IDIUse=1 WtCom= 1.00D+00 WtEn= 0.00D+00
 Coeff-Com:  0.160D-02 0.491D-03-0.250D-01-0.155D+00 0.595D-01 0.112D+01
 Coeff:      0.160D-02 0.491D-03-0.250D-01-0.155D+00 0.595D-01 0.112D+01
 Gap=     0.243 Goal=   None    Shift=    0.000
 RMSDP=9.86D-06 MaxDP=1.74D-04 DE=-5.31D-06 OVMax= 1.33D-03

 Initial convergence to 1.0D-05 achieved.  Increase integral accuracy.
 Cycle   7  Pass 1  IDiag  1:
 E= -230.808184397959     Delta-E=        0.000060462540 Rises=F Damp=F
 DIIS: error= 4.69D-05 at cycle   1 NSaved=   1.
 NSaved= 1 IEnMin= 1 EnMin= -230.808184397959     IErMin= 1 ErrMin= 4.69D-05
 ErrMax= 4.69D-05  0.00D+00 EMaxC= 1.00D-01 BMatC= 2.61D-07 BMatP= 2.61D-07
 IDIUse=1 WtCom= 1.00D+00 WtEn= 0.00D+00
 Coeff-Com:  0.100D+01
 Coeff:      0.100D+01
 Gap=     0.243 Goal=   None    Shift=    0.000
 RMSDP=9.86D-06 MaxDP=1.74D-04 DE= 6.05D-05 OVMax= 4.67D-04

 Cycle   8  Pass 1  IDiag  1:
 E= -230.808184888375     Delta-E=       -0.000000490416 Rises=F Damp=F
 DIIS: error= 2.58D-05 at cycle   2 NSaved=   2.
 NSaved= 2 IEnMin= 2 EnMin= -230.808184888375     IErMin= 2 ErrMin= 2.58D-05
[...]
     21  0.107357D+00
     22 -0.401951D-01  0.733774D-01
     23  0.196591D-01 -0.374627D-01  0.707114D-01
     24  0.204494D-01 -0.357523D-01 -0.332375D-01  0.688856D-01
     25  0.464630D-04  0.293303D-03  0.000000D+00 -0.423553D-03  0.117992D-01
     26  0.163175D-02  0.319772D-03  0.419112D-03 -0.608863D-03  0.135399D-03
     27 -0.936086D-04 -0.189840D-03  0.502879D-03  0.333133D-03 -0.834042D-02
     28  0.155194D-03 -0.771386D-03  0.171656D-02 -0.125786D-02 -0.651675D-02
     29 -0.695632D-03 -0.457618D-04  0.710187D-04  0.399821D-03  0.162417D-02
     30 -0.446829D-03 -0.627307D-03  0.128470D-02 -0.119118D-02  0.344785D-02
     31  0.464626D-04 -0.332634D-03 -0.891383D-04  0.758339D-04 -0.607984D-02
     32  0.163175D-02 -0.973827D-03  0.109167D-03  0.108212D-02 -0.213688D-02
     33 -0.936078D-04  0.269080D-03 -0.324605D-03  0.367414D-03 -0.318239D-02
     34  0.155195D-03  0.551496D-03 -0.122053D-03  0.976699D-04  0.163136D-02
     35 -0.695631D-03  0.676698D-03 -0.478241D-03 -0.372692D-03 -0.650955D-02
     36 -0.446829D-03  0.959114D-03 -0.275689D-03 -0.642436D-03 -0.169580D-02
     37  0.464621D-04 -0.214537D-03  0.916342D-03 -0.461488D-03  0.609137D-02
     38 -0.839461D-03  0.350977D-04  0.573320D-03 -0.619309D-03  0.469877D-03
     39  0.464635D-04  0.175206D-03 -0.100483D-02  0.113769D-03 -0.371982D-03
     40 -0.839460D-03  0.178205D-02  0.229800D-02 -0.367066D-02 -0.247136D-02
               26            27            28            29            30 
     26  0.691466D-02
     27  0.216731D-02  0.139380D-01
     28  0.383506D-03  0.492452D-02  0.933209D-02
     29 -0.337204D-02  0.492452D-02 -0.101260D-02  0.933209D-02
     30 -0.515584D-02 -0.408900D-02  0.339497D-02  0.339497D-02  0.108789D-01
     31 -0.213688D-02 -0.318239D-02  0.163136D-02 -0.650955D-02 -0.169580D-02
     32 -0.228432D-02  0.186505D-02 -0.121189D-02  0.204357D-02 -0.103338D-02
     33  0.186505D-02  0.927686D-02  0.491802D-02  0.491802D-02  0.559172D-03
     34 -0.121189D-02  0.491802D-02 -0.242592D-02  0.736180D-02  0.178680D-04
     35  0.204357D-02  0.491802D-02  0.736180D-02 -0.242592D-02  0.178680D-04
     36 -0.103338D-02  0.559172D-03  0.178681D-04  0.178681D-04 -0.523436D-03
     37  0.469877D-03 -0.318239D-02 -0.650955D-02  0.163136D-02 -0.169580D-02
     38  0.399240D-02  0.186505D-02  0.204357D-02 -0.121189D-02 -0.103338D-02
     39 -0.247136D-02 -0.834042D-02  0.162417D-02 -0.651675D-02  0.344785D-02
     40 -0.336814D-03  0.216731D-02 -0.337204D-02  0.383506D-03 -0.515584D-02
               31            32            33            34            35 
     31  0.117992D-01
     32  0.135399D-03  0.691466D-02
     33 -0.834042D-02  0.216731D-02  0.139380D-01
     34 -0.651675D-02  0.383506D-03  0.492452D-02  0.933209D-02
     35  0.162417D-02 -0.337204D-02  0.492452D-02 -0.101260D-02  0.933209D-02
     36  0.344785D-02 -0.515584D-02 -0.408900D-02  0.339497D-02  0.339497D-02
     37 -0.371982D-03 -0.247136D-02 -0.834042D-02  0.162417D-02 -0.651675D-02
     38 -0.247136D-02 -0.336815D-03  0.216731D-02 -0.337204D-02  0.383506D-03
     39  0.609137D-02  0.469877D-03 -0.318239D-02 -0.650955D-02  0.163136D-02
     40  0.469877D-03  0.399240D-02  0.186505D-02  0.204357D-02 -0.121189D-02
               36            37            38            39            40 
     36  0.108789D-01
     37  0.344785D-02  0.117992D-01
     38 -0.515584D-02  0.135399D-03  0.691466D-02
     39 -0.169580D-02 -0.607984D-02 -0.213688D-02  0.117992D-01
     40 -0.103338D-02 -0.213688D-02 -0.228432D-02  0.135399D-03  0.691466D-02
 Leave Link  716 at Thu Sep 28 17:42:54 2023, MaxMem=  6291456000 cpu:         0.3
 (Enter /home/minenky/programs//g09/l103.exe)

 GradGradGradGradGradGradGradGradGradGradGradGradGradGradGradGradGradGrad
 Berny optimization.
 Red2BG is reusing G-inverse.
 Internal  Forces:  Max     0.000000162 RMS     0.000000057
 Search for a local minimum.
 Step number   1 out of a maximum of    2
 All quantities printed in internal units (Hartrees-Bohrs-Radians)
 Second derivative matrix not updated -- analytic derivatives used.
 ITU=  0
     Eigenvalues ---    0.00114   0.01080   0.01918   0.02113   0.02441
     Eigenvalues ---    0.03861   0.04502   0.05739   0.08273   0.09264
     Eigenvalues ---    0.09939   0.10234   0.14695   0.16836   0.18860
     Eigenvalues ---    0.36898   0.37062   0.37065   0.37100   0.38746
     Eigenvalues ---    0.44185   0.47304   0.58682   0.62738
 Angle between quadratic step and forces=  64.91 degrees.
 Linear search not attempted -- first point.
 Iteration  1 RMS(Cart)=  0.00001216 RMS(Int)=  0.00000001
 Iteration  2 RMS(Cart)=  0.00000000 RMS(Int)=  0.00000000
 ITry= 1 IFail=0 DXMaxC= 3.34D-05 DCOld= 1.00D+10 DXMaxT= 3.00D-01 DXLimC= 3.00D+00 Rises=F
 ClnCor:  largest displacement from symmetrization is 9.30D-09 for atom     5.
 Variable       Old X    -DE/DX   Delta X   Delta X   Delta X     New X
                                 (Linear)    (Quad)   (Total)
    R1        2.51666   0.00000   0.00000   0.00000   0.00000   2.51666
    R2        2.79606   0.00000   0.00000   0.00000   0.00000   2.79606
    R3        2.04183   0.00000   0.00000   0.00000   0.00000   2.04183
    R4        2.51666   0.00000   0.00000   0.00000   0.00000   2.51666
    R5        2.79606   0.00000   0.00000   0.00000   0.00000   2.79606
    R6        2.04183   0.00000   0.00000   0.00000   0.00000   2.04183
    R7        2.51666   0.00000   0.00000   0.00000   0.00000   2.51666
    R8        2.04183   0.00000   0.00000   0.00000   0.00000   2.04183
    R9        2.51666   0.00000   0.00000   0.00000   0.00000   2.51666
   R10        2.04183   0.00000   0.00000   0.00000   0.00000   2.04183
    A1        2.03962   0.00000   0.00000   0.00000   0.00000   2.03962
    A2        2.24437   0.00000   0.00000   0.00000   0.00000   2.24437
    A3        1.99673   0.00000   0.00000   0.00000   0.00000   1.99673
    A4        2.20395   0.00000   0.00000   0.00000   0.00000   2.20395
    A5        2.03962   0.00000   0.00000   0.00000   0.00000   2.03962
    A6        2.24437   0.00000   0.00000   0.00000   0.00000   2.24437
    A7        1.99673   0.00000   0.00000   0.00000   0.00000   1.99673
    A8        2.03962   0.00000   0.00000   0.00000   0.00000   2.03962
    A9        1.99673   0.00000   0.00000   0.00000   0.00000   1.99673
   A10        2.24437   0.00000   0.00000   0.00000   0.00000   2.24437
   A11        2.20395   0.00000   0.00000   0.00000   0.00000   2.20395
   A12        2.03962   0.00000   0.00000   0.00000   0.00000   2.03962
   A13        1.99673   0.00000   0.00000   0.00000   0.00000   1.99673
   A14        2.24437   0.00000   0.00000   0.00000   0.00000   2.24437
    D1        0.00000   0.00000   0.00000   0.00000   0.00000   0.00000
    D2       -3.06126   0.00000   0.00000   0.00005   0.00005  -3.06121
    D3        0.00000   0.00000   0.00000   0.00000   0.00000   0.00000
    D4       -3.07267   0.00000   0.00000   0.00004   0.00004  -3.07262
    D5        3.07267   0.00000   0.00000  -0.00004  -0.00004   3.07262
    D6        0.00000   0.00000   0.00000   0.00000   0.00000   0.00000
    D7        0.00000   0.00000   0.00000   0.00000   0.00000   0.00000
    D8       -3.06126   0.00000   0.00000   0.00005   0.00005  -3.06121
    D9        0.00000   0.00000   0.00000   0.00000   0.00000   0.00000
   D10       -3.07267   0.00000   0.00000   0.00004   0.00004  -3.07262
   D11        3.07267   0.00000   0.00000  -0.00004  -0.00004   3.07262
   D12        0.00000   0.00000   0.00000   0.00000   0.00000   0.00000
   D13        0.00000   0.00000   0.00000   0.00000   0.00000   0.00000
   D14        3.06126   0.00000   0.00000  -0.00005  -0.00005   3.06121
   D15        0.00000   0.00000   0.00000   0.00000   0.00000   0.00000
   D16        3.06126   0.00000   0.00000  -0.00005  -0.00005   3.06121
         Item               Value     Threshold  Converged?
 Maximum Force            0.000000     0.000015     YES
 RMS     Force            0.000000     0.000010     YES
 Maximum Displacement     0.000033     0.000060     YES
 RMS     Displacement     0.000012     0.000040     YES
 Predicted change in Energy=-1.004449D-11
 Optimization completed.
    -- Stationary point found.
                           ----------------------------
                           !   Optimized Parameters   !
                           ! (Angstroms and Degrees)  !
 --------------------------                            --------------------------
 ! Name  Definition              Value          Derivative Info.                !
 --------------------------------------------------------------------------------
 ! R1    R(1,2)                  1.3318         -DE/DX =    0.0                 !
 ! R2    R(1,6)                  1.4796         -DE/DX =    0.0                 !
 ! R3    R(1,7)                  1.0805         -DE/DX =    0.0                 !
 ! R4    R(2,3)                  1.3318         -DE/DX =    0.0                 !
 ! R5    R(3,4)                  1.4796         -DE/DX =    0.0                 !
 ! R6    R(3,8)                  1.0805         -DE/DX =    0.0                 !
 ! R7    R(4,5)                  1.3318         -DE/DX =    0.0                 !
 ! R8    R(4,9)                  1.0805         -DE/DX =    0.0                 !
 ! R9    R(5,6)                  1.3318         -DE/DX =    0.0                 !
 ! R10   R(6,10)                 1.0805         -DE/DX =    0.0                 !
 ! A1    A(2,1,6)              116.8616         -DE/DX =    0.0                 !
 ! A2    A(2,1,7)              128.5928         -DE/DX =    0.0                 !
 ! A3    A(6,1,7)              114.4041         -DE/DX =    0.0                 !
 ! A4    A(1,2,3)              126.2769         -DE/DX =    0.0                 !
 ! A5    A(2,3,4)              116.8616         -DE/DX =    0.0                 !
 ! A6    A(2,3,8)              128.5928         -DE/DX =    0.0                 !
 ! A7    A(4,3,8)              114.4041         -DE/DX =    0.0                 !
 ! A8    A(3,4,5)              116.8616         -DE/DX =    0.0                 !
 ! A9    A(3,4,9)              114.4041         -DE/DX =    0.0                 !
 ! A10   A(5,4,9)              128.5928         -DE/DX =    0.0                 !
 ! A11   A(4,5,6)              126.2769         -DE/DX =    0.0                 !
 ! A12   A(1,6,5)              116.8616         -DE/DX =    0.0                 !
 ! A13   A(1,6,10)             114.4041         -DE/DX =    0.0                 !
 ! A14   A(5,6,10)             128.5928         -DE/DX =    0.0                 !
 ! D1    D(6,1,2,3)              0.0            -DE/DX =    0.0                 !
 ! D2    D(7,1,2,3)           -175.3975         -DE/DX =    0.0                 !
 ! D3    D(2,1,6,5)              0.0            -DE/DX =    0.0                 !
 ! D4    D(2,1,6,10)          -176.0509         -DE/DX =    0.0                 !
 ! D5    D(7,1,6,5)            176.0509         -DE/DX =    0.0                 !
 ! D6    D(7,1,6,10)             0.0            -DE/DX =    0.0                 !
 ! D7    D(1,2,3,4)              0.0            -DE/DX =    0.0                 !
 ! D8    D(1,2,3,8)           -175.3975         -DE/DX =    0.0                 !
 ! D9    D(2,3,4,5)              0.0            -DE/DX =    0.0                 !
 ! D10   D(2,3,4,9)           -176.0509         -DE/DX =    0.0                 !
 ! D11   D(8,3,4,5)            176.0509         -DE/DX =    0.0                 !
 ! D12   D(8,3,4,9)              0.0            -DE/DX =    0.0                 !
 ! D13   D(3,4,5,6)              0.0            -DE/DX =    0.0                 !
 ! D14   D(9,4,5,6)            175.3975         -DE/DX =    0.0                 !
 ! D15   D(4,5,6,1)              0.0            -DE/DX =    0.0                 !
 ! D16   D(4,5,6,10)           175.3975         -DE/DX =    0.0                 !
 --------------------------------------------------------------------------------
 GradGradGradGradGradGradGradGradGradGradGradGradGradGradGradGradGradGrad

 Leave Link  103 at Thu Sep 28 17:42:54 2023, MaxMem=  6291456000 cpu:         0.1
 (Enter /home/minenky/programs//g09/l9999.exe)
 1\1\GINC-PC1\Freq\RwB97XD\def2TZVP\C6H4\MINENKY\28-Sep-2023\0\\#P Geom
 =AllCheck Guess=TCheck SCRF=Check GenChk RwB97XD/def2TZVP Freq\\The PB
 EPBE optimization and frequencies\\0,1\C,0.1526181573,1.1782204253,0.7
 398049463\C,0.,0.,1.341542065\C,-0.1526181573,-1.1782204253,0.73980494
 63\C,-0.1526181573,-1.1782204253,-0.7398049463\C,0.,0.,-1.341542065\C,
 0.1526181573,1.1782204253,-0.7398049463\H,0.3459202432,2.1429981691,1.
 1862296639\H,-0.3459202432,-2.1429981691,1.1862296639\H,-0.3459202432,
 -2.1429981691,-1.1862296639\H,0.3459202432,2.1429981691,-1.1862296639\
 \Version=AM64L-G09RevD.01\State=1-AG\HF=-230.8267665\RMSD=5.495e-10\RM
 SF=3.237e-07\ZeroPoint=0.0711946\Thermal=0.0762888\Dipole=0.,0.,0.\Dip
 oleDeriv=-0.1378516,0.038121,0.0676199,0.0104524,-0.0905272,0.3138947,
 0.0414222,0.0925247,0.7467153,-0.0658665,-0.0352553,0.,0.0119461,0.000
 7189,0.,0.,0.,-1.7856565,-0.1378516,0.038121,-0.0676199,0.0104524,-0.0
 905272,-0.3138947,-0.0414222,-0.0925247,0.746715,-0.1378516,0.038121,0
 .0676199,0.0104524,-0.0905272,0.3138946,0.0414222,0.0925247,0.7467153,
 -0.0658665,-0.0352553,0.,0.0119461,0.0007189,0.,0.,0.,-1.7856565,-0.13
 78516,0.038121,-0.0676199,0.0104524,-0.0905272,-0.3138947,-0.0414222,-
 0.0925247,0.7467151,0.1707849,-0.0204933,-0.0133507,-0.0164254,0.09016
 77,-0.0225524,-0.0078259,-0.0469732,0.1461131,0.1707849,-0.0204933,0.0
 133507,-0.0164254,0.0901677,0.0225524,0.0078259,0.0469732,0.1461131,0.
 1707849,-0.0204933,-0.0133507,-0.0164254,0.0901677,-0.0225524,-0.00782
 59,-0.0469732,0.1461131,0.1707849,-0.0204933,0.0133507,-0.0164254,0.09
 01677,0.0225524,0.0078259,0.0469732,0.1461131\Polar=38.4172426,5.77899
 18,78.3154402,0.0000002,0.,108.1449936\PG=C02H [C2(C1.C1),X(C4H4)]\NIm
 ag=0\\0.11054095,0.10976052,0.78890002,0.01270261,0.01030512,0.3528144
 1,-0.05439986,-0.04106040,0.00633080,0.08360150,-0.03862233,-0.3577552
 0,0.08282225,0.09270494,0.78554116,0.01915744,0.15231175,-0.10069942,0
 .,0.,0.31051711,0.01277816,-0.01183522,0.00561914,-0.05439985,-0.03862
 233,-0.01915743,0.11054095,-0.01183522,-0.07631058,0.03967420,-0.04106
 039,-0.35775520,-0.15231175,0.10976052,0.78890002,-0.00561914,-0.03967
 420,0.06234694,-0.00633079,-0.08282224,-0.10069943,-0.01270261,-0.0103
 0512,0.35281441,0.02152856,-0.00620651,0.00460115,-0.00328423,0.003715
 27,0.00001666,-0.05410406,-0.00372510,-0.01172454,0.11054095,-0.006206
 51,-0.03035212,0.04119746,0.00720694,0.03128452,0.00824807,-0.00372510
 ,-0.06287300,-0.07300222,0.10976052,0.78890002,0.00460115,0.04119746,-
 0.08477362,-0.01542538,-0.12382681,-0.01931897,0.01172454,0.07300222,-
 0.10073011,0.01270261,0.01030512,0.35281441,-0.00328423,0.00720695,-0.
 01542538,0.02014823,-0.01607443,0.,-0.00328423,0.00720694,0.01542538,-
 0.05439985,-0.04106039,0.00633079,0.08360150,0.00371527,0.03128452,-0.
 12382681,-0.01607443,-0.10237190,0.,0.00371527,0.03128452,0.12382681,-
 0.03862233,-0.35775520,0.08282224,0.09270494,0.78554116,0.00001666,0.0
 0824807,-0.01931897,0.,0.,-0.08380958,-0.00001666,-0.00824807,-0.01931
 897,0.01915743,0.15231175,-0.10069943,0.,0.,0.31051711,-0.05410406,-0.
 00372510,0.01172454,-0.00328423,0.00371527,-0.00001666,0.02152856,-0.0
 0620651,-0.00460115,0.01277816,-0.01183522,0.00561914,-0.05439986,-0.0
 3862233,-0.01915744,0.11054095,-0.00372510,-0.06287300,0.07300222,0.00
 720695,0.03128452,-0.00824807,-0.00620651,-0.03035212,-0.04119746,-0.0
 1183522,-0.07631058,0.03967420,-0.04106040,-0.35775520,-0.15231175,0.1
 0976052,0.78890002,-0.01172454,-0.07300222,-0.10073011,0.01542538,0.12
 382681,-0.01931897,-0.00460115,-0.04119746,-0.08477362,-0.00561914,-0.
 03967420,0.06234694,-0.00633080,-0.08282225,-0.10069942,-0.01270261,-0
 .01030512,0.35281441,-0.03321206,-0.05161764,-0.02419026,0.00279175,-0
 .00308936,-0.00105451,-0.00560113,0.00059936,-0.00080515,-0.00469581,0
 .00009804,-0.00069427,0.00301747,-0.00031885,0.00113969,0.01044946,-0.
 00322001,0.00147348,0.02745036,-0.05263011,-0.28965947,-0.11257128,-0.
 00408747,-0.01686328,-0.01245617,0.00065035,-0.00350293,0.00464635,0.0
 0110776,0.00151682,-0.00068480,-0.00037433,0.00174932,-0.00045959,-0.0
 0221464,-0.00124804,0.00527202,0.05702512,0.30684806,-0.02317148,-0.11
 753595,-0.08620584,0.00372786,0.02024073,0.00736032,-0.00024861,0.0026
 7268,-0.00332121,-0.00056027,-0.00080291,0.00111501,0.00038696,0.00073
 236,-0.00069569,-0.00434896,-0.02162555,-0.02122718,0.02391749,0.11600
 974,0.10179256,-0.00560113,0.00059936,0.00080515,0.00279175,-0.0030893
 6,0.00105451,-0.03321206,-0.05161764,0.02419026,0.01044946,-0.00322001
 ,-0.00147348,0.00301747,-0.00031885,-0.00113970,-0.00469581,0.00009804
 ,0.00069427,0.00236336,-0.00039048,0.00030167,0.02745036,0.00065035,-0
 .00350293,-0.00464635,-0.00408747,-0.01686328,0.01245617,-0.05263011,-
 0.28965947,0.11257128,-0.00221464,-0.00124804,-0.00527202,-0.00037433,
 0.00174932,0.00045959,0.00110776,0.00151682,0.00068480,-0.00039048,-0.
 00038136,0.00064869,0.05702512,0.30684806,0.00024861,-0.00267268,-0.00
 332121,-0.00372786,-0.02024073,0.00736032,0.02317148,0.11753595,-0.086
 20584,0.00434896,0.02162555,-0.02122718,-0.00038695,-0.00073236,-0.000
 69569,0.00056027,0.00080291,0.00111501,-0.00030167,-0.00064869,0.00056
 644,-0.02391749,-0.11600974,0.10179256,-0.00469581,0.00009804,-0.00069
 427,0.00301747,-0.00031885,0.00113970,0.01044946,-0.00322001,0.0014734
 8,-0.03321206,-0.05161764,-0.02419026,0.00279175,-0.00308936,-0.001054
 51,-0.00560113,0.00059936,-0.00080515,0.00494081,-0.00101844,0.0002552
 7,-0.00750422,0.00193224,0.00025992,0.02745036,0.00110776,0.00151682,-
 0.00068480,-0.00037433,0.00174932,-0.00045959,-0.00221464,-0.00124804,
 0.00527202,-0.05263011,-0.28965947,-0.11257128,-0.00408747,-0.01686328
 ,-0.01245617,0.00065035,-0.00350293,0.00464635,-0.00101844,0.00000506,
 0.00027631,0.00193224,0.00153582,0.00061610,0.05702512,0.30684806,-0.0
 0056027,-0.00080291,0.00111501,0.00038695,0.00073236,-0.00069569,-0.00
 434896,-0.02162555,-0.02122718,-0.02317148,-0.11753595,-0.08620584,0.0
 0372786,0.02024073,0.00736032,-0.00024861,0.00267268,-0.00332121,0.000
 25527,0.00027631,-0.00055120,-0.00025992,-0.00061610,0.00116679,0.0239
 1749,0.11600974,0.10179256,0.01044946,-0.00322001,-0.00147348,0.003017
 47,-0.00031885,-0.00113969,-0.00469581,0.00009804,0.00069427,-0.005601
 13,0.00059936,0.00080515,0.00279175,-0.00308936,0.00105451,-0.03321206
 ,-0.05161764,0.02419026,-0.00750422,0.00193224,-0.00025992,0.00494081,
 -0.00101844,-0.00025527,0.00236336,-0.00039048,0.00030167,0.02745036,-
 0.00221464,-0.00124804,-0.00527202,-0.00037433,0.00174932,0.00045959,0
 .00110776,0.00151682,0.00068480,0.00065035,-0.00350293,-0.00464635,-0.
 00408747,-0.01686328,0.01245617,-0.05263011,-0.28965947,0.11257128,0.0
 0193224,0.00153582,-0.00061610,-0.00101844,0.00000506,-0.00027631,-0.0
 0039048,-0.00038136,0.00064869,0.05702512,0.30684806,0.00434896,0.0216
 2555,-0.02122718,-0.00038696,-0.00073236,-0.00069569,0.00056027,0.0008
 0291,0.00111501,0.00024861,-0.00267268,-0.00332121,-0.00372786,-0.0202
 4073,0.00736032,0.02317148,0.11753595,-0.08620584,0.00025992,0.0006161
 0,0.00116679,-0.00025527,-0.00027631,-0.00055120,-0.00030167,-0.000648
 69,0.00056644,-0.02391749,-0.11600974,0.10179256\\-0.00000031,-0.00000
 004,0.00000008,0.,0.,0.00000010,0.00000031,0.00000004,0.00000008,0.000
 00031,0.00000004,-0.00000008,0.,0.,-0.00000010,-0.00000031,-0.00000004
 ,-0.00000008,-0.00000081,0.00000013,0.00000004,0.00000081,-0.00000013,
 0.00000004,0.00000081,-0.00000013,-0.00000004,-0.00000081,0.00000013,-
 0.00000004\\\@


 EXPERIENCE IS THE FRUIT OF THE TREE OF ERRORS.
 Job cpu time:       0 days  0 hours 13 minutes 10.1 seconds.
 File lengths (MBytes):  RWF=     27 Int=      0 D2E=      0 Chk=      4 Scr=      1
 Normal termination of Gaussian 09 at Thu Sep 28 17:42:54 2023.
