 Entering Gaussian System, Link 0=g09
 Initial command:
 /home/minenky/programs//g09/l1.exe "/local/scratch/minenky/m1_00_190-74-9-C32H16_wB97XD/Gau-370236.inp" -scrdir="/local/scratch/minenky/m1_00_190-74-9-C32H16_wB97XD/"
 Entering Link 1 = /home/minenky/programs//g09/l1.exe PID=    370238.
  
 Copyright (c) 1988,1990,1992,1993,1995,1998,2003,2009,2013,
            Gaussian, Inc.  All Rights Reserved.
  
 This is part of the Gaussian(R) 09 program.  It is based on
 the Gaussian(R) 03 system (copyright 2003, Gaussian, Inc.),
 the Gaussian(R) 98 system (copyright 1998, Gaussian, Inc.),
 the Gaussian(R) 94 system (copyright 1995, Gaussian, Inc.),
 the Gaussian 92(TM) system (copyright 1992, Gaussian, Inc.),
 the Gaussian 90(TM) system (copyright 1990, Gaussian, Inc.),
 the Gaussian 88(TM) system (copyright 1988, Gaussian, Inc.),
 the Gaussian 86(TM) system (copyright 1986, Carnegie Mellon
 University), and the Gaussian 82(TM) system (copyright 1983,
 Carnegie Mellon University). Gaussian is a federally registered
 trademark of Gaussian, Inc.
  
 This software contains proprietary and confidential information,
 including trade secrets, belonging to Gaussian, Inc.
  
 This software is provided under written license and may be
 used, copied, transmitted, or stored only in accord with that
 written license.
  
 The following legend is applicable only to US Government
 contracts under FAR:
  
                    RESTRICTED RIGHTS LEGEND
  
 Use, reproduction and disclosure by the US Government is
 subject to restrictions as set forth in subparagraphs (a)
 and (c) of the Commercial Computer Software - Restricted
 Rights clause in FAR 52.227-19.
  
 Gaussian, Inc.
 340 Quinnipiac St., Bldg. 40, Wallingford CT 06492
  
  
 ---------------------------------------------------------------
 Warning -- This program may not be used in any manner that
 competes with the business of Gaussian, Inc. or will provide
 assistance to any competitor of Gaussian, Inc.  The licensee
 of this program is prohibited from giving any competitor of
 Gaussian, Inc. access to this program.  By using this program,
 the user acknowledges that Gaussian, Inc. is engaged in the
 business of creating and licensing software in the field of
 computational chemistry and represents and warrants to the
 licensee that it is not a competitor of Gaussian, Inc. and that
 it will not use this program in any manner prohibited above.
 ---------------------------------------------------------------
  

 Cite this work as:
 Gaussian 09, Revision D.01,
 M. J. Frisch, G. W. Trucks, H. B. Schlegel, G. E. Scuseria, 
 M. A. Robb, J. R. Cheeseman, G. Scalmani, V. Barone, B. Mennucci, 
 G. A. Petersson, H. Nakatsuji, M. Caricato, X. Li, H. P. Hratchian, 
 A. F. Izmaylov, J. Bloino, G. Zheng, J. L. Sonnenberg, M. Hada, 
 M. Ehara, K. Toyota, R. Fukuda, J. Hasegawa, M. Ishida, T. Nakajima, 
 Y. Honda, O. Kitao, H. Nakai, T. Vreven, J. A. Montgomery, Jr., 
 J. E. Peralta, F. Ogliaro, M. Bearpark, J. J. Heyd, E. Brothers, 
 K. N. Kudin, V. N. Staroverov, T. Keith, R. Kobayashi, J. Normand, 
 K. Raghavachari, A. Rendell, J. C. Burant, S. S. Iyengar, J. Tomasi, 
 M. Cossi, N. Rega, J. M. Millam, M. Klene, J. E. Knox, J. B. Cross, 
 V. Bakken, C. Adamo, J. Jaramillo, R. Gomperts, R. E. Stratmann, 
 O. Yazyev, A. J. Austin, R. Cammi, C. Pomelli, J. W. Ochterski, 
 R. L. Martin, K. Morokuma, V. G. Zakrzewski, G. A. Voth, 
 P. Salvador, J. J. Dannenberg, S. Dapprich, A. D. Daniels, 
 O. Farkas, J. B. Foresman, J. V. Ortiz, J. Cioslowski, 
 and D. J. Fox, Gaussian, Inc., Wallingford CT, 2013.
 
 ******************************************
 Gaussian 09:  AM64L-G09RevD.01 24-Apr-2013
                29-Jul-2019 
 ******************************************
 %Mem=32000MB
 %NProcShared=16
 Will use up to   16 processors via shared memory.
 %Chk=m1_00_190-74-9-C32H16_wB97XD
 ----------------------------------------------------------------------
 #P wB97XD/def2tzvp opt=(tight) freq integral(Grid=ultrafine) # SCF(Max
 Cycle=380) 5d 7f GFPrint
 ----------------------------------------------------------------------
 1/7=10,14=-1,18=20,19=15,26=4,38=1/1,3;
 2/9=110,12=2,17=6,18=5,40=1/2;
 3/5=44,7=101,8=11,11=2,16=1,24=100,25=1,30=1,71=1,74=-58,75=-5/1,2,3;
 4//1;
 5/5=2,7=380,38=5/2;
 6/7=2,8=2,9=2,10=2,28=1/1;
 7//1,2,3,16;
 1/7=10,14=-1,18=20,19=15,26=4/3(2);
 2/9=110/2;
 99//99;
 2/9=110/2;
 3/5=44,7=101,8=11,11=2,16=1,25=1,30=1,71=1,74=-58,75=-5/1,2,3;
 4/5=5,16=3,69=1/1;
 5/5=2,7=380,38=5/2;
 7//1,2,3,16;
 1/7=10,14=-1,18=20,19=15,26=4/3(-5);
 2/9=110/2;
 6/7=2,8=2,9=2,10=2,19=2,28=1/1;
 99/9=1/99;
 Leave Link    1 at Mon Jul 29 09:50:35 2019, MaxMem=  4194304000 cpu:         1.2
 (Enter /home/minenky/programs//g09/l101.exe)
 ---------------------------------------
 The PBEPBE optimization and frequencies
 ---------------------------------------
 Symbolic Z-matrix:
 Charge =  0 Multiplicity = 1
 C                     0.8062    7.0273    8.3024 
 C                     0.6831    7.9217    7.2681 
 C                     1.4575    7.7863    6.085 
 C                     1.7128    5.9364    8.2253 
 C                     2.5014    5.7753    7.0534 
 C                     2.373     6.7039    5.9789 
 C                     3.1643    6.5434    4.7989 
 C                     3.4222    4.6867    6.9494 
 C                     1.8539    4.9979    9.2911 
 C                     1.3421    8.7067    5.0005 
 C                     4.2195    4.5162    5.7736 
 C                     4.0883    5.4573    4.6832 
 C                     4.863     5.3122    3.5084 
 C                     5.1262    3.4338    5.6872 
 C                     3.5369    3.7709    8.0326 
 C                     3.0217    7.4802    3.7373 
 C                     5.9389    3.2627    4.483 
 C                     5.8063    4.2001    3.3942 
 C                     6.5899    4.0144    2.255 
 C                     6.847     2.2116    4.3521 
 C                     5.2153    2.5404    6.785 
 C                     4.6957    6.2636    2.47 
 C                     4.451     2.7001    7.9167 
 C                     2.7329    3.9555    9.1977 
 C                     3.8095    7.3093    2.5771 
 C                     2.0957    8.5584    3.8699 
 C                     7.6366    2.025     3.2055 
 C                     7.5034    2.9554    2.1225 
 C                     8.5625    0.9478    3.0788 
 C                     8.3009    2.7719    0.9546 
 C                     9.1826    1.7237    0.8655 
 C                     9.315     0.8005    1.9403 
 H                     0.2062    7.1438    9.2017 
 H                    -0.0148    8.7523    7.3421 
 H                     1.2462    5.1282    10.1833 
 H                     0.6402    9.5321    5.0908 
 H                     6.5112    4.7026    1.4208 
 H                     6.9679    1.4927    5.1548 
 H                     5.9009    1.7026    6.7453 
 H                     5.2764    6.1775    1.5594 
 H                     4.5447    1.9956    8.7395 
 H                     2.8343    3.2449    10.0144 
 H                     3.7075    8.0205    1.761 
 H                     2.002     9.264     3.048 
 H                     8.6607    0.2441    3.9022 
 H                     8.1976    3.4793    0.135 
 H                     9.786     1.5928   -0.0287 
 H                     10.0174  -0.024     1.8533 
 
 NAtoms=     48 NQM=       48 NQMF=       0 NMMI=      0 NMMIF=      0
                NMic=       0 NMicF=      0.
                    Isotopes and Nuclear Properties:
 (Nuclear quadrupole moments (NQMom) in fm**2, nuclear magnetic moments (NMagM)
  in nuclear magnetons)

  Atom         1           2           3           4           5           6           7           8           9          10
 IAtWgt=          12          12          12          12          12          12          12          12          12          12
 AtmWgt=  12.0000000  12.0000000  12.0000000  12.0000000  12.0000000  12.0000000  12.0000000  12.0000000  12.0000000  12.0000000
 NucSpn=           0           0           0           0           0           0           0           0           0           0
 AtZEff=   0.0000000   0.0000000   0.0000000   0.0000000   0.0000000   0.0000000   0.0000000   0.0000000   0.0000000   0.0000000
 NQMom=    0.0000000   0.0000000   0.0000000   0.0000000   0.0000000   0.0000000   0.0000000   0.0000000   0.0000000   0.0000000
 NMagM=    0.0000000   0.0000000   0.0000000   0.0000000   0.0000000   0.0000000   0.0000000   0.0000000   0.0000000   0.0000000
 AtZNuc=   6.0000000   6.0000000   6.0000000   6.0000000   6.0000000   6.0000000   6.0000000   6.0000000   6.0000000   6.0000000

  Atom        11          12          13          14          15          16          17          18          19          20
 IAtWgt=          12          12          12          12          12          12          12          12          12          12
 AtmWgt=  12.0000000  12.0000000  12.0000000  12.0000000  12.0000000  12.0000000  12.0000000  12.0000000  12.0000000  12.0000000
 NucSpn=           0           0           0           0           0           0           0           0           0           0
 AtZEff=   0.0000000   0.0000000   0.0000000   0.0000000   0.0000000   0.0000000   0.0000000   0.0000000   0.0000000   0.0000000
 NQMom=    0.0000000   0.0000000   0.0000000   0.0000000   0.0000000   0.0000000   0.0000000   0.0000000   0.0000000   0.0000000
 NMagM=    0.0000000   0.0000000   0.0000000   0.0000000   0.0000000   0.0000000   0.0000000   0.0000000   0.0000000   0.0000000
 AtZNuc=   6.0000000   6.0000000   6.0000000   6.0000000   6.0000000   6.0000000   6.0000000   6.0000000   6.0000000   6.0000000

  Atom        21          22          23          24          25          26          27          28          29          30
 IAtWgt=          12          12          12          12          12          12          12          12          12          12
 AtmWgt=  12.0000000  12.0000000  12.0000000  12.0000000  12.0000000  12.0000000  12.0000000  12.0000000  12.0000000  12.0000000
 NucSpn=           0           0           0           0           0           0           0           0           0           0
 AtZEff=   0.0000000   0.0000000   0.0000000   0.0000000   0.0000000   0.0000000   0.0000000   0.0000000   0.0000000   0.0000000
 NQMom=    0.0000000   0.0000000   0.0000000   0.0000000   0.0000000   0.0000000   0.0000000   0.0000000   0.0000000   0.0000000
 NMagM=    0.0000000   0.0000000   0.0000000   0.0000000   0.0000000   0.0000000   0.0000000   0.0000000   0.0000000   0.0000000
 AtZNuc=   6.0000000   6.0000000   6.0000000   6.0000000   6.0000000   6.0000000   6.0000000   6.0000000   6.0000000   6.0000000

  Atom        31          32          33          34          35          36          37          38          39          40
 IAtWgt=          12          12           1           1           1           1           1           1           1           1
 AtmWgt=  12.0000000  12.0000000   1.0078250   1.0078250   1.0078250   1.0078250   1.0078250   1.0078250   1.0078250   1.0078250
 NucSpn=           0           0           1           1           1           1           1           1           1           1
 AtZEff=   0.0000000   0.0000000   0.0000000   0.0000000   0.0000000   0.0000000   0.0000000   0.0000000   0.0000000   0.0000000
 NQMom=    0.0000000   0.0000000   0.0000000   0.0000000   0.0000000   0.0000000   0.0000000   0.0000000   0.0000000   0.0000000
 NMagM=    0.0000000   0.0000000   2.7928460   2.7928460   2.7928460   2.7928460   2.7928460   2.7928460   2.7928460   2.7928460
 AtZNuc=   6.0000000   6.0000000   1.0000000   1.0000000   1.0000000   1.0000000   1.0000000   1.0000000   1.0000000   1.0000000

  Atom        41          42          43          44          45          46          47          48
 IAtWgt=           1           1           1           1           1           1           1           1
 AtmWgt=   1.0078250   1.0078250   1.0078250   1.0078250   1.0078250   1.0078250   1.0078250   1.0078250
 NucSpn=           1           1           1           1           1           1           1           1
 AtZEff=   0.0000000   0.0000000   0.0000000   0.0000000   0.0000000   0.0000000   0.0000000   0.0000000
 NQMom=    0.0000000   0.0000000   0.0000000   0.0000000   0.0000000   0.0000000   0.0000000   0.0000000
 NMagM=    2.7928460   2.7928460   2.7928460   2.7928460   2.7928460   2.7928460   2.7928460   2.7928460
 AtZNuc=   1.0000000   1.0000000   1.0000000   1.0000000   1.0000000   1.0000000   1.0000000   1.0000000
 Leave Link  101 at Mon Jul 29 09:50:35 2019, MaxMem=  4194304000 cpu:         6.6
 (Enter /home/minenky/programs//g09/l103.exe)

 GradGradGradGradGradGradGradGradGradGradGradGradGradGradGradGradGradGrad
 Berny optimization.
 Initialization pass.
                           ----------------------------
                           !    Initial Parameters    !
                           ! (Angstroms and Degrees)  !
 --------------------------                            --------------------------
 ! Name  Definition              Value          Derivative Info.                !
 --------------------------------------------------------------------------------
 ! R1    R(1,2)                  1.3729         estimate D2E/DX2                !
 ! R2    R(1,4)                  1.4205         estimate D2E/DX2                !
 ! R3    R(1,33)                 1.0873         estimate D2E/DX2                !
 ! R4    R(2,3)                  1.4205         estimate D2E/DX2                !
 ! R5    R(2,34)                 1.0874         estimate D2E/DX2                !
 ! R6    R(3,6)                  1.4216         estimate D2E/DX2                !
 ! R7    R(3,10)                 1.4271         estimate D2E/DX2                !
 ! R8    R(4,5)                  1.4217         estimate D2E/DX2                !
 ! R9    R(4,9)                  1.4271         estimate D2E/DX2                !
 ! R10   R(5,6)                  1.426          estimate D2E/DX2                !
 ! R11   R(5,8)                  1.4296         estimate D2E/DX2                !
 ! R12   R(6,7)                  1.4298         estimate D2E/DX2                !
 ! R13   R(7,12)                 1.4307         estimate D2E/DX2                !
 ! R14   R(7,16)                 1.423          estimate D2E/DX2                !
 ! R15   R(8,11)                 1.4308         estimate D2E/DX2                !
 ! R16   R(8,15)                 1.4231         estimate D2E/DX2                !
 ! R17   R(9,24)                 1.3667         estimate D2E/DX2                !
 ! R18   R(9,35)                 1.0873         estimate D2E/DX2                !
 ! R19   R(10,26)                1.3668         estimate D2E/DX2                !
 ! R20   R(10,36)                1.0872         estimate D2E/DX2                !
 ! R21   R(11,12)                1.4463         estimate D2E/DX2                !
 ! R22   R(11,14)                1.4146         estimate D2E/DX2                !
 ! R23   R(12,13)                1.4147         estimate D2E/DX2                !
 ! R24   R(13,18)                1.4627         estimate D2E/DX2                !
 ! R25   R(13,22)                1.4182         estimate D2E/DX2                !
 ! R26   R(14,17)                1.4628         estimate D2E/DX2                !
 ! R27   R(14,21)                1.4182         estimate D2E/DX2                !
 ! R28   R(15,23)                1.4127         estimate D2E/DX2                !
 ! R29   R(15,24)                1.4276         estimate D2E/DX2                !
 ! R30   R(16,25)                1.4128         estimate D2E/DX2                !
 ! R31   R(16,26)                1.4274         estimate D2E/DX2                !
 ! R32   R(17,18)                1.4428         estimate D2E/DX2                !
 ! R33   R(17,20)                1.3952         estimate D2E/DX2                !
 ! R34   R(18,19)                1.3951         estimate D2E/DX2                !
 ! R35   R(19,28)                1.4048         estimate D2E/DX2                !
 ! R36   R(19,37)                1.0843         estimate D2E/DX2                !
 ! R37   R(20,27)                1.4046         estimate D2E/DX2                !
 ! R38   R(20,38)                1.0843         estimate D2E/DX2                !
 ! R39   R(21,23)                1.3749         estimate D2E/DX2                !
 ! R40   R(21,39)                1.0833         estimate D2E/DX2                !
 ! R41   R(22,25)                1.3749         estimate D2E/DX2                !
 ! R42   R(22,40)                1.0834         estimate D2E/DX2                !
 ! R43   R(23,41)                1.0872         estimate D2E/DX2                !
 ! R44   R(24,42)                1.0873         estimate D2E/DX2                !
 ! R45   R(25,43)                1.0873         estimate D2E/DX2                !
 ! R46   R(26,44)                1.0873         estimate D2E/DX2                !
 ! R47   R(27,28)                1.434          estimate D2E/DX2                !
 ! R48   R(27,29)                1.4261         estimate D2E/DX2                !
 ! R49   R(28,30)                1.4261         estimate D2E/DX2                !
 ! R50   R(29,32)                1.3726         estimate D2E/DX2                !
 ! R51   R(29,45)                1.0876         estimate D2E/DX2                !
 ! R52   R(30,31)                1.3726         estimate D2E/DX2                !
 ! R53   R(30,46)                1.0876         estimate D2E/DX2                !
 ! R54   R(31,32)                1.423          estimate D2E/DX2                !
 ! R55   R(31,47)                1.0867         estimate D2E/DX2                !
 ! R56   R(32,48)                1.0866         estimate D2E/DX2                !
 ! A1    A(2,1,4)              121.1061         estimate D2E/DX2                !
 ! A2    A(2,1,33)             120.2519         estimate D2E/DX2                !
 ! A3    A(4,1,33)             118.642          estimate D2E/DX2                !
 ! A4    A(1,2,3)              121.097          estimate D2E/DX2                !
 ! A5    A(1,2,34)             120.2579         estimate D2E/DX2                !
 ! A6    A(3,2,34)             118.6451         estimate D2E/DX2                !
 ! A7    A(2,3,6)              119.0661         estimate D2E/DX2                !
 ! A8    A(2,3,10)             121.8288         estimate D2E/DX2                !
 ! A9    A(6,3,10)             119.1051         estimate D2E/DX2                !
 ! A10   A(1,4,5)              119.0629         estimate D2E/DX2                !
 ! A11   A(1,4,9)              121.8427         estimate D2E/DX2                !
 ! A12   A(5,4,9)              119.0943         estimate D2E/DX2                !
 ! A13   A(4,5,6)              119.828          estimate D2E/DX2                !
 ! A14   A(4,5,8)              120.2339         estimate D2E/DX2                !
 ! A15   A(6,5,8)              119.9381         estimate D2E/DX2                !
 ! A16   A(3,6,5)              119.8398         estimate D2E/DX2                !
 ! A17   A(3,6,7)              120.2297         estimate D2E/DX2                !
 ! A18   A(5,6,7)              119.9305         estimate D2E/DX2                !
 ! A19   A(6,7,12)             120.624          estimate D2E/DX2                !
 ! A20   A(6,7,16)             119.0999         estimate D2E/DX2                !
 ! A21   A(12,7,16)            120.2761         estimate D2E/DX2                !
 ! A22   A(5,8,11)             120.626          estimate D2E/DX2                !
 ! A23   A(5,8,15)             119.1157         estimate D2E/DX2                !
 ! A24   A(11,8,15)            120.2583         estimate D2E/DX2                !
 ! A25   A(4,9,24)             120.9386         estimate D2E/DX2                !
 ! A26   A(4,9,35)             118.6029         estimate D2E/DX2                !
 ! A27   A(24,9,35)            120.4585         estimate D2E/DX2                !
 ! A28   A(3,10,26)            120.9336         estimate D2E/DX2                !
 ! A29   A(3,10,36)            118.6012         estimate D2E/DX2                !
 ! A30   A(26,10,36)           120.4652         estimate D2E/DX2                !
 ! A31   A(8,11,12)            119.436          estimate D2E/DX2                !
 ! A32   A(8,11,14)            119.9023         estimate D2E/DX2                !
 ! A33   A(12,11,14)           120.6616         estimate D2E/DX2                !
 ! A34   A(7,12,11)            119.4453         estimate D2E/DX2                !
 ! A35   A(7,12,13)            119.914          estimate D2E/DX2                !
 ! A36   A(11,12,13)           120.6407         estimate D2E/DX2                !
 ! A37   A(12,13,18)           119.7328         estimate D2E/DX2                !
 ! A38   A(12,13,22)           118.3341         estimate D2E/DX2                !
 ! A39   A(18,13,22)           121.9331         estimate D2E/DX2                !
 ! A40   A(11,14,17)           119.7268         estimate D2E/DX2                !
 ! A41   A(11,14,21)           118.3595         estimate D2E/DX2                !
 ! A42   A(17,14,21)           121.9136         estimate D2E/DX2                !
 ! A43   A(8,15,23)            118.5224         estimate D2E/DX2                !
 ! A44   A(8,15,24)            119.5122         estimate D2E/DX2                !
 ! A45   A(23,15,24)           121.9653         estimate D2E/DX2                !
 ! A46   A(7,16,25)            118.499          estimate D2E/DX2                !
 ! A47   A(7,16,26)            119.5359         estimate D2E/DX2                !
 ! A48   A(25,16,26)           121.9651         estimate D2E/DX2                !
 ! A49   A(14,17,18)           119.6142         estimate D2E/DX2                !
 ! A50   A(14,17,20)           121.8001         estimate D2E/DX2                !
 ! A51   A(18,17,20)           118.5857         estimate D2E/DX2                !
 ! A52   A(13,18,17)           119.6236         estimate D2E/DX2                !
 ! A53   A(13,18,19)           121.8146         estimate D2E/DX2                !
 ! A54   A(17,18,19)           118.5618         estimate D2E/DX2                !
 ! A55   A(18,19,28)           122.8608         estimate D2E/DX2                !
 ! A56   A(18,19,37)           120.1971         estimate D2E/DX2                !
 ! A57   A(28,19,37)           116.942          estimate D2E/DX2                !
 ! A58   A(17,20,27)           122.8575         estimate D2E/DX2                !
 ! A59   A(17,20,38)           120.1718         estimate D2E/DX2                !
 ! A60   A(27,20,38)           116.9707         estimate D2E/DX2                !
 ! A61   A(14,21,23)           121.9417         estimate D2E/DX2                !
 ! A62   A(14,21,39)           119.9067         estimate D2E/DX2                !
 ! A63   A(23,21,39)           118.1516         estimate D2E/DX2                !
 ! A64   A(13,22,25)           121.9523         estimate D2E/DX2                !
 ! A65   A(13,22,40)           119.9232         estimate D2E/DX2                !
 ! A66   A(25,22,40)           118.1245         estimate D2E/DX2                !
 ! A67   A(15,23,21)           121.0158         estimate D2E/DX2                !
 ! A68   A(15,23,41)           119.0018         estimate D2E/DX2                !
 ! A69   A(21,23,41)           119.9824         estimate D2E/DX2                !
 ! A70   A(9,24,15)            121.1052         estimate D2E/DX2                !
 ! A71   A(9,24,42)            120.4709         estimate D2E/DX2                !
 ! A72   A(15,24,42)           118.4239         estimate D2E/DX2                !
 ! A73   A(16,25,22)           121.0245         estimate D2E/DX2                !
 ! A74   A(16,25,43)           119.0095         estimate D2E/DX2                !
 ! A75   A(22,25,43)           119.966          estimate D2E/DX2                !
 ! A76   A(10,26,16)           121.0958         estimate D2E/DX2                !
 ! A77   A(10,26,44)           120.4882         estimate D2E/DX2                !
 ! A78   A(16,26,44)           118.4161         estimate D2E/DX2                !
 ! A79   A(20,27,28)           118.5612         estimate D2E/DX2                !
 ! A80   A(20,27,29)           122.5373         estimate D2E/DX2                !
 ! A81   A(28,27,29)           118.9015         estimate D2E/DX2                !
 ! A82   A(19,28,27)           118.5729         estimate D2E/DX2                !
 ! A83   A(19,28,30)           122.54           estimate D2E/DX2                !
 ! A84   A(27,28,30)           118.8871         estimate D2E/DX2                !
 ! A85   A(27,29,32)           120.7094         estimate D2E/DX2                !
 ! A86   A(27,29,45)           118.692          estimate D2E/DX2                !
 ! A87   A(32,29,45)           120.5986         estimate D2E/DX2                !
 ! A88   A(28,30,31)           120.707          estimate D2E/DX2                !
 ! A89   A(28,30,46)           118.709          estimate D2E/DX2                !
 ! A90   A(31,30,46)           120.584          estimate D2E/DX2                !
 ! A91   A(30,31,32)           120.4085         estimate D2E/DX2                !
 ! A92   A(30,31,47)           120.1386         estimate D2E/DX2                !
 ! A93   A(32,31,47)           119.4528         estimate D2E/DX2                !
 ! A94   A(29,32,31)           120.3864         estimate D2E/DX2                !
 ! A95   A(29,32,48)           120.146          estimate D2E/DX2                !
 ! A96   A(31,32,48)           119.4676         estimate D2E/DX2                !
 ! D1    D(4,1,2,3)              0.0432         estimate D2E/DX2                !
 ! D2    D(4,1,2,34)          -179.9554         estimate D2E/DX2                !
 ! D3    D(33,1,2,3)          -179.9723         estimate D2E/DX2                !
 ! D4    D(33,1,2,34)            0.0291         estimate D2E/DX2                !
 ! D5    D(2,1,4,5)             -0.0358         estimate D2E/DX2                !
 ! D6    D(2,1,4,9)            179.9691         estimate D2E/DX2                !
 ! D7    D(33,1,4,5)           179.9795         estimate D2E/DX2                !
 ! D8    D(33,1,4,9)            -0.0157         estimate D2E/DX2                !
 ! D9    D(1,2,3,6)             -0.0177         estimate D2E/DX2                !
 ! D10   D(1,2,3,10)           179.9973         estimate D2E/DX2                !
 ! D11   D(34,2,3,6)           179.981          estimate D2E/DX2                !
 ! D12   D(34,2,3,10)           -0.0041         estimate D2E/DX2                !
 ! D13   D(2,3,6,5)             -0.0145         estimate D2E/DX2                !
 ! D14   D(2,3,6,7)            179.9603         estimate D2E/DX2                !
 ! D15   D(10,3,6,5)           179.971          estimate D2E/DX2                !
 ! D16   D(10,3,6,7)            -0.0543         estimate D2E/DX2                !
 ! D17   D(2,3,10,26)         -179.9518         estimate D2E/DX2                !
 ! D18   D(2,3,10,36)            0.0509         estimate D2E/DX2                !
 ! D19   D(6,3,10,26)            0.0632         estimate D2E/DX2                !
 ! D20   D(6,3,10,36)         -179.9342         estimate D2E/DX2                !
 ! D21   D(1,4,5,6)              0.0034         estimate D2E/DX2                !
 ! D22   D(1,4,5,8)            179.9719         estimate D2E/DX2                !
 ! D23   D(9,4,5,6)            179.9987         estimate D2E/DX2                !
 ! D24   D(9,4,5,8)             -0.0328         estimate D2E/DX2                !
 ! D25   D(1,4,9,24)          -179.9448         estimate D2E/DX2                !
 ! D26   D(1,4,9,35)             0.0496         estimate D2E/DX2                !
 ! D27   D(5,4,9,24)             0.0601         estimate D2E/DX2                !
 ! D28   D(5,4,9,35)          -179.9455         estimate D2E/DX2                !
 ! D29   D(4,5,6,3)              0.0211         estimate D2E/DX2                !
 ! D30   D(4,5,6,7)           -179.9537         estimate D2E/DX2                !
 ! D31   D(8,5,6,3)           -179.9475         estimate D2E/DX2                !
 ! D32   D(8,5,6,7)              0.0777         estimate D2E/DX2                !
 ! D33   D(4,5,8,11)           179.9685         estimate D2E/DX2                !
 ! D34   D(4,5,8,15)            -0.0131         estimate D2E/DX2                !
 ! D35   D(6,5,8,11)            -0.063          estimate D2E/DX2                !
 ! D36   D(6,5,8,15)           179.9554         estimate D2E/DX2                !
 ! D37   D(3,6,7,12)           179.9943         estimate D2E/DX2                !
 ! D38   D(3,6,7,16)             0.0101         estimate D2E/DX2                !
 ! D39   D(5,6,7,12)            -0.0309         estimate D2E/DX2                !
 ! D40   D(5,6,7,16)           179.9848         estimate D2E/DX2                !
 ! D41   D(6,7,12,11)           -0.0306         estimate D2E/DX2                !
 ! D42   D(6,7,12,13)          179.9499         estimate D2E/DX2                !
 ! D43   D(16,7,12,11)         179.9534         estimate D2E/DX2                !
 ! D44   D(16,7,12,13)          -0.0661         estimate D2E/DX2                !
 ! D45   D(6,7,16,25)         -179.9811         estimate D2E/DX2                !
 ! D46   D(6,7,16,26)            0.0265         estimate D2E/DX2                !
 ! D47   D(12,7,16,25)           0.0346         estimate D2E/DX2                !
 ! D48   D(12,7,16,26)        -179.9578         estimate D2E/DX2                !
 ! D49   D(5,8,11,12)            0.0013         estimate D2E/DX2                !
 ! D50   D(5,8,11,14)          179.9758         estimate D2E/DX2                !
 ! D51   D(15,8,11,12)         179.9827         estimate D2E/DX2                !
 ! D52   D(15,8,11,14)          -0.0429         estimate D2E/DX2                !
 ! D53   D(5,8,15,23)         -179.9772         estimate D2E/DX2                !
 ! D54   D(5,8,15,24)            0.0335         estimate D2E/DX2                !
 ! D55   D(11,8,15,23)           0.0412         estimate D2E/DX2                !
 ! D56   D(11,8,15,24)        -179.9482         estimate D2E/DX2                !
 ! D57   D(4,9,24,15)           -0.0402         estimate D2E/DX2                !
 ! D58   D(4,9,24,42)          179.9975         estimate D2E/DX2                !
 ! D59   D(35,9,24,15)         179.9655         estimate D2E/DX2                !
 ! D60   D(35,9,24,42)           0.0032         estimate D2E/DX2                !
 ! D61   D(3,10,26,16)          -0.0269         estimate D2E/DX2                !
 ! D62   D(3,10,26,44)        -179.9948         estimate D2E/DX2                !
 ! D63   D(36,10,26,16)        179.9704         estimate D2E/DX2                !
 ! D64   D(36,10,26,44)          0.0025         estimate D2E/DX2                !
 ! D65   D(8,11,12,7)            0.0452         estimate D2E/DX2                !
 ! D66   D(8,11,12,13)        -179.9352         estimate D2E/DX2                !
 ! D67   D(14,11,12,7)        -179.929          estimate D2E/DX2                !
 ! D68   D(14,11,12,13)          0.0906         estimate D2E/DX2                !
 ! D69   D(8,11,14,17)         179.9654         estimate D2E/DX2                !
 ! D70   D(8,11,14,21)           0.0298         estimate D2E/DX2                !
 ! D71   D(12,11,14,17)         -0.0605         estimate D2E/DX2                !
 ! D72   D(12,11,14,21)       -179.9961         estimate D2E/DX2                !
 ! D73   D(7,12,13,18)        -179.9864         estimate D2E/DX2                !
 ! D74   D(7,12,13,22)           0.0611         estimate D2E/DX2                !
 ! D75   D(11,12,13,18)         -0.0061         estimate D2E/DX2                !
 ! D76   D(11,12,13,22)       -179.9586         estimate D2E/DX2                !
 ! D77   D(12,13,18,17)         -0.1063         estimate D2E/DX2                !
 ! D78   D(12,13,18,19)        179.8891         estimate D2E/DX2                !
 ! D79   D(22,13,18,17)        179.8445         estimate D2E/DX2                !
 ! D80   D(22,13,18,19)         -0.1601         estimate D2E/DX2                !
 ! D81   D(12,13,22,25)         -0.0267         estimate D2E/DX2                !
 ! D82   D(12,13,22,40)        179.9548         estimate D2E/DX2                !
 ! D83   D(18,13,22,25)       -179.9781         estimate D2E/DX2                !
 ! D84   D(18,13,22,40)          0.0033         estimate D2E/DX2                !
 ! D85   D(11,14,17,18)         -0.0525         estimate D2E/DX2                !
 ! D86   D(11,14,17,20)        179.9586         estimate D2E/DX2                !
 ! D87   D(21,14,17,18)        179.8808         estimate D2E/DX2                !
 ! D88   D(21,14,17,20)         -0.1081         estimate D2E/DX2                !
 ! D89   D(11,14,21,23)         -0.0165         estimate D2E/DX2                !
 ! D90   D(11,14,21,39)        179.9615         estimate D2E/DX2                !
 ! D91   D(17,14,21,23)       -179.9507         estimate D2E/DX2                !
 ! D92   D(17,14,21,39)          0.0273         estimate D2E/DX2                !
 ! D93   D(8,15,23,21)          -0.0278         estimate D2E/DX2                !
 ! D94   D(8,15,23,41)        -179.9807         estimate D2E/DX2                !
 ! D95   D(24,15,23,21)        179.9613         estimate D2E/DX2                !
 ! D96   D(24,15,23,41)          0.0083         estimate D2E/DX2                !
 ! D97   D(8,15,24,9)           -0.0072         estimate D2E/DX2                !
 ! D98   D(8,15,24,42)         179.9558         estimate D2E/DX2                !
 ! D99   D(23,15,24,9)        -179.9961         estimate D2E/DX2                !
 ! D100  D(23,15,24,42)         -0.0331         estimate D2E/DX2                !
 ! D101  D(7,16,25,22)           0.0004         estimate D2E/DX2                !
 ! D102  D(7,16,25,43)        -179.9764         estimate D2E/DX2                !
 ! D103  D(26,16,25,22)        179.9926         estimate D2E/DX2                !
 ! D104  D(26,16,25,43)          0.0158         estimate D2E/DX2                !
 ! D105  D(7,16,26,10)          -0.0185         estimate D2E/DX2                !
 ! D106  D(7,16,26,44)         179.95           estimate D2E/DX2                !
 ! D107  D(25,16,26,10)        179.9894         estimate D2E/DX2                !
 ! D108  D(25,16,26,44)         -0.0421         estimate D2E/DX2                !
 ! D109  D(14,17,18,13)          0.1352         estimate D2E/DX2                !
 ! D110  D(14,17,18,19)       -179.8604         estimate D2E/DX2                !
 ! D111  D(20,17,18,13)       -179.8756         estimate D2E/DX2                !
 ! D112  D(20,17,18,19)          0.1288         estimate D2E/DX2                !
 ! D113  D(14,17,20,27)        179.8945         estimate D2E/DX2                !
 ! D114  D(14,17,20,38)         -0.0573         estimate D2E/DX2                !
 ! D115  D(18,17,20,27)         -0.0945         estimate D2E/DX2                !
 ! D116  D(18,17,20,38)        179.9537         estimate D2E/DX2                !
 ! D117  D(13,18,19,28)        179.9315         estimate D2E/DX2                !
 ! D118  D(13,18,19,37)         -0.0319         estimate D2E/DX2                !
 ! D119  D(17,18,19,28)         -0.073          estimate D2E/DX2                !
 ! D120  D(17,18,19,37)        179.9636         estimate D2E/DX2                !
 ! D121  D(18,19,28,27)         -0.0215         estimate D2E/DX2                !
 ! D122  D(18,19,28,30)        179.9867         estimate D2E/DX2                !
 ! D123  D(37,19,28,27)        179.943          estimate D2E/DX2                !
 ! D124  D(37,19,28,30)         -0.0488         estimate D2E/DX2                !
 ! D125  D(17,20,27,28)         -0.0001         estimate D2E/DX2                !
 ! D126  D(17,20,27,29)       -179.9801         estimate D2E/DX2                !
 ! D127  D(38,20,27,28)        179.9532         estimate D2E/DX2                !
 ! D128  D(38,20,27,29)         -0.0269         estimate D2E/DX2                !
 ! D129  D(14,21,23,15)          0.0158         estimate D2E/DX2                !
 ! D130  D(14,21,23,41)        179.9683         estimate D2E/DX2                !
 ! D131  D(39,21,23,15)       -179.9626         estimate D2E/DX2                !
 ! D132  D(39,21,23,41)         -0.0101         estimate D2E/DX2                !
 ! D133  D(13,22,25,16)         -0.0043         estimate D2E/DX2                !
 ! D134  D(13,22,25,43)        179.9723         estimate D2E/DX2                !
 ! D135  D(40,22,25,16)       -179.9861         estimate D2E/DX2                !
 ! D136  D(40,22,25,43)         -0.0095         estimate D2E/DX2                !
 ! D137  D(20,27,28,19)          0.059          estimate D2E/DX2                !
 ! D138  D(20,27,28,30)       -179.9489         estimate D2E/DX2                !
 ! D139  D(29,27,28,19)       -179.9602         estimate D2E/DX2                !
 ! D140  D(29,27,28,30)          0.0319         estimate D2E/DX2                !
 ! D141  D(20,27,29,32)        179.9521         estimate D2E/DX2                !
 ! D142  D(20,27,29,45)         -0.0135         estimate D2E/DX2                !
 ! D143  D(28,27,29,32)         -0.0278         estimate D2E/DX2                !
 ! D144  D(28,27,29,45)       -179.9935         estimate D2E/DX2                !
 ! D145  D(19,28,30,31)        179.9654         estimate D2E/DX2                !
 ! D146  D(19,28,30,46)         -0.0036         estimate D2E/DX2                !
 ! D147  D(27,28,30,31)         -0.0263         estimate D2E/DX2                !
 ! D148  D(27,28,30,46)       -179.9953         estimate D2E/DX2                !
 ! D149  D(27,29,32,31)          0.0171         estimate D2E/DX2                !
 ! D150  D(27,29,32,48)       -179.9683         estimate D2E/DX2                !
 ! D151  D(45,29,32,31)        179.9821         estimate D2E/DX2                !
 ! D152  D(45,29,32,48)         -0.0033         estimate D2E/DX2                !
 ! D153  D(28,30,31,32)          0.0156         estimate D2E/DX2                !
 ! D154  D(28,30,31,47)       -179.9819         estimate D2E/DX2                !
 ! D155  D(46,30,31,32)        179.984          estimate D2E/DX2                !
 ! D156  D(46,30,31,47)         -0.0135         estimate D2E/DX2                !
 ! D157  D(30,31,32,29)         -0.0108         estimate D2E/DX2                !
 ! D158  D(30,31,32,48)        179.9747         estimate D2E/DX2                !
 ! D159  D(47,31,32,29)        179.9867         estimate D2E/DX2                !
 ! D160  D(47,31,32,48)         -0.0277         estimate D2E/DX2                !
 --------------------------------------------------------------------------------
 Trust Radius=3.00D-01 FncErr=1.00D-07 GrdErr=1.00D-06
 Number of steps in this run=    288 maximum allowed number of steps=    288.
 GradGradGradGradGradGradGradGradGradGradGradGradGradGradGradGradGradGrad

 Leave Link  103 at Mon Jul 29 09:50:36 2019, MaxMem=  4194304000 cpu:         0.1
 (Enter /home/minenky/programs//g09/l202.exe)
                          Input orientation:                          
 ---------------------------------------------------------------------
 Center     Atomic      Atomic             Coordinates (Angstroms)
 Number     Number       Type             X           Y           Z
 ---------------------------------------------------------------------
      1          6           0        0.806200    7.027300    8.302400
      2          6           0        0.683100    7.921700    7.268100
      3          6           0        1.457500    7.786300    6.085000
      4          6           0        1.712800    5.936400    8.225300
      5          6           0        2.501400    5.775300    7.053400
      6          6           0        2.373000    6.703900    5.978900
      7          6           0        3.164300    6.543400    4.798900
      8          6           0        3.422200    4.686700    6.949400
      9          6           0        1.853900    4.997900    9.291100
     10          6           0        1.342100    8.706700    5.000500
     11          6           0        4.219500    4.516200    5.773600
     12          6           0        4.088300    5.457300    4.683200
     13          6           0        4.863000    5.312200    3.508400
     14          6           0        5.126200    3.433800    5.687200
     15          6           0        3.536900    3.770900    8.032600
     16          6           0        3.021700    7.480200    3.737300
     17          6           0        5.938900    3.262700    4.483000
     18          6           0        5.806300    4.200100    3.394200
     19          6           0        6.589900    4.014400    2.255000
     20          6           0        6.847000    2.211600    4.352100
     21          6           0        5.215300    2.540400    6.785000
     22          6           0        4.695700    6.263600    2.470000
     23          6           0        4.451000    2.700100    7.916700
     24          6           0        2.732900    3.955500    9.197700
     25          6           0        3.809500    7.309300    2.577100
     26          6           0        2.095700    8.558400    3.869900
     27          6           0        7.636600    2.025000    3.205500
     28          6           0        7.503400    2.955400    2.122500
     29          6           0        8.562500    0.947800    3.078800
     30          6           0        8.300900    2.771900    0.954600
     31          6           0        9.182600    1.723700    0.865500
     32          6           0        9.315000    0.800500    1.940300
     33          1           0        0.206200    7.143800    9.201700
     34          1           0       -0.014800    8.752300    7.342100
     35          1           0        1.246200    5.128200   10.183300
     36          1           0        0.640200    9.532100    5.090800
     37          1           0        6.511200    4.702600    1.420800
     38          1           0        6.967900    1.492700    5.154800
     39          1           0        5.900900    1.702600    6.745300
     40          1           0        5.276400    6.177500    1.559400
     41          1           0        4.544700    1.995600    8.739500
     42          1           0        2.834300    3.244900   10.014400
     43          1           0        3.707500    8.020500    1.761000
     44          1           0        2.002000    9.264000    3.048000
     45          1           0        8.660700    0.244100    3.902200
     46          1           0        8.197600    3.479300    0.135000
     47          1           0        9.786000    1.592800   -0.028700
     48          1           0       10.017400   -0.024000    1.853300
 ---------------------------------------------------------------------
                    Distance matrix (angstroms):
                    1          2          3          4          5
     1  C    0.000000
     2  C    1.372910   0.000000
     3  C    2.432516   1.420477   0.000000
     4  C    1.420539   2.432680   2.840456   0.000000
     5  C    2.449736   2.821231   2.464071   1.421687   0.000000
     6  C    2.821011   2.449660   1.421614   2.463987   1.425950
     7  C    4.250801   3.762049   2.472250   3.770347   2.472283
     8  C    3.761977   4.250819   3.770246   2.472189   1.429594
     9  C    2.488708   3.743248   4.267480   1.427102   2.455791
    10  C    3.743009   2.488477   1.427093   4.267472   3.761845
    11  C    4.934680   5.131967   4.291756   3.783034   2.484973
    12  C    5.131831   4.934609   3.782908   4.291737   2.870056
    13  C    6.510118   6.198096   4.935329   5.706359   4.284698
    14  C    6.197977   6.510117   5.706300   4.935206   3.773420
    15  C    4.258363   5.094877   4.923463   2.837933   2.459413
    16  C    5.094477   4.257995   2.837625   4.923280   3.764826
    17  C    7.423250   7.555561   6.565996   6.246071   4.973582
    18  C    7.555428   7.423246   6.246062   6.565897   5.176231
    19  C    8.893807   8.676892   7.432204   7.945104   6.545322
    20  C    8.676814   8.893928   7.945246   7.432081   6.235481
    21  C    6.471085   7.052135   6.490803   5.086726   4.231060
    22  C    7.051832   6.470859   5.086529   6.490626   5.104992
    23  C    5.670802   6.471697   6.179450   4.250484   3.742069
    24  C    3.734928   4.863721   5.098095   2.431076   2.821930
    25  C    6.471352   5.670528   4.250270   6.179253   4.909332
    26  C    4.863552   3.734781   2.431071   5.098137   4.247930
    27  C    9.882093   9.981330   8.925546   8.694185   7.432453
    28  C    9.981183   9.882197   8.694361   8.925333   7.568726
    29  C   11.153766  11.325655  10.309381   9.914181   8.708567
    30  C   11.325596  11.153995   9.914501  10.309229   8.935881
    31  C   12.393536  12.314625  11.120947  11.300947   9.967146
    32  C   12.314586  12.393815  11.301338  11.120798   9.864967
    33  H    1.087342   2.138076   3.419412   2.163565   3.428692
    34  H    2.138187   1.087399   2.163590   3.419640   3.908598
    35  H    2.708868   4.076655   4.889397   2.169024   3.433735
    36  H    4.076267   2.708480   2.168924   4.889235   4.629191
    37  H    9.236215   8.861166   7.536833   8.417133   6.996811
    38  H    8.860346   9.235626   8.416602   7.535948   6.472632
    39  H    7.532128   8.134861   7.562487   6.136419   5.313983
    40  H    8.134673   7.531925   6.136228   7.562513   6.168178
    41  H    6.283744   7.224655   7.078798   4.879955   4.615641
    42  H    4.620680   5.834577   6.161175   3.420937   3.909126
    43  H    7.224535   6.283702   4.879992   7.078805   5.874104
    44  H    5.834508   4.620661   3.421030   6.161249   5.335134
    45  H   11.272388  11.572248  10.655303   9.968189   8.857833
    46  H   11.572706  11.273143   9.969037  10.655652   9.251085
    47  H   13.400665  13.272568  12.045774  12.335799  10.987031
    48  H   13.272450  13.400872  12.336124  12.045544  10.824194
                    6          7          8          9         10
     6  C    0.000000
     7  C    1.429796   0.000000
     8  C    2.472203   2.852805   0.000000
     9  C    3.761724   4.928040   2.835484   0.000000
    10  C    2.455856   2.835652   4.928025   5.694417   0.000000
    11  C    2.870147   2.484558   1.430826   4.266252   5.141732
    12  C    2.484976   1.430656   2.484588   5.141628   4.266251
    13  C    3.773632   2.463093   3.782544   6.526338   5.113289
    14  C    4.284712   3.782557   2.463031   5.112969   6.526442
    15  C    3.764948   4.275793   1.423084   2.433483   6.194586
    16  C    2.459314   1.422998   4.275702   6.194374   2.433317
    17  C    5.176410   4.308270   3.800616   6.543391   7.143914
    18  C    4.973654   3.800579   4.308150   7.143625   6.543602
    19  C    6.235630   4.960041   5.702956   8.538365   7.556114
    20  C    6.545526   5.703192   4.959974   7.555676   8.538775
    21  C    5.105213   4.916829   2.801578   4.859923   7.497291
    22  C    4.230978   2.801294   4.916649   7.497015   4.859918
    23  C    4.909538   5.113436   2.437351   3.730119   7.365373
    24  C    4.247812   5.121794   2.462649   1.366734   6.490355
    25  C    3.741963   2.437064   5.113222   7.365103   3.730101
    26  C    2.822047   2.462757   5.121814   6.490380   1.366807
    27  C    7.568972   6.554108   6.233988   8.905744   9.353495
    28  C    7.432636   6.234152   6.553820   9.352940   8.906287
    29  C    8.936061   7.963043   7.442016  10.000065  10.771613
    30  C    8.708858   7.442279   7.962776  10.771078  10.000803
    31  C    9.865085   8.655696   8.886811  11.637051  11.284235
    32  C    9.967537   8.887272   8.655560  11.283636  11.637867
    33  H    3.908321   5.338116   4.631722   2.706990   4.624176
    34  H    3.428680   4.631823   5.338191   4.624517   2.706723
    35  H    4.629200   5.888435   3.922755   1.087335   6.298911
    36  H    3.433662   3.922832   5.888278   6.298774   1.087246
    37  H    6.473498   5.099200   6.333055   9.149823   7.454305
    38  H    6.996346   6.332741   5.098452   7.453080   9.149603
    39  H    6.168180   5.891587   3.884645   5.806747   8.537236
    40  H    5.314020   3.884483   5.891744   8.537221   5.806612
    41  H    5.874120   6.173841   3.421474   4.069210   8.323198
    42  H    5.335048   6.179842   3.437825   2.134796   7.562877
    43  H    4.615735   3.421363   6.173744   8.323121   4.069441
    44  H    3.909211   3.437769   6.179771   7.562925   2.135019
    45  H    9.250777   8.408071   7.514253   9.898049  11.242054
    46  H    8.858622   7.514970   8.408229  11.242012   9.899327
    47  H   10.824379   9.573979   9.938010  12.703212  12.132595
    48  H   10.987359   9.938425   9.573797  12.131903  12.703969
                   11         12         13         14         15
    11  C    0.000000
    12  C    1.446325   0.000000
    13  C    2.485727   1.414698   0.000000
    14  C    1.414623   2.485921   2.888742   0.000000
    15  C    2.474772   3.790312   4.960094   2.853141   0.000000
    16  C    3.790322   2.474770   2.853595   4.960281   5.698591
    17  C    2.488624   2.877685   2.511545   1.462824   4.315962
    18  C    2.877394   2.488694   1.462745   2.511494   5.181616
    19  C    4.272136   3.773078   2.497495   3.776177   6.539171
    20  C    3.773009   4.272543   3.776481   2.497482   5.189823
    21  C    2.432762   3.767758   4.306170   1.418192   2.426451
    22  C    3.767485   2.432552   1.418247   4.306213   6.204747
    23  C    2.818632   4.264883   5.140615   2.442311   1.412666
    24  C    3.774762   4.947042   6.224636   4.280615   1.427568
    25  C    4.264636   2.818384   2.442456   5.140615   6.508231
    26  C    4.947118   3.774749   4.280940   6.224792   6.505789
    27  C    4.947503   5.153127   4.311646   3.800745   6.569368
    28  C    5.152730   4.947686   3.800913   4.311268   7.164317
    29  C    6.233544   6.551958   5.737495   4.979167   7.600440
    30  C    6.551578   6.233765   4.979375   5.737102   8.590214
    31  C    7.517969   7.380142   6.206545   6.528983   9.350523
    32  C    7.380023   7.518489   6.529524   6.206414   8.906505
    33  H    5.895993   6.191270   7.579856   7.093815   4.882296
    34  H    6.191448   5.895948   7.093975   7.579909   6.156761
    35  H    5.353551   6.199753   7.594036   6.175784   3.422730
    36  H    6.199747   5.353459   6.176049   7.594021   7.087770
    37  H    4.922753   4.133191   2.728782   4.661571   7.309612
    38  H    4.132574   4.922657   4.661525   2.728219   5.024310
    39  H    3.418721   4.651403   4.958222   2.171817   3.394628
    40  H    4.651498   3.418830   2.172152   4.958748   7.121791
    41  H    3.905860   5.352125   6.202061   3.423901   2.160338
    42  H    4.638897   5.906685   7.121614   4.900321   2.167453
    43  H    5.351936   3.905670   3.423956   6.202062   7.577676
    44  H    5.906590   4.638695   4.900409   7.121603   7.574715
    45  H    6.440282   6.978127   6.345332   5.084595   7.466716
    46  H    6.978127   6.440881   5.085165   6.345273   9.174925
    47  H    8.555634   8.342670   7.112028   7.600956  10.429762
    48  H    8.342530   8.556121   7.601462   7.111892   9.725322
                   16         17         18         19         20
    16  C    0.000000
    17  C    5.182030   0.000000
    18  C    4.316338   1.442840   0.000000
    19  C    5.190475   2.439844   1.395095   0.000000
    20  C    6.539805   1.395203   2.440238   2.777412   0.000000
    21  C    6.204996   2.518833   3.821179   4.958135   2.947805
    22  C    2.426611   3.821402   2.519049   2.948410   4.958739
    23  C    6.508428   3.784265   4.953771   6.193313   4.322710
    24  C    6.505604   5.743414   6.571623   7.942355   6.591422
    25  C    1.412763   4.953965   3.784440   4.323279   6.193834
    26  C    1.427436   6.571949   5.743659   6.591940   7.942873
    27  C    7.165146   2.458880   2.848976   2.440644   1.404628
    28  C    6.570162   2.848518   2.458993   1.404820   2.440331
    29  C    8.591061   3.770122   4.274760   3.738159   2.482222
    30  C    7.601412   4.274288   3.770203   2.482412   3.737749
    31  C    8.907369   5.096706   4.891450   3.728285   4.224861
    32  C    9.351643   4.891401   5.097262   4.225442   3.728137
    33  H    6.156287   8.378121   8.587988   9.939890   9.588819
    34  H    4.881921   8.588172   8.378165   9.588970   9.940078
    35  H    7.087681   7.615441   8.230903   9.625675   8.595255
    36  H    3.422543   8.231101   7.615594   8.595679   9.625994
    37  H    5.025718   3.431896   2.154924   1.084298   3.861394
    38  H    7.309717   2.154775   3.432061   3.861437   1.084325
    39  H    7.121694   2.748337   4.180470   5.097248   2.623279
    40  H    3.394694   4.181196   2.749072   2.624527   5.098463
    41  H    7.577755   4.654796   5.918081   7.092752   4.959488
    42  H    7.574620   6.343126   7.319306   8.654765   7.016489
    43  H    2.160557   5.918200   4.654864   4.959950   7.093207
    44  H    2.167225   7.319427   6.343157   7.016835   8.655117
    45  H    9.175329   4.105785   4.904651   4.606153   2.713480
    46  H    7.468180   4.904462   4.106124   2.713933   4.605987
    47  H    9.726253   6.159885   5.861081   4.614595   5.311501
    48  H   10.430834   5.861048   6.160419   5.312042   4.614471
                   21         22         23         24         25
    21  C    0.000000
    22  C    5.722886   0.000000
    23  C    1.374919   6.513444   0.000000
    24  C    3.739778   7.378473   2.483719   0.000000
    25  C    6.513456   1.374885   7.082907   7.499292   0.000000
    26  C    7.378756   3.739763   7.499580   7.069524   2.483685
    27  C    4.352143   5.211102   5.727060   7.979948   6.554800
    28  C    5.210233   4.352944   6.554012   8.591643   5.727827
    29  C    5.241759   6.601554   6.586370   8.970587   7.956846
    30  C    6.600612   5.242697   7.955987  10.017596   6.587350
    31  C    7.172653   6.581594   8.547562  10.770567   7.937172
    32  C    6.580723   7.173840   7.936267  10.293101   8.548715
    33  H    7.219613   8.139174   6.278218   4.068106   7.542976
    34  H    8.139534   7.219404   7.543385   5.831157   6.277957
    35  H    5.830858   8.525443   4.615614   2.134692   8.317571
    36  H    8.525592   5.830846   8.317700   7.234949   4.615625
    37  H    5.926981   2.614112   7.102897   8.678357   3.928244
    38  H    2.612821   5.927270   3.926919   6.351823   7.103018
    39  H    1.083297   6.366586   2.114094   4.596308   7.292663
    40  H    6.367034   1.083429   7.293069   8.351665   2.113878
    41  H    2.136956   7.585859   1.087244   2.708094   8.170135
    42  H    4.073635   8.336386   2.703862   1.087305   8.531342
    43  H    7.585877   2.136801   8.170195   8.531036   1.087303
    44  H    8.336502   4.073390   8.531508   8.156788   2.703637
    45  H    5.045227   7.348932   6.314247   8.772435   8.672202
    46  H    7.348343   5.046569   8.671737  10.593500   6.315709
    47  H    8.259283   7.346498   9.634195  11.851372   8.671051
    48  H    7.345609   8.260431   8.670084  11.083347   9.635310
                   26         27         28         29         30
    26  C    0.000000
    27  C    8.592341   0.000000
    28  C    7.980616   1.433972   0.000000
    29  C   10.018312   1.426080   2.463059   0.000000
    30  C    8.971458   2.462865   1.426068   2.812117   0.000000
    31  C   10.293867   2.820726   2.432457   2.425952   1.372610
    32  C   10.771567   2.432521   2.821114   1.372638   2.426195
    33  H    5.830900  10.833622  10.995767  12.070960  12.355255
    34  H    4.067921  10.995997  10.833818  12.355405  12.071297
    35  H    7.235119   9.957749  10.433126  11.021702  11.852841
    36  H    2.134753  10.433624   9.958278  11.853320  11.022467
    37  H    6.353104   3.408991   2.128274   4.588607   2.673569
    38  H    8.678330   2.128444   3.408973   2.673844   4.588564
    39  H    8.351615   3.955601   5.050524   4.593154   6.358900
    40  H    4.596080   5.052073   3.957087   6.360565   4.594725
    41  H    8.531175   6.339232   7.311622   7.020265   8.678499
    42  H    8.156819   8.420888   9.174224   9.283937  10.591856
    43  H    2.708264   7.312348   6.339935   8.679326   7.021211
    44  H    1.087277   9.174783   8.421424  10.592464   9.284709
    45  H   10.593765   2.169280   3.443519   1.087577   3.899689
    46  H    8.773820   3.443498   2.169456   3.899693   1.087580
    47  H   11.084195   3.907271   3.419737   3.401402   2.136043
    48  H   11.852325   3.419803   3.907619   2.136113   3.401631
                   31         32         33         34         35
    31  C    0.000000
    32  C    1.423033   0.000000
    33  H   13.395726  13.264073   0.000000
    34  H   13.264228  13.396109   2.468648   0.000000
    35  H   12.704269  12.319966   2.471393   4.774583   0.000000
    36  H   12.320587  12.705064   4.774079   2.470924   6.759817
    37  H    4.039626   4.832966  10.308001   9.697966  10.231460
    38  H    4.832841   4.039929   9.697057  10.307481   8.440410
    39  H    6.733650   5.963044   8.250465   9.222253   6.724642
    40  H    5.964581   6.735540   9.222007   8.250213   9.576805
    41  H    9.142424   8.391254   6.748346   8.270113   4.772614
    42  H   11.239098  10.637935   4.771668   6.752038   2.469293
    43  H    8.392159   9.143555   8.269929   6.748313   9.238968
    44  H   10.638630  11.240009   6.751901   4.771647   8.281822
    45  H    3.418061   2.141668  12.131328  12.628804  10.875728
    46  H    2.141492   3.418137  12.629176  12.132202  12.329200
    47  H    1.086655   2.174061  14.414800  14.200099  13.773605
    48  H    2.174188   1.086616  14.199859  14.415110  13.147928
                   36         37         38         39         40
    36  H    0.000000
    37  H    8.441659   0.000000
    38  H   10.231121   4.945178   0.000000
    39  H    9.576712   6.141886   1.926717   0.000000
    40  H    6.724469   1.928541   6.142917   6.878102   0.000000
    41  H    9.238883   8.047257   4.356017   2.429395   8.341313
    42  H    8.281594   9.460150   6.616084   4.740226   9.276369
    43  H    4.772927   4.357170   8.047376   8.340870   2.428732
    44  H    2.469698   6.617177   9.460014   9.276110   4.739632
    45  H   12.329158   5.536779   2.448179   4.222196   7.221318
    46  H   10.877069   2.448201   5.536888   7.219942   4.224051
    47  H   13.148666   4.743018   5.900880   7.809810   6.624049
    48  H   13.774336   5.900953   4.743388   6.622566   7.811662
                   41         42         43         44         45
    41  H    0.000000
    42  H    2.472163   0.000000
    43  H    9.257418   9.575356   0.000000
    44  H    9.575392   9.244080   2.472123   0.000000
    45  H    6.588526   8.961625   9.465269  11.243956   0.000000
    46  H    9.464801  11.243775   6.589945   8.962911   4.987261
    47  H   10.223248  12.325560   9.025880  11.353592   4.305493
    48  H    9.024909  11.352805  10.224350  12.326431   2.471943
                   46         47         48
    46  H    0.000000
    47  H    2.471577   0.000000
    48  H    4.305501   2.491889   0.000000
 Stoichiometry    C32H16
 Framework group  C1[X(C32H16)]
 Deg. of freedom   138
 Full point group                 C1      NOp   1
 Largest Abelian subgroup         C1      NOp   1
 Largest concise Abelian subgroup C1      NOp   1
                         Standard orientation:                         
 ---------------------------------------------------------------------
 Center     Atomic      Atomic             Coordinates (Angstroms)
 Number     Number       Type             X           Y           Z
 ---------------------------------------------------------------------
      1          6           0       -5.419608    0.686872    0.002569
      2          6           0       -5.419814   -0.686037    0.000798
      3          6           0       -4.203579   -1.419879   -0.000456
      4          6           0       -4.203216    1.420576    0.002291
      5          6           0       -2.970013    0.713185    0.000912
      6          6           0       -2.970300   -0.712765   -0.000239
      7          6           0       -1.731337   -1.426410   -0.000626
      8          6           0       -1.731035    1.426395   -0.000003
      9          6           0       -4.184656    2.847557    0.003459
     10          6           0       -4.185568   -2.846857   -0.002245
     11          6           0       -0.485061    0.722967   -0.000715
     12          6           0       -0.485347   -0.723357   -0.000533
     13          6           0        0.731688   -1.444603    0.000152
     14          6           0        0.731932    1.444138   -0.002136
     15          6           0       -1.751176    2.849337    0.000202
     16          6           0       -1.752252   -2.849254   -0.001449
     17          6           0        2.003562    0.721081   -0.002094
     18          6           0        2.003346   -0.721756    0.000547
     19          6           0        3.228560   -1.388939    0.003518
     20          6           0        3.228792    1.388462   -0.004320
     21          6           0        0.675245    2.861196   -0.002168
     22          6           0        0.674327   -2.861690   -0.000598
     23          6           0       -0.519637    3.541388   -0.001204
     24          6           0       -3.003345    3.534917    0.002039
     25          6           0       -0.520721   -3.541519   -0.001414
     26          6           0       -3.004397   -3.534605   -0.002445
     27          6           0        4.462438    0.716828   -0.002157
     28          6           0        4.462334   -0.717136    0.002546
     29          6           0        5.710952    1.405968   -0.004038
     30          6           0        5.710911   -1.406131    0.005880
     31          6           0        6.894784   -0.711511    0.004078
     32          6           0        6.894953    0.711514   -0.000828
     33          1           0       -6.358792    1.234817    0.003969
     34          1           0       -6.359155   -1.233829    0.000306
     35          1           0       -5.132440    3.380474    0.005417
     36          1           0       -5.133495   -3.379338   -0.003495
     37          1           0        3.259341   -2.472797    0.006142
     38          1           0        3.258967    2.472364   -0.007086
     39          1           0        1.591948    3.438420   -0.002610
     40          1           0        1.590702   -3.439682   -0.000841
     41          1           0       -0.525928    4.628613   -0.000739
     42          1           0       -2.998080    4.622209    0.002903
     43          1           0       -0.527015   -4.628804   -0.002431
     44          1           0       -2.999127   -4.621868   -0.003898
     45          1           0        5.707054    2.493533   -0.007498
     46          1           0        5.707451   -2.493700    0.009365
     47          1           0        7.840938   -1.245934    0.006353
     48          1           0        7.841061    1.245942   -0.001779
 ---------------------------------------------------------------------
 Rotational constants (GHZ):      0.3035248      0.0957783      0.0728046
 Leave Link  202 at Mon Jul 29 09:50:36 2019, MaxMem=  4194304000 cpu:         0.5
 (Enter /home/minenky/programs//g09/l301.exe)
 Standard basis: def2TZVP (5D, 7F)
 ======================================================================================================
                                       Pseudopotential Parameters
 ======================================================================================================
  Center     Atomic      Valence      Angular      Power
  Number     Number     Electrons     Momentum     of R      Exponent        Coefficient   SO-Coeffient
 ======================================================================================================
    1          6
                                   No pseudopotential on this center.
    2          6
                                   No pseudopotential on this center.
    3          6
                                   No pseudopotential on this center.
    4          6
                                   No pseudopotential on this center.
    5          6
                                   No pseudopotential on this center.
    6          6
                                   No pseudopotential on this center.
    7          6
                                   No pseudopotential on this center.
    8          6
                                   No pseudopotential on this center.
    9          6
                                   No pseudopotential on this center.
   10          6
                                   No pseudopotential on this center.
   11          6
                                   No pseudopotential on this center.
   12          6
                                   No pseudopotential on this center.
   13          6
                                   No pseudopotential on this center.
   14          6
                                   No pseudopotential on this center.
   15          6
                                   No pseudopotential on this center.
   16          6
                                   No pseudopotential on this center.
   17          6
                                   No pseudopotential on this center.
   18          6
                                   No pseudopotential on this center.
   19          6
                                   No pseudopotential on this center.
   20          6
                                   No pseudopotential on this center.
   21          6
                                   No pseudopotential on this center.
   22          6
                                   No pseudopotential on this center.
   23          6
                                   No pseudopotential on this center.
   24          6
                                   No pseudopotential on this center.
   25          6
                                   No pseudopotential on this center.
   26          6
                                   No pseudopotential on this center.
   27          6
                                   No pseudopotential on this center.
   28          6
                                   No pseudopotential on this center.
   29          6
                                   No pseudopotential on this center.
   30          6
                                   No pseudopotential on this center.
   31          6
                                   No pseudopotential on this center.
   32          6
                                   No pseudopotential on this center.
   33          1
                                   No pseudopotential on this center.
   34          1
                                   No pseudopotential on this center.
   35          1
                                   No pseudopotential on this center.
   36          1
                                   No pseudopotential on this center.
   37          1
                                   No pseudopotential on this center.
   38          1
                                   No pseudopotential on this center.
   39          1
                                   No pseudopotential on this center.
   40          1
                                   No pseudopotential on this center.
   41          1
                                   No pseudopotential on this center.
   42          1
                                   No pseudopotential on this center.
   43          1
                                   No pseudopotential on this center.
   44          1
                                   No pseudopotential on this center.
   45          1
                                   No pseudopotential on this center.
   46          1
                                   No pseudopotential on this center.
   47          1
                                   No pseudopotential on this center.
   48          1
                                   No pseudopotential on this center.
 ======================================================================================================
 Ernie: Thresh=  0.10000D-02 Tol=  0.10000D-05 Strict=F.
 AO basis set (Overlap normalization):
 Atom C1       Shell     1 S   6     bf    1 -     1        -10.241574722772          1.297999067095          0.004855517153
      0.1357534968D+05  0.6064550360D-03
      0.2035233368D+04  0.4697908888D-02
      0.4632256236D+03  0.2433247765D-01
      0.1312001960D+03  0.9739996831D-01
      0.4285301589D+02  0.3019558425D+00
      0.1558418577D+02  0.6623360914D+00
 Atom C1       Shell     2 S   2     bf    2 -     2        -10.241574722772          1.297999067095          0.004855517153
      0.6206713851D+01  0.6559530854D+00
      0.2576489653D+01  0.3758563329D+00
 Atom C1       Shell     3 S   1     bf    3 -     3        -10.241574722772          1.297999067095          0.004855517153
      0.5769633942D+00  0.1000000000D+01
 Atom C1       Shell     4 S   1     bf    4 -     4        -10.241574722772          1.297999067095          0.004855517153
      0.2297283136D+00  0.1000000000D+01
 Atom C1       Shell     5 S   1     bf    5 -     5        -10.241574722772          1.297999067095          0.004855517153
      0.9516444003D-01  0.1000000000D+01
 Atom C1       Shell     6 P   4     bf    6 -     8        -10.241574722772          1.297999067095          0.004855517153
      0.3469723224D+02  0.1132722000D-01
      0.7958262283D+01  0.7616965920D-01
      0.2378082688D+01  0.3019225220D+00
      0.8143320818D+00  0.7278502735D+00
 Atom C1       Shell     7 P   1     bf    9 -    11        -10.241574722772          1.297999067095          0.004855517153
      0.2888754725D+00  0.1000000000D+01
 Atom C1       Shell     8 P   1     bf   12 -    14        -10.241574722772          1.297999067095          0.004855517153
      0.1005682367D+00  0.1000000000D+01
 Atom C1       Shell     9 D   1     bf   15 -    19        -10.241574722772          1.297999067095          0.004855517153
      0.1097000000D+01  0.1000000000D+01
 Atom C1       Shell    10 D   1     bf   20 -    24        -10.241574722772          1.297999067095          0.004855517153
      0.3180000000D+00  0.1000000000D+01
 Atom C1       Shell    11 F   1     bf   25 -    31        -10.241574722772          1.297999067095          0.004855517153
      0.7610000000D+00  0.1000000000D+01
 Atom C2       Shell    12 S   6     bf   32 -    32        -10.241964121060         -1.296422368904          0.001508458804
      0.1357534968D+05  0.6064550360D-03
      0.2035233368D+04  0.4697908888D-02
      0.4632256236D+03  0.2433247765D-01
      0.1312001960D+03  0.9739996831D-01
      0.4285301589D+02  0.3019558425D+00
      0.1558418577D+02  0.6623360914D+00
 Atom C2       Shell    13 S   2     bf   33 -    33        -10.241964121060         -1.296422368904          0.001508458804
      0.6206713851D+01  0.6559530854D+00
      0.2576489653D+01  0.3758563329D+00
 Atom C2       Shell    14 S   1     bf   34 -    34        -10.241964121060         -1.296422368904          0.001508458804
      0.5769633942D+00  0.1000000000D+01
 Atom C2       Shell    15 S   1     bf   35 -    35        -10.241964121060         -1.296422368904          0.001508458804
      0.2297283136D+00  0.1000000000D+01
 Atom C2       Shell    16 S   1     bf   36 -    36        -10.241964121060         -1.296422368904          0.001508458804
      0.9516444003D-01  0.1000000000D+01
 Atom C2       Shell    17 P   4     bf   37 -    39        -10.241964121060         -1.296422368904          0.001508458804
      0.3469723224D+02  0.1132722000D-01
      0.7958262283D+01  0.7616965920D-01
      0.2378082688D+01  0.3019225220D+00
      0.8143320818D+00  0.7278502735D+00
 Atom C2       Shell    18 P   1     bf   40 -    42        -10.241964121060         -1.296422368904          0.001508458804
      0.2888754725D+00  0.1000000000D+01
 Atom C2       Shell    19 P   1     bf   43 -    45        -10.241964121060         -1.296422368904          0.001508458804
      0.1005682367D+00  0.1000000000D+01
 Atom C2       Shell    20 D   1     bf   46 -    50        -10.241964121060         -1.296422368904          0.001508458804
      0.1097000000D+01  0.1000000000D+01
 Atom C2       Shell    21 D   1     bf   51 -    55        -10.241964121060         -1.296422368904          0.001508458804
      0.3180000000D+00  0.1000000000D+01
 Atom C2       Shell    22 F   1     bf   56 -    62        -10.241964121060         -1.296422368904          0.001508458804
      0.7610000000D+00  0.1000000000D+01
 Atom C3       Shell    23 S   6     bf   63 -    63         -7.943612578613         -2.683183138574         -0.000862062648
      0.1357534968D+05  0.6064550360D-03
      0.2035233368D+04  0.4697908888D-02
      0.4632256236D+03  0.2433247765D-01
      0.1312001960D+03  0.9739996831D-01
      0.4285301589D+02  0.3019558425D+00
      0.1558418577D+02  0.6623360914D+00
 Atom C3       Shell    24 S   2     bf   64 -    64         -7.943612578613         -2.683183138574         -0.000862062648
      0.6206713851D+01  0.6559530854D+00
      0.2576489653D+01  0.3758563329D+00
 Atom C3       Shell    25 S   1     bf   65 -    65         -7.943612578613         -2.683183138574         -0.000862062648
      0.5769633942D+00  0.1000000000D+01
 Atom C3       Shell    26 S   1     bf   66 -    66         -7.943612578613         -2.683183138574         -0.000862062648
      0.2297283136D+00  0.1000000000D+01
 Atom C3       Shell    27 S   1     bf   67 -    67         -7.943612578613         -2.683183138574         -0.000862062648
      0.9516444003D-01  0.1000000000D+01
 Atom C3       Shell    28 P   4     bf   68 -    70         -7.943612578613         -2.683183138574         -0.000862062648
      0.3469723224D+02  0.1132722000D-01
      0.7958262283D+01  0.7616965920D-01
      0.2378082688D+01  0.3019225220D+00
      0.8143320818D+00  0.7278502735D+00
 Atom C3       Shell    29 P   1     bf   71 -    73         -7.943612578613         -2.683183138574         -0.000862062648
      0.2888754725D+00  0.1000000000D+01
 Atom C3       Shell    30 P   1     bf   74 -    76         -7.943612578613         -2.683183138574         -0.000862062648
      0.1005682367D+00  0.1000000000D+01
 Atom C3       Shell    31 D   1     bf   77 -    81         -7.943612578613         -2.683183138574         -0.000862062648
      0.1097000000D+01  0.1000000000D+01
 Atom C3       Shell    32 D   1     bf   82 -    86         -7.943612578613         -2.683183138574         -0.000862062648
      0.3180000000D+00  0.1000000000D+01
 Atom C3       Shell    33 F   1     bf   87 -    93         -7.943612578613         -2.683183138574         -0.000862062648
      0.7610000000D+00  0.1000000000D+01
 Atom C4       Shell    34 S   6     bf   94 -    94         -7.942927358862          2.684498873027          0.004328750831
      0.1357534968D+05  0.6064550360D-03
      0.2035233368D+04  0.4697908888D-02
      0.4632256236D+03  0.2433247765D-01
      0.1312001960D+03  0.9739996831D-01
      0.4285301589D+02  0.3019558425D+00
      0.1558418577D+02  0.6623360914D+00
 Atom C4       Shell    35 S   2     bf   95 -    95         -7.942927358862          2.684498873027          0.004328750831
      0.6206713851D+01  0.6559530854D+00
      0.2576489653D+01  0.3758563329D+00
 Atom C4       Shell    36 S   1     bf   96 -    96         -7.942927358862          2.684498873027          0.004328750831
      0.5769633942D+00  0.1000000000D+01
 Atom C4       Shell    37 S   1     bf   97 -    97         -7.942927358862          2.684498873027          0.004328750831
      0.2297283136D+00  0.1000000000D+01
 Atom C4       Shell    38 S   1     bf   98 -    98         -7.942927358862          2.684498873027          0.004328750831
      0.9516444003D-01  0.1000000000D+01
 Atom C4       Shell    39 P   4     bf   99 -   101         -7.942927358862          2.684498873027          0.004328750831
      0.3469723224D+02  0.1132722000D-01
      0.7958262283D+01  0.7616965920D-01
      0.2378082688D+01  0.3019225220D+00
      0.8143320818D+00  0.7278502735D+00
 Atom C4       Shell    40 P   1     bf  102 -   104         -7.942927358862          2.684498873027          0.004328750831
      0.2888754725D+00  0.1000000000D+01
 Atom C4       Shell    41 P   1     bf  105 -   107         -7.942927358862          2.684498873027          0.004328750831
      0.1005682367D+00  0.1000000000D+01
 Atom C4       Shell    42 D   1     bf  108 -   112         -7.942927358862          2.684498873027          0.004328750831
      0.1097000000D+01  0.1000000000D+01
 Atom C4       Shell    43 D   1     bf  113 -   117         -7.942927358862          2.684498873027          0.004328750831
      0.3180000000D+00  0.1000000000D+01
 Atom C4       Shell    44 F   1     bf  118 -   124         -7.942927358862          2.684498873027          0.004328750831
      0.7610000000D+00  0.1000000000D+01
 Atom C5       Shell    45 S   6     bf  125 -   125         -5.612512096004          1.347723491864          0.001723090437
      0.1357534968D+05  0.6064550360D-03
      0.2035233368D+04  0.4697908888D-02
      0.4632256236D+03  0.2433247765D-01
      0.1312001960D+03  0.9739996831D-01
      0.4285301589D+02  0.3019558425D+00
      0.1558418577D+02  0.6623360914D+00
 Atom C5       Shell    46 S   2     bf  126 -   126         -5.612512096004          1.347723491864          0.001723090437
      0.6206713851D+01  0.6559530854D+00
      0.2576489653D+01  0.3758563329D+00
 Atom C5       Shell    47 S   1     bf  127 -   127         -5.612512096004          1.347723491864          0.001723090437
      0.5769633942D+00  0.1000000000D+01
 Atom C5       Shell    48 S   1     bf  128 -   128         -5.612512096004          1.347723491864          0.001723090437
      0.2297283136D+00  0.1000000000D+01
 Atom C5       Shell    49 S   1     bf  129 -   129         -5.612512096004          1.347723491864          0.001723090437
      0.9516444003D-01  0.1000000000D+01
 Atom C5       Shell    50 P   4     bf  130 -   132         -5.612512096004          1.347723491864          0.001723090437
      0.3469723224D+02  0.1132722000D-01
      0.7958262283D+01  0.7616965920D-01
      0.2378082688D+01  0.3019225220D+00
      0.8143320818D+00  0.7278502735D+00
 Atom C5       Shell    51 P   1     bf  133 -   135         -5.612512096004          1.347723491864          0.001723090437
      0.2888754725D+00  0.1000000000D+01
 Atom C5       Shell    52 P   1     bf  136 -   138         -5.612512096004          1.347723491864          0.001723090437
      0.1005682367D+00  0.1000000000D+01
 Atom C5       Shell    53 D   1     bf  139 -   143         -5.612512096004          1.347723491864          0.001723090437
      0.1097000000D+01  0.1000000000D+01
 Atom C5       Shell    54 D   1     bf  144 -   148         -5.612512096004          1.347723491864          0.001723090437
      0.3180000000D+00  0.1000000000D+01
 Atom C5       Shell    55 F   1     bf  149 -   155         -5.612512096004          1.347723491864          0.001723090437
      0.7610000000D+00  0.1000000000D+01
 Atom C6       Shell    56 S   6     bf  156 -   156         -5.613053048018         -1.346931461539         -0.000451712032
      0.1357534968D+05  0.6064550360D-03
      0.2035233368D+04  0.4697908888D-02
      0.4632256236D+03  0.2433247765D-01
      0.1312001960D+03  0.9739996831D-01
[...]
 0.00000345,0.00000653,-0.00000430,0.00000063,-0.00000727,0.00000853,0.
 00000131,0.00000415,-0.00000695,0.00000488,-0.00000481,-0.00000218,-0.
 00000241,-0.00000566,0.00001236,-0.00000477,0.00000978,-0.00000295,-0.
 00000847,0.00000428,-0.00000774,0.00000021,-0.00000790,0.00000739,0.00
 001270,-0.00001385,-0.00000346,0.00000684,-0.00002328,0.00003051,0.000
 03163,-0.00004108,0.00000072,-0.00000282,0.00009937,-0.00005873,0.0000
 3897,0.00002222,0.00009595,0.00000976,-0.00000910,-0.00000796,0.000011
 03,-0.00001989,-0.00000227,0.00004858,0.00001673,-0.00035349,-0.000103
 49,0.00005481,-0.00007340,-0.00031941,-0.00041244,0.00122238,-0.002338
 00,0.00002513,0.00044537,0.00003535,-0.00008125,-0.00001271,0.00000140
 ,-0.00003631,0.00002823,-0.00002360,0.00004194,-0.00001634,-0.00000964
 ,0.00000960,-0.00000059,0.00000570,0.00001632,-0.00002960,-0.00000673,
 0.00001616,-0.00001213,0.00064620,-0.01148660,0.01919829,0.00491161,-0
 .00072674,-0.00089923,0.02598131,-0.17069463,0.14242404,0.00004568,-0.
 00031089,-0.00084284,0.00374593,0.00383064,0.00086812,0.00075119,0.006
 10740,-0.00418139,0.00000115,0.00000060,-0.00000115,0.00000096,-0.0000
 0047,-0.00000001,0.00000110,0.00000082,-0.00000074,0.00000149,0.000000
 04,-0.00000140,0.00033639,-0.00021919,0.00004398,0.00063044,0.00011292
 ,-0.00093504,0.00002200,0.00002725,-0.00001723,-0.00000067,0.00001732,
 -0.00002512,0.00000753,0.00000192,-0.00000641,0.00000182,0.00000191,-0
 .00000201,0.00000175,-0.00000136,0.00000320,0.00000066,-0.00000132,0.0
 0000161,-0.03133102,0.17508885,-0.00000325,0.00000598,-0.00000384,-0.0
 0000108,-0.00000450,0.00000737,-0.00000422,0.00001328,-0.00001159,-0.0
 0000176,-0.00000811,0.00001540,0.00000072,-0.00000528,0.00000595,0.000
 00215,0.00000331,-0.00000840,-0.00000284,0.00000806,-0.00000464,-0.000
 00668,-0.00000227,0.00000313,-0.00001042,0.00001281,-0.00000188,-0.000
 00895,0.00000265,0.00001194,-0.00002082,0.00003840,-0.00000990,-0.0000
 0948,-0.00001296,0.00003450,0.00005204,-0.00004044,0.00001837,0.000087
 07,0.00005109,-0.00008692,-0.00001915,0.00001006,0.00001747,-0.0000162
 3,0.00001026,0.00000687,-0.00035794,0.00033655,-0.00001012,-0.00014872
 ,-0.00014122,0.00033476,0.00032242,-0.00032647,-0.00006113,-0.00021594
 ,-0.00192493,0.00047691,-0.00003056,-0.00002364,0.00004197,-0.00001401
 ,0.00001299,-0.00000782,0.00001223,-0.00000565,-0.00001333,0.00000983,
 -0.00000222,-0.00001736,0.00001205,-0.00001046,-0.00000424,0.00001038,
 -0.00001546,0.00000230,0.00121335,-0.00234064,0.00411684,0.00167870,0.
 00014788,0.00165085,-0.01244853,0.14181450,-0.21386485,0.00010430,-0.0
 0071927,-0.00002646,0.00586799,0.00007880,-0.00135947,-0.00427633,0.01
 888175,-0.01486622,-0.00000108,0.00000029,0.00000274,-0.00000126,0.000
 00225,-0.00000017,-0.00000188,0.00000203,0.00000216,-0.00000174,0.0000
 0170,0.00000164,0.00008883,0.00003477,0.00003055,-0.00021902,0.0003587
 6,0.00012989,0.00001340,0.00001779,-0.00000602,0.00000335,-0.00000551,
 0.00000041,-0.00000027,-0.00000039,0.00000791,0.00000119,-0.00000207,0
 .00000358,-0.00000052,0.00000413,-0.00000176,0.00000007,0.00000201,-0.
 00000229,0.01055215,-0.15530791,0.22468054,0.00000227,-0.00000272,-0.0
 0000178,-0.00000190,0.00000363,-0.00000388,0.00000235,-0.00000477,0.00
 000405,0.00000121,0.00000162,-0.00000517,0.00000068,-0.00000202,0.0000
 0178,-0.00000268,-0.00000216,0.00000745,-0.00000226,-0.00000538,-0.000
 00964,0.00000453,0.00000510,-0.00001228,-0.00000075,-0.00000517,0.0000
 0815,0.00000465,-0.00000509,-0.00000534,-0.00000711,-0.00002043,0.0000
 4034,0.00001715,-0.00000810,-0.00000652,0.00004762,0.00008763,0.000040
 51,0.00001166,0.00005785,-0.00000602,-0.00000242,-0.00000767,0.0000016
 7,0.00000509,-0.00000790,-0.00000225,0.00007413,-0.00024925,-0.0000092
 3,-0.00002054,0.00008906,-0.00039668,-0.00066680,-0.00224441,-0.000305
 51,0.00020384,-0.00063421,0.00062368,-0.00000205,-0.00002091,0.0000073
 5,-0.00003602,-0.00004520,0.00004652,-0.00001293,0.00002200,-0.0000035
 5,-0.00000451,0.00000522,-0.00000105,0.00000196,0.00001717,-0.00002679
 ,-0.00000563,0.00000900,-0.00000802,0.00055462,0.00277247,0.00372582,0
 .00489356,-0.01163932,0.01297007,-0.00093477,-0.00000396,0.00015178,-0
 .04995005,0.02531717,-0.01181292,0.00264229,0.01362136,-0.01659262,0.0
 0226501,0.00633829,0.00338723,0.00000080,0.00000054,-0.00000086,0.0000
 0128,-0.00000024,0.00000025,0.00000102,0.00000037,-0.00000066,0.000002
 13,0.00000009,-0.00000091,-0.00012978,0.00062771,-0.00021642,-0.000024
 15,0.00012062,0.00029532,-0.00000633,0.00001352,-0.00001023,0.00001305
 ,0.00004111,-0.00000488,0.00000219,0.00000116,0.00000005,0.00000004,0.
 00000088,-0.00000015,0.00000211,0.00000343,0.00000365,0.00000093,0.000
 00083,0.00000214,-0.00055322,-0.00053600,-0.00040663,0.04398129,-0.000
 00261,0.00000557,-0.00000444,-0.00000175,-0.00000329,0.00000604,-0.000
 00412,0.00001221,-0.00000864,-0.00000105,-0.00000859,0.00001336,0.0000
 0307,-0.00000618,0.00000334,-0.00000042,0.00000452,-0.00000589,-0.0000
 0846,0.00000018,-0.00000200,-0.00000110,-0.00000330,0.00000892,-0.0000
 0861,0.00000985,0.00000109,-0.00000814,-0.00000087,0.00001235,-0.00001
 273,0.00002796,-0.00001750,-0.00001254,-0.00000346,0.00003710,0.000112
 86,-0.00004231,0.00005532,0.00004756,0.00001890,-0.00003516,-0.0000147
 2,0.00000492,0.00000863,-0.00001804,0.00001432,0.00000852,-0.00021111,
 0.00024813,-0.00015391,-0.00029906,-0.00003696,0.00034006,-0.00091116,
 -0.00009897,-0.00191679,0.00023699,0.00000504,-0.00035388,-0.00001233,
 -0.00000672,0.00001105,-0.00003904,0.00002556,-0.00003066,0.00001123,-
 0.00000530,-0.00000904,0.00000709,0.00000031,-0.00001442,0.00001116,-0
 .00001214,-0.00000210,0.00000992,-0.00001513,-0.00000060,0.00218348,0.
 00211014,-0.00003837,0.00047583,0.00480597,-0.00341040,-0.00007346,-0.
 00024508,-0.00072362,0.02566005,-0.16981386,0.14175663,0.00064881,-0.0
 1096052,0.02000242,0.00678228,0.00039274,0.00030456,-0.00000073,0.0000
 0009,0.00000221,-0.00000106,0.00000245,0.00000017,-0.00000137,0.000001
 54,0.00000160,-0.00000146,0.00000215,0.00000195,-0.00010003,0.00011651
 ,0.00035852,0.00012580,0.00006696,0.00001598,0.00000249,-0.00000150,-0
 .00000428,0.00002141,0.00000191,0.00001945,0.00000064,-0.00000057,0.00
 000408,0.00000066,-0.00000162,0.00000203,0.00000005,0.00000735,-0.0000
 0075,0.00000087,0.00000323,-0.00000216,-0.00053363,-0.00039845,-0.0001
 8678,-0.03171114,0.17559299,-0.00000194,-0.00000424,0.00000852,0.00000
 369,-0.00000354,-0.00000279,0.00000314,-0.00000748,0.00000580,-0.00000
 142,0.00000862,-0.00001002,-0.00000538,0.00001239,-0.00000778,0.000005
 00,-0.00000279,-0.00000516,-0.00000531,-0.00000747,0.00000801,-0.00000
 357,-0.00000209,0.00001094,0.00001299,-0.00000502,-0.00001628,-0.00000
 105,0.00000693,-0.00001025,0.00002951,-0.00000381,-0.00004770,-0.00000
 029,0.00002921,-0.00003350,0.00000503,0.00010018,-0.00001011,0.0000084
 5,-0.00005345,0.00011417,0.00001158,-0.00000389,-0.00002266,0.00001200
 ,-0.00000950,-0.00001041,-0.00006287,-0.00008609,0.00010462,0.00014911
 ,-0.00034996,0.00005382,-0.00218037,0.00045352,0.00062466,-0.00060143,
 0.00119497,-0.00055816,-0.00000471,0.00002629,-0.00004306,0.00003788,-
 0.00001972,-0.00008520,0.00001159,-0.00002818,0.00002150,-0.00000369,-
 0.00001109,0.00002117,-0.00001833,-0.00001279,0.00005105,-0.00000931,0
 .00000103,0.00001208,0.00455403,-0.00108548,-0.00172661,-0.00406697,0.
 01812849,-0.01528047,0.00024957,-0.00084719,-0.00010486,-0.01229504,0.
 14236619,-0.21491353,0.00165003,-0.00306070,0.00545425,0.00276288,0.00
 109383,0.00273356,0.00000093,-0.00000005,-0.00000084,0.00000139,-0.000
 00128,0.00000055,0.00000179,-0.00000150,-0.00000014,0.00000128,-0.0000
 0082,0.00000058,0.00080697,-0.00093529,0.00012560,0.00028803,0.0000251
 9,-0.00031013,0.00000528,-0.00002389,0.00002281,0.00002282,-0.00001557
 ,0.00002414,0.00000079,0.00000315,-0.00000269,0.00000017,0.00000163,-0
 .00000194,0.00000841,-0.00000677,0.00000144,0.00000209,-0.00000209,0.0
 0000202,-0.00040995,-0.00018258,-0.00022032,0.01091594,-0.15534097,0.2
 2408035,-0.00000149,0.00000436,-0.00000312,-0.00000263,-0.00000367,0.0
 0000459,-0.00000357,0.00001016,-0.00000697,-0.00000197,-0.00000626,0.0
 0001100,0.00000287,-0.00000305,0.00000354,-0.00000014,0.00000782,-0.00
 000691,0.00000056,0.00000256,0.00000663,-0.00000640,-0.00000572,0.0000
 0366,-0.00000625,0.00000918,-0.00000214,-0.00000822,0.00000379,0.00000
 921,-0.00001580,0.00001987,-0.00002740,0.00000064,0.00004983,0.0000320
 3,-0.00000729,-0.00010605,0.00007080,0.00006783,0.00002544,-0.00003275
 ,-0.00001014,0.00000607,0.00000817,-0.00001641,0.00001274,0.00000420,-
 0.00002244,0.00019352,-0.00006474,-0.00066595,-0.00007086,-0.00012323,
 -0.00004935,-0.00032440,0.00085767,-0.00018456,-0.00046095,-0.00029641
 ,-0.00002013,-0.00001192,0.00002312,-0.00002695,0.00002112,-0.00001077
 ,0.00001296,-0.00000629,-0.00000635,0.00000579,-0.00000195,-0.00001136
 ,0.00000929,-0.00000859,0.00000164,0.00000854,-0.00001514,0.00000269,-
 0.00061122,-0.00001445,-0.00052278,0.00336695,0.00710305,0.00179054,0.
 00325358,0.00223587,0.00033158,-0.00710479,0.00079231,0.01798154,-0.13
 559822,0.02802822,0.13543943,0.00449563,-0.00006361,-0.00419471,-0.000
 00068,0.00000021,0.00000229,-0.00000115,0.00000206,0.00000012,-0.00000
 138,0.00000132,0.00000174,-0.00000150,0.00000174,0.00000181,0.00013348
 ,0.00012038,0.00004616,0.00001712,0.00001311,0.00004259,0.00000200,0.0
 0000399,-0.00000632,0.00000289,-0.00001089,0.00000730,0.00000046,-0.00
 000019,0.00000415,0.00000095,-0.00000135,0.00000188,-0.00000284,0.0000
 0686,-0.00000180,0.00000005,0.00000312,-0.00000220,0.00012903,0.000069
 79,-0.00019131,-0.00235186,-0.00239648,-0.00200345,0.13610973,0.000004
 28,-0.00000781,0.00000365,0.00000118,0.00000232,-0.00000951,0.00000266
 ,-0.00001076,0.00001117,-0.00000147,0.00001014,-0.00001268,-0.00000304
 ,0.00000484,0.00000204,-0.00000087,-0.00000211,0.00000755,0.00001424,-
 0.00000569,-0.00000843,0.00000260,-0.00000070,-0.00001611,0.00000754,-
 0.00001380,0.00000573,0.00000710,0.00000198,-0.00001549,0.00000429,-0.
 00004925,0.00003985,0.00005102,0.00001175,-0.00002556,-0.00004415,0.00
 008531,-0.00011367,-0.00002146,0.00004021,0.00007938,0.00001598,-0.000
 01589,-0.00000710,0.00001606,-0.00001262,-0.00001641,0.00019858,-0.000
 25670,0.00014042,0.00001593,-0.00050486,-0.00043116,0.00015807,0.00058
 457,-0.00085490,-0.00064100,0.00008065,0.00001945,0.00000874,-0.000001
 73,-0.00003639,0.00000918,-0.00003767,0.00001374,-0.00001752,0.0000175
 8,0.00001263,-0.00001220,0.00000571,0.00001064,-0.00001639,0.00001736,
 0.00000954,-0.00001389,0.00001346,0.00000307,0.00022042,-0.00104180,-0
 .00021593,0.00682901,-0.00056983,0.00271240,0.00254173,-0.00100324,0.0
 0421668,0.01377114,0.00158991,-0.02160547,0.02761183,-0.05669969,-0.02
 173369,-0.01279648,0.00618066,0.01699189,0.00000073,0.00000027,-0.0000
 0060,0.00000092,-0.00000056,-0.00000009,0.00000095,-0.00000028,-0.0000
 0040,0.00000139,-0.00000030,-0.00000079,0.00009575,0.00007060,0.000088
 61,0.00005413,0.00001885,-0.00005039,0.00000079,0.00000095,-0.00000049
 ,-0.00000271,0.00000756,-0.00000808,0.00000194,0.00000135,-0.00000163,
 0.00000030,0.00000109,-0.00000075,0.00000348,-0.00000389,0.00000150,0.
 00000099,-0.00000113,0.00000164,-0.00055225,0.00014178,0.00089018,-0.0
 0266791,-0.00116761,-0.00117259,-0.03382000,0.05273893,-0.00000302,0.0
 0000352,0.00000061,-0.00000223,-0.00000088,0.00000225,0.00000358,-0.00
 000216,-0.00000278,0.00000426,-0.00000416,-0.00000246,0.00000353,0.000
 00206,-0.00000672,0.00000531,-0.00000790,0.00000383,-0.00000979,0.0000
 1233,0.00000637,-0.00000804,-0.00000132,0.00000729,0.00000017,0.000002
 81,-0.00000445,0.00000454,-0.00000959,0.00000536,-0.00000549,0.0000121
 5,-0.00002282,0.00003037,-0.00002346,0.00003708,-0.00001624,-0.0000036
 3,-0.00001737,0.00003319,-0.00000400,0.00001614,-0.00000576,0.00001051
 ,-0.00000528,-0.00000048,-0.00001050,0.00001164,-0.00007185,0.00014942
 ,0.00001184,-0.00024528,-0.00027685,0.00003407,0.00017919,0.00000285,-
 0.00014610,-0.00004322,-0.00030064,-0.00021628,-0.00000593,0.00000034,
 -0.00000648,0.00000603,-0.00000749,-0.00001648,0.00000944,-0.00000732,
 -0.00000206,0.00000305,-0.00000757,0.00000308,0.00001261,-0.00000433,-
 0.00001291,0.00000093,0.00000529,-0.00001101,-0.00085305,0.00020164,0.
 00031634,0.00217585,0.00222522,0.00299496,-0.00009855,0.00476042,-0.00
 131055,-0.00026994,0.00146885,0.00205047,0.13602498,-0.02247393,-0.247
 47450,0.01371095,-0.00564520,-0.01435151,0.00000155,0.00000034,-0.0000
 0246,0.00000172,-0.00000212,0.00000046,0.00000225,-0.00000104,-0.00000
 188,0.00000230,-0.00000142,-0.00000121,0.00008080,0.00004483,0.0000479
 8,-0.00001510,0.00002254,0.00004660,-0.00000182,-0.00000619,0.00001354
 ,-0.00000421,0.00000646,-0.00000323,0.00000115,0.00000216,-0.00000245,
 -0.00000044,0.00000219,-0.00000136,0.00000296,-0.00000452,0.00000267,0
 .00000081,-0.00000216,0.00000288,0.00068343,-0.00021569,-0.00083508,-0
 .00162174,-0.00165517,-0.00016353,-0.14859217,0.02221400,0.25871475,-0
 .00000291,0.00000228,-0.00000329,0.00000017,-0.00000230,0.00000328,-0.
 00000449,0.00000849,-0.00000527,-0.00000186,-0.00000412,0.00001006,0.0
 0000093,-0.00000511,0.00000937,0.00000099,0.00000437,-0.00000356,-0.00
 000556,-0.00000074,-0.00000485,0.00000289,0.00000502,-0.00000097,-0.00
 000801,0.00000626,0.00000535,-0.00000426,-0.00000035,0.00000772,0.0000
 0557,0.00003150,0.00004905,-0.00001001,-0.00001861,0.00001642,0.000065
 67,-0.00001292,0.00002502,-0.00002904,0.00004193,-0.00009863,-0.000012
 57,0.00000083,0.00001410,-0.00000795,0.00000732,0.00000253,-0.00059612
 ,-0.00026039,0.00001914,0.00003408,-0.00002510,0.00014220,-0.00025907,
 -0.00034617,-0.00032536,-0.00018719,0.00070356,-0.00034282,-0.00002285
 ,-0.00000702,0.00002154,-0.00002172,0.00001502,-0.00001194,0.00000409,
 0.00000417,-0.00000707,0.00000426,0.00000306,-0.00001529,0.00000949,-0
 .00000376,-0.00000373,0.00000517,-0.00000972,0.00000068,0.00430817,0.0
 0310454,0.00574003,-0.00039095,-0.00065114,-0.00001901,-0.00718004,0.0
 1406884,-0.00055480,0.00348734,0.00161665,0.00078672,0.00121548,0.0001
 8310,0.00128999,-0.16589590,0.14749738,0.02129903,-0.00000098,0.000000
 24,0.00000238,-0.00000111,0.00000240,-0.00000005,-0.00000163,0.0000019
 1,0.00000180,-0.00000162,0.00000192,0.00000133,0.00002225,0.00003385,0
 .00000431,0.00013687,0.00008236,0.00009361,0.00000088,0.00000526,-0.00
 001184,0.00000396,-0.00000695,0.00000559,-0.00000166,-0.00000119,0.000
 00743,0.00000076,-0.00000182,0.00000349,-0.00000010,0.00000416,-0.0000
 0097,0.00000057,0.00000180,-0.00000188,-0.00234917,-0.00267848,-0.0016
 1162,-0.00002168,0.00004411,0.00011273,-0.00089704,-0.00104159,-0.0011
 1058,0.16860590,-0.00000257,0.00000085,-0.00000079,-0.00000222,0.00000
 091,0.00000294,0.00000369,-0.00000307,-0.00000329,0.00000338,-0.000001
 78,-0.00000275,0.00000358,0.00000352,-0.00000827,0.00000436,-0.0000049
 9,0.00000270,-0.00000905,0.00000372,-0.00000161,-0.00000666,0.00000653
 ,0.00001153,0.00000294,0.00000311,-0.00000966,0.00000129,-0.00000333,0
 .00000213,0.00003032,0.00003764,-0.00002515,-0.00000303,-0.00001889,0.
 00001015,0.00003398,0.00002888,-0.00000326,-0.00001996,-0.00002886,0.0
 0000387,-0.00000249,0.00000758,-0.00001182,-0.00000258,-0.00000441,0.0
 0000976,-0.00034718,-0.00013842,-0.00030091,-0.00003015,0.00003994,0.0
 0012994,-0.00016613,-0.00031034,-0.00027496,0.00022110,-0.00013884,0.0
 0005035,0.00000492,-0.00001619,-0.00000890,-0.00000564,-0.00001005,0.0
 0000088,0.00001197,-0.00000991,-0.00000254,0.00000180,-0.00000902,0.00
 000677,0.00000747,-0.00000067,-0.00000612,0.00000053,0.00000243,-0.000
 00735,0.00337858,0.00436940,0.00190091,-0.00088599,0.00011401,0.000125
 74,0.00109001,0.00119519,0.00149480,0.00131079,0.00022358,0.00467988,0
 .01291601,-0.01103241,-0.00451496,0.14791373,-0.21568709,-0.01203452,0
 .00000138,0.00000035,-0.00000218,0.00000188,-0.00000195,0.00000048,0.0
 0000226,-0.00000099,-0.00000137,0.00000228,-0.00000155,-0.00000096,-0.
 00000717,0.00004574,0.00002077,0.00010699,0.00008836,0.00004366,-0.000
 00291,-0.00000303,0.00000716,-0.00000375,0.00001122,-0.00000686,0.0000
 0219,0.00000230,-0.00000492,0.00000032,0.00000259,-0.00000240,0.000002
 02,-0.00000159,0.00000235,0.00000015,-0.00000090,0.00000232,-0.0024070
 4,-0.00115359,-0.00165609,0.00066614,-0.00064909,-0.00016376,-0.001416
 64,-0.00021992,-0.00047068,-0.16240487,0.22326301,0.00000353,-0.000009
 41,0.00000400,0.00000317,0.00000308,-0.00000977,0.00000147,-0.00001182
 ,0.00001326,-0.00000049,0.00001058,-0.00001347,-0.00000285,0.00000718,
 -0.00000287,-0.00000355,0.00000268,0.00000498,0.00000685,-0.00001640,0
 .00000202,0.00001545,-0.00000923,-0.00000818,0.00001002,-0.00001556,0.
 00000402,0.00000541,0.00000504,-0.00001691,0.00005071,-0.00002727,0.00
 000626,-0.00000549,0.00003786,-0.00005897,-0.00004093,0.00008012,0.000
 02962,-0.00001159,-0.00010617,0.00011856,0.00001877,-0.00001773,-0.000
 01241,0.00001646,-0.00000785,-0.00001895,0.00014120,-0.00045521,-0.000
 40221,0.00014932,0.00012094,-0.00034132,-0.00057855,0.00004513,0.00024
 922,0.00033565,-0.00080741,0.00071517,0.00000474,0.00001233,-0.0000420
 6,0.00001711,-0.00003584,0.00000343,-0.00001804,0.00001133,0.00001955,
 -0.00001353,0.00000454,0.00001574,-0.00001951,0.00001383,0.00001966,-0
 .00001373,0.00001086,0.00000699,0.00535468,0.00238807,-0.00288552,0.00
 031129,-0.00029182,-0.00105973,0.01769672,-0.02157951,0.00252050,0.001
 21681,0.00413612,-0.00277114,-0.01661569,0.01812208,0.00614172,0.02071
 350,-0.01129423,-0.05818947,0.00000077,-0.00000015,-0.00000062,0.00000
 069,-0.00000045,0.00000018,0.00000131,-0.00000075,-0.00000038,0.000000
 82,-0.00000032,-0.00000036,0.00006200,-0.00005216,0.00001458,0.0000589
 8,0.00008745,0.00002684,-0.00000034,-0.00000738,0.00000936,0.00000108,
 -0.00000116,0.00000131,0.00000267,0.00000109,-0.00000470,0.00000048,0.
 00000140,-0.00000154,0.00000203,-0.00000144,0.00000106,0.00000044,-0.0
 0000062,0.00000102,-0.00199334,-0.00117351,-0.00018023,-0.00076200,0.0
 0094211,0.00010650,-0.00058318,-0.00113746,0.00029075,-0.02554133,0.01
 101703,0.05569451\\0.00000013,-0.00000021,0.00000010,0.00000007,0.0000
 0007,-0.00000023,-0.00000004,-0.00000007,0.00000018,-0.00000008,0.0000
 0015,-0.00000011,0.00000006,0.00000009,-0.00000026,0.00000013,-0.00000
 024,0.00000013,0.00000020,-0.00000021,-0.00000003,0.00000017,-0.000000
 06,-0.00000024,0.00000008,-0.00000009,0.00000003,0.00000004,0.,-0.0000
 0010,0.00000011,0.,-0.00000021,0.00000014,-0.00000021,-0.00000001,-0.0
 0000016,-0.00000012,0.00000042,-0.00000020,0.00000037,-0.00000018,0.00
 000005,0.00000008,-0.00000020,0.00000010,-0.00000016,0.00000011,0.0000
 0003,-0.00000025,0.00000028,-0.00000004,0.00000022,-0.00000033,-0.0000
 0040,0.00000013,0.00000047,-0.00000042,0.00000044,0.00000012,-0.000000
 05,0.00000014,-0.00000018,0.00000005,-0.00000011,0.00000018,-0.0000000
 3,0.00000001,0.00000002,-0.00000010,0.00000009,0.00000004,-0.00000002,
 -0.00000002,-0.00000001,-0.00000009,0.00000003,0.00000008,0.00000014,-
 0.00000004,-0.00000017,0.00000013,-0.00000012,-0.00000005,-0.00000005,
 -0.00000008,0.00000013,-0.00000006,0.00000014,-0.00000007,0.00000007,-
 0.00000001,-0.00000002,0.00000001,-0.00000005,-0.00000005,-0.00000007,
 0.00000006,0.00000002,-0.00000006,0.00000003,0.00000007,-0.00000003,-0
 .00000002,0.00000006,-0.00000003,0.00000007,-0.00000002,0.00000006,-0.
 00000003,-0.00000004,0.00000005,-0.00000007,-0.00000004,0.,0.00000005,
 0.00000009,-0.00000005,0.00000005,0.00000002,0.00000003,-0.00000010,0.
 00000010,0.,-0.00000007,0.00000010,0.,0.00000010,-0.00000010,-0.000000
 01,0.00000010,-0.00000007,0.00000004,-0.00000004,0.00000003,0.00000001
 ,0.,-0.00000005,0.00000001,-0.00000002,-0.00000003,0.00000004,-0.00000
 002,0.\\\@


 CHRISTMAS IS ON TOP OF A STEEP HILL.
 THE CLOSER YOU GET, THE STEEPER THE HILL IS.
          -- LINUS, OF PEANUTS
 Job cpu time:       6 days 11 hours 10 minutes 41.8 seconds.
 File lengths (MBytes):  RWF=   4419 Int=      0 D2E=      0 Chk=     85 Scr=      1
 Normal termination of Gaussian 09 at Tue Jul 30 01:13:07 2019.
