 Entering Gaussian System, Link 0=g09
 Initial command:
 /home/minenky/programs//g09/l1.exe "/local/scratch/minenky/m1_00_100-42-50_C8H8_wB97XD/Gau-105410.inp" -scrdir="/local/scratch/minenky/m1_00_100-42-50_C8H8_wB97XD/"
 Entering Link 1 = /home/minenky/programs//g09/l1.exe PID=    105411.
  
 Copyright (c) 1988,1990,1992,1993,1995,1998,2003,2009,2013,
            Gaussian, Inc.  All Rights Reserved.
  
 This is part of the Gaussian(R) 09 program.  It is based on
 the Gaussian(R) 03 system (copyright 2003, Gaussian, Inc.),
 the Gaussian(R) 98 system (copyright 1998, Gaussian, Inc.),
 the Gaussian(R) 94 system (copyright 1995, Gaussian, Inc.),
 the Gaussian 92(TM) system (copyright 1992, Gaussian, Inc.),
 the Gaussian 90(TM) system (copyright 1990, Gaussian, Inc.),
 the Gaussian 88(TM) system (copyright 1988, Gaussian, Inc.),
 the Gaussian 86(TM) system (copyright 1986, Carnegie Mellon
 University), and the Gaussian 82(TM) system (copyright 1983,
 Carnegie Mellon University). Gaussian is a federally registered
 trademark of Gaussian, Inc.
  
 This software contains proprietary and confidential information,
 including trade secrets, belonging to Gaussian, Inc.
  
 This software is provided under written license and may be
 used, copied, transmitted, or stored only in accord with that
 written license.
  
 The following legend is applicable only to US Government
 contracts under FAR:
  
                    RESTRICTED RIGHTS LEGEND
  
 Use, reproduction and disclosure by the US Government is
 subject to restrictions as set forth in subparagraphs (a)
 and (c) of the Commercial Computer Software - Restricted
 Rights clause in FAR 52.227-19.
  
 Gaussian, Inc.
 340 Quinnipiac St., Bldg. 40, Wallingford CT 06492
  
  
 ---------------------------------------------------------------
 Warning -- This program may not be used in any manner that
 competes with the business of Gaussian, Inc. or will provide
 assistance to any competitor of Gaussian, Inc.  The licensee
 of this program is prohibited from giving any competitor of
 Gaussian, Inc. access to this program.  By using this program,
 the user acknowledges that Gaussian, Inc. is engaged in the
 business of creating and licensing software in the field of
 computational chemistry and represents and warrants to the
 licensee that it is not a competitor of Gaussian, Inc. and that
 it will not use this program in any manner prohibited above.
 ---------------------------------------------------------------
  

 Cite this work as:
 Gaussian 09, Revision D.01,
 M. J. Frisch, G. W. Trucks, H. B. Schlegel, G. E. Scuseria, 
 M. A. Robb, J. R. Cheeseman, G. Scalmani, V. Barone, B. Mennucci, 
 G. A. Petersson, H. Nakatsuji, M. Caricato, X. Li, H. P. Hratchian, 
 A. F. Izmaylov, J. Bloino, G. Zheng, J. L. Sonnenberg, M. Hada, 
 M. Ehara, K. Toyota, R. Fukuda, J. Hasegawa, M. Ishida, T. Nakajima, 
 Y. Honda, O. Kitao, H. Nakai, T. Vreven, J. A. Montgomery, Jr., 
 J. E. Peralta, F. Ogliaro, M. Bearpark, J. J. Heyd, E. Brothers, 
 K. N. Kudin, V. N. Staroverov, T. Keith, R. Kobayashi, J. Normand, 
 K. Raghavachari, A. Rendell, J. C. Burant, S. S. Iyengar, J. Tomasi, 
 M. Cossi, N. Rega, J. M. Millam, M. Klene, J. E. Knox, J. B. Cross, 
 V. Bakken, C. Adamo, J. Jaramillo, R. Gomperts, R. E. Stratmann, 
 O. Yazyev, A. J. Austin, R. Cammi, C. Pomelli, J. W. Ochterski, 
 R. L. Martin, K. Morokuma, V. G. Zakrzewski, G. A. Voth, 
 P. Salvador, J. J. Dannenberg, S. Dapprich, A. D. Daniels, 
 O. Farkas, J. B. Foresman, J. V. Ortiz, J. Cioslowski, 
 and D. J. Fox, Gaussian, Inc., Wallingford CT, 2013.
 
 ******************************************
 Gaussian 09:  AM64L-G09RevD.01 24-Apr-2013
                10-Jul-2021 
 ******************************************
 %Mem=32000MB
 %NProcShared=16
 Will use up to   16 processors via shared memory.
 %Chk=m1_00_100-42-50_C8H8_wB97XD
 ----------------------------------------------------------------------
 #P wB97XD/def2tzvp geom=checkpoint opt=(verytight, readfc) freq integr
 al(Grid=ultrafine) # SCF(MaxCycle=380) 5d 7f GFPrint
 ----------------------------------------------------------------------
 1/7=1,10=3,14=-1,18=20,19=15,26=4,29=2,38=1/1,3;
 2/9=110,12=2,40=1/2;
 3/5=44,7=101,8=11,11=2,14=-4,16=1,24=100,25=1,30=1,71=1,74=-58,75=-5/1,2,3;
 4//1;
 5/5=2,7=380,38=5/2;
 6/7=2,8=2,9=2,10=2,28=1/1;
 7//1,2,3,16;
 1/7=1,14=-1,18=20,19=15,26=4/3(2);
 2/9=110/2;
 99//99;
 2/9=110/2;
 3/5=44,7=101,8=11,11=2,14=-2,16=1,25=1,30=1,71=1,74=-58,75=-5/1,2,3;
 4/5=5,16=3,69=1/1;
 5/5=2,7=380,38=5/2;
 7//1,2,3,16;
 1/7=1,14=-1,18=20,19=15,26=4/3(-5);
 2/9=110/2;
 6/7=2,8=2,9=2,10=2,19=2,28=1/1;
 99/9=1/99;
 Leave Link    1 at Sat Jul 10 20:09:59 2021, MaxMem=  4194304000 cpu:         3.2
 (Enter /home/minenky/programs//g09/l101.exe)
 ---------------------------------------
 The PBEPBE optimization and frequencies
 ---------------------------------------
 Structure from the checkpoint file:  "m1_00_100-42-50_C8H8_wB97XD.chk"
 Charge =  0 Multiplicity = 1
 No Z-Matrix found in file; cartesian coordinates used.
  C                                                 0.000000000000      0.554679877554      0.000000000000
  C                                                -0.998014308624     -0.421531632091      0.000000000000
  C                                                 1.329164208659      0.134790077021      0.000000000000
  C                                                -0.674434870652     -1.765825122450      0.000000000000
  C                                                 1.656701908027     -1.212016201788      0.000000000000
  C                                                 0.654861251302     -2.168252536013      0.000000000000
  H                                                -2.040568727338     -0.130067449311      0.000000000000
  H                                                 2.117943976299      0.878417719432      0.000000000000
  H                                                -1.463759516188     -2.507127327898      0.000000000000
  H                                                 2.696665390460     -1.513323893994      0.000000000000
  H                                                 0.904992575505     -3.221510177617      0.000000000000
  C                                                -0.289365893546      1.997474514593      0.000000000000
  C                                                -1.482978586808      2.578419129210      0.000000000000
  H                                                 0.590358671866      2.634988241601      0.000000000000
  H                                                -1.572729655520      3.656593180224      0.000000000000
  H                                                -2.408504973707      2.015601109449      0.000000000000
 Recover connectivity data from disk.
 NAtoms=     16 NQM=       16 NQMF=       0 NMMI=      0 NMMIF=      0
                NMic=       0 NMicF=      0.
                    Isotopes and Nuclear Properties:
 (Nuclear quadrupole moments (NQMom) in fm**2, nuclear magnetic moments (NMagM)
  in nuclear magnetons)

  Atom         1           2           3           4           5           6           7           8           9          10
 IAtWgt=          12          12          12          12          12          12           1           1           1           1
 AtmWgt=  12.0000000  12.0000000  12.0000000  12.0000000  12.0000000  12.0000000   1.0078250   1.0078250   1.0078250   1.0078250
 NucSpn=           0           0           0           0           0           0           1           1           1           1
 AtZEff=  -3.6000000  -3.6000000  -3.6000000  -3.6000000  -3.6000000  -3.6000000  -1.0000000  -1.0000000  -1.0000000  -1.0000000
 NQMom=    0.0000000   0.0000000   0.0000000   0.0000000   0.0000000   0.0000000   0.0000000   0.0000000   0.0000000   0.0000000
 NMagM=    0.0000000   0.0000000   0.0000000   0.0000000   0.0000000   0.0000000   2.7928460   2.7928460   2.7928460   2.7928460
 AtZNuc=   6.0000000   6.0000000   6.0000000   6.0000000   6.0000000   6.0000000   1.0000000   1.0000000   1.0000000   1.0000000

  Atom        11          12          13          14          15          16
 IAtWgt=           1          12          12           1           1           1
 AtmWgt=   1.0078250  12.0000000  12.0000000   1.0078250   1.0078250   1.0078250
 NucSpn=           1           0           0           1           1           1
 AtZEff=  -1.0000000  -3.6000000  -3.6000000  -1.0000000  -1.0000000  -1.0000000
 NQMom=    0.0000000   0.0000000   0.0000000   0.0000000   0.0000000   0.0000000
 NMagM=    2.7928460   0.0000000   0.0000000   2.7928460   2.7928460   2.7928460
 AtZNuc=   1.0000000   6.0000000   6.0000000   1.0000000   1.0000000   1.0000000
 Leave Link  101 at Sat Jul 10 20:10:00 2021, MaxMem=  4194304000 cpu:         1.3
 (Enter /home/minenky/programs//g09/l103.exe)

 GradGradGradGradGradGradGradGradGradGradGradGradGradGradGradGradGradGrad
 Berny optimization.
 Initialization pass.
 No redundant coordinates on chk file, so ReadFC converted to ReadCartesianFC.
 Cartesian force constants read from checkpoint file:
 "m1_00_100-42-50_C8H8_wB97XD.chk"
 FormGI is forming the generalized inverse of G from B-inverse, IUseBI=4.
                           ----------------------------
                           !    Initial Parameters    !
                           ! (Angstroms and Degrees)  !
 --------------------------                            --------------------------
 ! Name  Definition              Value          Derivative Info.                !
 --------------------------------------------------------------------------------
 ! R1    R(1,2)                  1.3961         D2E/DX2 =    0.3873             !
 ! R2    R(1,3)                  1.3939         D2E/DX2 =    0.3969             !
 ! R3    R(1,12)                 1.4715         D2E/DX2 =    0.3373             !
 ! R4    R(2,4)                  1.3827         D2E/DX2 =    0.4128             !
 ! R5    R(2,7)                  1.0825         D2E/DX2 =    0.363              !
 ! R6    R(3,5)                  1.3861         D2E/DX2 =    0.4055             !
 ! R7    R(3,8)                  1.084          D2E/DX2 =    0.3593             !
 ! R8    R(4,6)                  1.3889         D2E/DX2 =    0.4012             !
 ! R9    R(4,9)                  1.0828         D2E/DX2 =    0.362              !
 ! R10   R(5,6)                  1.3849         D2E/DX2 =    0.41               !
 ! R11   R(5,10)                 1.0827         D2E/DX2 =    0.3622             !
 ! R12   R(6,11)                 1.0826         D2E/DX2 =    0.3627             !
 ! R13   R(12,13)                1.3275         D2E/DX2 =    0.6309             !
 ! R14   R(12,14)                1.0864         D2E/DX2 =    0.353              !
 ! R15   R(13,15)                1.0819         D2E/DX2 =    0.3649             !
 ! R16   R(13,16)                1.0832         D2E/DX2 =    0.3623             !
 ! A1    A(2,1,3)              118.1011         D2E/DX2 =    0.0887             !
 ! A2    A(2,1,12)             123.0265         D2E/DX2 =    0.1395             !
 ! A3    A(3,1,12)             118.8723         D2E/DX2 =    0.1385             !
 ! A4    A(1,2,4)              120.8333         D2E/DX2 =    0.0844             !
 ! A5    A(1,2,7)              120.0135         D2E/DX2 =    0.0832             !
 ! A6    A(4,2,7)              119.1532         D2E/DX2 =    0.0846             !
 ! A7    A(1,3,5)              121.2003         D2E/DX2 =    0.0852             !
 ! A8    A(1,3,8)              119.1561         D2E/DX2 =    0.0848             !
 ! A9    A(5,3,8)              119.6435         D2E/DX2 =    0.0847             !
 ! A10   A(2,4,6)              120.377          D2E/DX2 =    0.0833             !
 ! A11   A(2,4,9)              119.669          D2E/DX2 =    0.083              !
 ! A12   A(6,4,9)              119.954          D2E/DX2 =    0.0829             !
 ! A13   A(3,5,6)              119.9971         D2E/DX2 =    0.0831             !
 ! A14   A(3,5,10)             119.8266         D2E/DX2 =    0.0826             !
 ! A15   A(6,5,10)             120.1764         D2E/DX2 =    0.0826             !
 ! A16   A(4,6,5)              119.4912         D2E/DX2 =    0.0829             !
 ! A17   A(4,6,11)             120.2023         D2E/DX2 =    0.0822             !
 ! A18   A(5,6,11)             120.3065         D2E/DX2 =    0.0822             !
 ! A19   A(1,12,13)            127.2934         D2E/DX2 =    0.1364             !
 ! A20   A(1,12,14)            114.5891         D2E/DX2 =    0.1014             !
 ! A21   A(13,12,14)           118.1174         D2E/DX2 =    0.1005             !
 ! A22   A(12,13,15)           120.7112         D2E/DX2 =    0.0817             !
 ! A23   A(12,13,16)           122.7433         D2E/DX2 =    0.0818             !
 ! A24   A(15,13,16)           116.5455         D2E/DX2 =    0.0725             !
 ! D1    D(3,1,2,4)              0.0            D2E/DX2 =    0.0076             !
 ! D2    D(3,1,2,7)            180.0            D2E/DX2 =    0.0072             !
 ! D3    D(12,1,2,4)           180.0            D2E/DX2 =    0.0073             !
 ! D4    D(12,1,2,7)             0.0            D2E/DX2 =    0.0077             !
 ! D5    D(2,1,3,5)              0.0            D2E/DX2 =    0.0077             !
 ! D6    D(2,1,3,8)            180.0            D2E/DX2 =    0.0074             !
 ! D7    D(12,1,3,5)           180.0            D2E/DX2 =    0.0071             !
 ! D8    D(12,1,3,8)             0.0            D2E/DX2 =    0.0078             !
 ! D9    D(2,1,12,13)            0.0            D2E/DX2 =    0.0044             !
 ! D10   D(2,1,12,14)          180.0            D2E/DX2 =    0.0054             !
 ! D11   D(3,1,12,13)          180.0            D2E/DX2 =    0.0045             !
 ! D12   D(3,1,12,14)            0.0            D2E/DX2 =    0.0057             !
 ! D13   D(1,2,4,6)              0.0            D2E/DX2 =    0.0091             !
 ! D14   D(1,2,4,9)            180.0            D2E/DX2 =    0.0086             !
 ! D15   D(7,2,4,6)            180.0            D2E/DX2 =    0.0083             !
 ! D16   D(7,2,4,9)              0.0            D2E/DX2 =    0.009              !
 ! D17   D(1,3,5,6)              0.0            D2E/DX2 =    0.0092             !
 ! D18   D(1,3,5,10)           180.0            D2E/DX2 =    0.0085             !
 ! D19   D(8,3,5,6)            180.0            D2E/DX2 =    0.0085             !
 ! D20   D(8,3,5,10)             0.0            D2E/DX2 =    0.009              !
 ! D21   D(2,4,6,5)              0.0            D2E/DX2 =    0.0093             !
 ! D22   D(2,4,6,11)           180.0            D2E/DX2 =    0.0085             !
 ! D23   D(9,4,6,5)            180.0            D2E/DX2 =    0.0084             !
 ! D24   D(9,4,6,11)             0.0            D2E/DX2 =    0.009              !
 ! D25   D(3,5,6,4)              0.0            D2E/DX2 =    0.0092             !
 ! D26   D(3,5,6,11)           180.0            D2E/DX2 =    0.0086             !
 ! D27   D(10,5,6,4)           180.0            D2E/DX2 =    0.0085             !
 ! D28   D(10,5,6,11)            0.0            D2E/DX2 =    0.009              !
 ! D29   D(1,12,13,15)         180.0            D2E/DX2 =    0.0224             !
 ! D30   D(1,12,13,16)           0.0            D2E/DX2 =    0.0186             !
 ! D31   D(14,12,13,15)          0.0            D2E/DX2 =    0.0197             !
 ! D32   D(14,12,13,16)        180.0            D2E/DX2 =    0.0214             !
 --------------------------------------------------------------------------------
 Trust Radius=3.00D-01 FncErr=1.00D-07 GrdErr=1.00D-06
 Number of steps in this run=     82 maximum allowed number of steps=    100.
 GradGradGradGradGradGradGradGradGradGradGradGradGradGradGradGradGradGrad

 Leave Link  103 at Sat Jul 10 20:10:00 2021, MaxMem=  4194304000 cpu:         4.9
 (Enter /home/minenky/programs//g09/l202.exe)
                          Input orientation:                          
 ---------------------------------------------------------------------
 Center     Atomic      Atomic             Coordinates (Angstroms)
 Number     Number       Type             X           Y           Z
 ---------------------------------------------------------------------
      1          6           0        0.000000    0.554680    0.000000
      2          6           0       -0.998014   -0.421532    0.000000
      3          6           0        1.329164    0.134790    0.000000
      4          6           0       -0.674435   -1.765825    0.000000
      5          6           0        1.656702   -1.212016    0.000000
      6          6           0        0.654861   -2.168253    0.000000
      7          1           0       -2.040569   -0.130067    0.000000
      8          1           0        2.117944    0.878418    0.000000
      9          1           0       -1.463760   -2.507127    0.000000
     10          1           0        2.696665   -1.513324    0.000000
     11          1           0        0.904993   -3.221510    0.000000
     12          6           0       -0.289366    1.997475    0.000000
     13          6           0       -1.482979    2.578419    0.000000
     14          1           0        0.590359    2.634988    0.000000
     15          1           0       -1.572730    3.656593    0.000000
     16          1           0       -2.408505    2.015601    0.000000
 ---------------------------------------------------------------------
                    Distance matrix (angstroms):
                    1          2          3          4          5
     1  C    0.000000
     2  C    1.396074   0.000000
     3  C    1.393910   2.392750   0.000000
     4  C    2.416528   1.382689   2.761657   0.000000
     5  C    2.421957   2.769907   1.386062   2.396018   0.000000
     6  C    2.800572   2.404793   2.399727   1.388876   1.384945
     7  H    2.152394   1.082530   3.380126   2.131203   3.852327
     8  H    2.142544   3.376250   1.084046   3.845699   2.140714
     9  H    3.393708   2.136967   3.844496   1.082849   3.378549
    10  H    3.398330   3.852618   2.141574   3.380543   1.082733
    11  H    3.883120   3.385456   3.382998   2.147932   2.145491
    12  C    1.471526   2.520669   2.467637   3.782949   3.753400
    13  C    2.508933   3.038897   3.725516   4.418846   4.921889
    14  H    2.162454   3.444596   2.607072   4.578959   3.992059
    15  H    3.477836   4.118422   4.563341   5.496322   5.842310
    16  H    2.816946   2.815866   4.184211   4.160070   5.190705
                    6          7          8          9         10
     6  C    0.000000
     7  H    3.379281   0.000000
     8  H    3.379765   4.279050   0.000000
     9  H    2.145551   2.446042   4.928541   0.000000
    10  H    2.144270   4.935057   2.460761   4.277474   0.000000
    11  H    1.082551   4.270053   4.275589   2.474132   2.475478
    12  C    4.271399   2.755566   2.654699   4.655173   4.608914
    13  C    5.205886   2.765286   3.982041   5.085583   5.849084
    14  H    4.803674   3.816715   2.327887   5.537215   4.652421
    15  H    6.236264   3.815452   4.619451   6.164684   6.704907
    16  H    5.185445   2.176987   4.667111   4.620348   6.206132
                   11         12         13         14         15
    11  H    0.000000
    12  C    5.353904   0.000000
    13  C    6.272287   1.327482   0.000000
    14  H    5.864944   1.086434   2.074109   0.000000
    15  H    7.310774   2.097546   1.081903   2.392201   0.000000
    16  H    6.197306   2.119217   1.083219   3.062160   1.841569
                   16
    16  H    0.000000
 Stoichiometry    C8H8
 Framework group  CS[SG(C8H8)]
 Deg. of freedom    29
 Full point group                 CS      NOp   2
 Largest Abelian subgroup         CS      NOp   2
 Largest concise Abelian subgroup C1      NOp   1
                         Standard orientation:                         
 ---------------------------------------------------------------------
 Center     Atomic      Atomic             Coordinates (Angstroms)
 Number     Number       Type             X           Y           Z
 ---------------------------------------------------------------------
      1          6           0        0.000000    0.554680    0.000000
      2          6           0       -0.998014   -0.421532    0.000000
      3          6           0        1.329164    0.134790    0.000000
      4          6           0       -0.674435   -1.765825    0.000000
      5          6           0        1.656702   -1.212016    0.000000
      6          6           0        0.654861   -2.168253    0.000000
      7          1           0       -2.040569   -0.130067    0.000000
      8          1           0        2.117944    0.878418    0.000000
      9          1           0       -1.463760   -2.507127    0.000000
     10          1           0        2.696665   -1.513324    0.000000
     11          1           0        0.904993   -3.221510    0.000000
     12          6           0       -0.289366    1.997475    0.000000
     13          6           0       -1.482979    2.578419    0.000000
     14          1           0        0.590359    2.634988    0.000000
     15          1           0       -1.572730    3.656593    0.000000
     16          1           0       -2.408505    2.015601    0.000000
 ---------------------------------------------------------------------
 Rotational constants (GHZ):      5.2457247      1.5547727      1.1993107
 Leave Link  202 at Sat Jul 10 20:10:01 2021, MaxMem=  4194304000 cpu:         0.7
 (Enter /home/minenky/programs//g09/l301.exe)
 Standard basis: def2TZVP (5D, 7F)
 ======================================================================================================
                                       Pseudopotential Parameters
 ======================================================================================================
  Center     Atomic      Valence      Angular      Power
  Number     Number     Electrons     Momentum     of R      Exponent        Coefficient   SO-Coeffient
 ======================================================================================================
    1          6
                                   No pseudopotential on this center.
    2          6
                                   No pseudopotential on this center.
    3          6
                                   No pseudopotential on this center.
    4          6
                                   No pseudopotential on this center.
    5          6
                                   No pseudopotential on this center.
    6          6
                                   No pseudopotential on this center.
    7          1
                                   No pseudopotential on this center.
    8          1
                                   No pseudopotential on this center.
    9          1
                                   No pseudopotential on this center.
   10          1
                                   No pseudopotential on this center.
   11          1
                                   No pseudopotential on this center.
   12          6
                                   No pseudopotential on this center.
   13          6
                                   No pseudopotential on this center.
   14          1
                                   No pseudopotential on this center.
   15          1
                                   No pseudopotential on this center.
   16          1
                                   No pseudopotential on this center.
 ======================================================================================================
 Ernie: Thresh=  0.10000D-02 Tol=  0.10000D-05 Strict=F.
 AO basis set (Overlap normalization):
 Atom C1       Shell     1 S   6     bf    1 -     1          0.000000000000          1.048193058714          0.000000000000
      0.1357534968D+05  0.6064550360D-03
      0.2035233368D+04  0.4697908888D-02
      0.4632256236D+03  0.2433247765D-01
      0.1312001960D+03  0.9739996831D-01
      0.4285301589D+02  0.3019558425D+00
      0.1558418577D+02  0.6623360914D+00
 Atom C1       Shell     2 S   2     bf    2 -     2          0.000000000000          1.048193058714          0.000000000000
      0.6206713851D+01  0.6559530854D+00
      0.2576489653D+01  0.3758563329D+00
 Atom C1       Shell     3 S   1     bf    3 -     3          0.000000000000          1.048193058714          0.000000000000
      0.5769633942D+00  0.1000000000D+01
 Atom C1       Shell     4 S   1     bf    4 -     4          0.000000000000          1.048193058714          0.000000000000
      0.2297283136D+00  0.1000000000D+01
 Atom C1       Shell     5 S   1     bf    5 -     5          0.000000000000          1.048193058714          0.000000000000
      0.9516444003D-01  0.1000000000D+01
 Atom C1       Shell     6 P   4     bf    6 -     8          0.000000000000          1.048193058714          0.000000000000
      0.3469723224D+02  0.1132722000D-01
      0.7958262283D+01  0.7616965920D-01
      0.2378082688D+01  0.3019225220D+00
      0.8143320818D+00  0.7278502735D+00
 Atom C1       Shell     7 P   1     bf    9 -    11          0.000000000000          1.048193058714          0.000000000000
      0.2888754725D+00  0.1000000000D+01
 Atom C1       Shell     8 P   1     bf   12 -    14          0.000000000000          1.048193058714          0.000000000000
      0.1005682367D+00  0.1000000000D+01
 Atom C1       Shell     9 D   1     bf   15 -    19          0.000000000000          1.048193058714          0.000000000000
      0.1097000000D+01  0.1000000000D+01
 Atom C1       Shell    10 D   1     bf   20 -    24          0.000000000000          1.048193058714          0.000000000000
      0.3180000000D+00  0.1000000000D+01
 Atom C1       Shell    11 F   1     bf   25 -    31          0.000000000000          1.048193058714          0.000000000000
      0.7610000000D+00  0.1000000000D+01
 Atom C2       Shell    12 S   6     bf   32 -    32         -1.885973719497         -0.796579342800          0.000000000000
      0.1357534968D+05  0.6064550360D-03
      0.2035233368D+04  0.4697908888D-02
      0.4632256236D+03  0.2433247765D-01
      0.1312001960D+03  0.9739996831D-01
      0.4285301589D+02  0.3019558425D+00
      0.1558418577D+02  0.6623360914D+00
 Atom C2       Shell    13 S   2     bf   33 -    33         -1.885973719497         -0.796579342800          0.000000000000
      0.6206713851D+01  0.6559530854D+00
      0.2576489653D+01  0.3758563329D+00
 Atom C2       Shell    14 S   1     bf   34 -    34         -1.885973719497         -0.796579342800          0.000000000000
      0.5769633942D+00  0.1000000000D+01
 Atom C2       Shell    15 S   1     bf   35 -    35         -1.885973719497         -0.796579342800          0.000000000000
      0.2297283136D+00  0.1000000000D+01
 Atom C2       Shell    16 S   1     bf   36 -    36         -1.885973719497         -0.796579342800          0.000000000000
      0.9516444003D-01  0.1000000000D+01
 Atom C2       Shell    17 P   4     bf   37 -    39         -1.885973719497         -0.796579342800          0.000000000000
      0.3469723224D+02  0.1132722000D-01
      0.7958262283D+01  0.7616965920D-01
      0.2378082688D+01  0.3019225220D+00
      0.8143320818D+00  0.7278502735D+00
 Atom C2       Shell    18 P   1     bf   40 -    42         -1.885973719497         -0.796579342800          0.000000000000
      0.2888754725D+00  0.1000000000D+01
 Atom C2       Shell    19 P   1     bf   43 -    45         -1.885973719497         -0.796579342800          0.000000000000
      0.1005682367D+00  0.1000000000D+01
 Atom C2       Shell    20 D   1     bf   46 -    50         -1.885973719497         -0.796579342800          0.000000000000
      0.1097000000D+01  0.1000000000D+01
 Atom C2       Shell    21 D   1     bf   51 -    55         -1.885973719497         -0.796579342800          0.000000000000
      0.3180000000D+00  0.1000000000D+01
 Atom C2       Shell    22 F   1     bf   56 -    62         -1.885973719497         -0.796579342800          0.000000000000
      0.7610000000D+00  0.1000000000D+01
 Atom C3       Shell    23 S   6     bf   63 -    63          2.511756340216          0.254716330399          0.000000000000
      0.1357534968D+05  0.6064550360D-03
      0.2035233368D+04  0.4697908888D-02
      0.4632256236D+03  0.2433247765D-01
      0.1312001960D+03  0.9739996831D-01
      0.4285301589D+02  0.3019558425D+00
      0.1558418577D+02  0.6623360914D+00
 Atom C3       Shell    24 S   2     bf   64 -    64          2.511756340216          0.254716330399          0.000000000000
      0.6206713851D+01  0.6559530854D+00
      0.2576489653D+01  0.3758563329D+00
 Atom C3       Shell    25 S   1     bf   65 -    65          2.511756340216          0.254716330399          0.000000000000
      0.5769633942D+00  0.1000000000D+01
 Atom C3       Shell    26 S   1     bf   66 -    66          2.511756340216          0.254716330399          0.000000000000
      0.2297283136D+00  0.1000000000D+01
 Atom C3       Shell    27 S   1     bf   67 -    67          2.511756340216          0.254716330399          0.000000000000
      0.9516444003D-01  0.1000000000D+01
 Atom C3       Shell    28 P   4     bf   68 -    70          2.511756340216          0.254716330399          0.000000000000
      0.3469723224D+02  0.1132722000D-01
      0.7958262283D+01  0.7616965920D-01
      0.2378082688D+01  0.3019225220D+00
      0.8143320818D+00  0.7278502735D+00
 Atom C3       Shell    29 P   1     bf   71 -    73          2.511756340216          0.254716330399          0.000000000000
      0.2888754725D+00  0.1000000000D+01
 Atom C3       Shell    30 P   1     bf   74 -    76          2.511756340216          0.254716330399          0.000000000000
      0.1005682367D+00  0.1000000000D+01
 Atom C3       Shell    31 D   1     bf   77 -    81          2.511756340216          0.254716330399          0.000000000000
      0.1097000000D+01  0.1000000000D+01
 Atom C3       Shell    32 D   1     bf   82 -    86          2.511756340216          0.254716330399          0.000000000000
      0.3180000000D+00  0.1000000000D+01
 Atom C3       Shell    33 F   1     bf   87 -    93          2.511756340216          0.254716330399          0.000000000000
      0.7610000000D+00  0.1000000000D+01
 Atom C4       Shell    34 S   6     bf   94 -    94         -1.274497198805         -3.336925881633          0.000000000000
      0.1357534968D+05  0.6064550360D-03
      0.2035233368D+04  0.4697908888D-02
      0.4632256236D+03  0.2433247765D-01
      0.1312001960D+03  0.9739996831D-01
      0.4285301589D+02  0.3019558425D+00
      0.1558418577D+02  0.6623360914D+00
 Atom C4       Shell    35 S   2     bf   95 -    95         -1.274497198805         -3.336925881633          0.000000000000
      0.6206713851D+01  0.6559530854D+00
      0.2576489653D+01  0.3758563329D+00
 Atom C4       Shell    36 S   1     bf   96 -    96         -1.274497198805         -3.336925881633          0.000000000000
      0.5769633942D+00  0.1000000000D+01
 Atom C4       Shell    37 S   1     bf   97 -    97         -1.274497198805         -3.336925881633          0.000000000000
      0.2297283136D+00  0.1000000000D+01
 Atom C4       Shell    38 S   1     bf   98 -    98         -1.274497198805         -3.336925881633          0.000000000000
      0.9516444003D-01  0.1000000000D+01
 Atom C4       Shell    39 P   4     bf   99 -   101         -1.274497198805         -3.336925881633          0.000000000000
      0.3469723224D+02  0.1132722000D-01
      0.7958262283D+01  0.7616965920D-01
      0.2378082688D+01  0.3019225220D+00
      0.8143320818D+00  0.7278502735D+00
 Atom C4       Shell    40 P   1     bf  102 -   104         -1.274497198805         -3.336925881633          0.000000000000
      0.2888754725D+00  0.1000000000D+01
 Atom C4       Shell    41 P   1     bf  105 -   107         -1.274497198805         -3.336925881633          0.000000000000
      0.1005682367D+00  0.1000000000D+01
 Atom C4       Shell    42 D   1     bf  108 -   112         -1.274497198805         -3.336925881633          0.000000000000
      0.1097000000D+01  0.1000000000D+01
 Atom C4       Shell    43 D   1     bf  113 -   117         -1.274497198805         -3.336925881633          0.000000000000
      0.3180000000D+00  0.1000000000D+01
 Atom C4       Shell    44 F   1     bf  118 -   124         -1.274497198805         -3.336925881633          0.000000000000
      0.7610000000D+00  0.1000000000D+01
 Atom C5       Shell    45 S   6     bf  125 -   125          3.130712890910         -2.290378690432          0.000000000000
      0.1357534968D+05  0.6064550360D-03
      0.2035233368D+04  0.4697908888D-02
      0.4632256236D+03  0.2433247765D-01
      0.1312001960D+03  0.9739996831D-01
      0.4285301589D+02  0.3019558425D+00
      0.1558418577D+02  0.6623360914D+00
 Atom C5       Shell    46 S   2     bf  126 -   126          3.130712890910         -2.290378690432          0.000000000000
      0.6206713851D+01  0.6559530854D+00
      0.2576489653D+01  0.3758563329D+00
 Atom C5       Shell    47 S   1     bf  127 -   127          3.130712890910         -2.290378690432          0.000000000000
      0.5769633942D+00  0.1000000000D+01
 Atom C5       Shell    48 S   1     bf  128 -   128          3.130712890910         -2.290378690432          0.000000000000
      0.2297283136D+00  0.1000000000D+01
 Atom C5       Shell    49 S   1     bf  129 -   129          3.130712890910         -2.290378690432          0.000000000000
      0.9516444003D-01  0.1000000000D+01
 Atom C5       Shell    50 P   4     bf  130 -   132          3.130712890910         -2.290378690432          0.000000000000
      0.3469723224D+02  0.1132722000D-01
      0.7958262283D+01  0.7616965920D-01
      0.2378082688D+01  0.3019225220D+00
      0.8143320818D+00  0.7278502735D+00
 Atom C5       Shell    51 P   1     bf  133 -   135          3.130712890910         -2.290378690432          0.000000000000
      0.2888754725D+00  0.1000000000D+01
 Atom C5       Shell    52 P   1     bf  136 -   138          3.130712890910         -2.290378690432          0.000000000000
      0.1005682367D+00  0.1000000000D+01
 Atom C5       Shell    53 D   1     bf  139 -   143          3.130712890910         -2.290378690432          0.000000000000
      0.1097000000D+01  0.1000000000D+01
 Atom C5       Shell    54 D   1     bf  144 -   148          3.130712890910         -2.290378690432          0.000000000000
      0.3180000000D+00  0.1000000000D+01
 Atom C5       Shell    55 F   1     bf  149 -   155          3.130712890910         -2.290378690432          0.000000000000
      0.7610000000D+00  0.1000000000D+01
 Atom C6       Shell    56 S   6     bf  156 -   156          1.237508421403         -4.097403480948          0.000000000000
      0.1357534968D+05  0.6064550360D-03
      0.2035233368D+04  0.4697908888D-02
      0.4632256236D+03  0.2433247765D-01
      0.1312001960D+03  0.9739996831D-01
      0.4285301589D+02  0.3019558425D+00
      0.1558418577D+02  0.6623360914D+00
 Atom C6       Shell    57 S   2     bf  157 -   157          1.237508421403         -4.097403480948          0.000000000000
      0.6206713851D+01  0.6559530854D+00
      0.2576489653D+01  0.3758563329D+00
 Atom C6       Shell    58 S   1     bf  158 -   158          1.237508421403         -4.097403480948          0.000000000000
      0.5769633942D+00  0.1000000000D+01
 Atom C6       Shell    59 S   1     bf  159 -   159          1.237508421403         -4.097403480948          0.000000000000
      0.2297283136D+00  0.1000000000D+01
 Atom C6       Shell    60 S   1     bf  160 -   160          1.237508421403         -4.097403480948          0.000000000000
      0.9516444003D-01  0.1000000000D+01
 Atom C6       Shell    61 P   4     bf  161 -   163          1.237508421403         -4.097403480948          0.000000000000
      0.3469723224D+02  0.1132722000D-01
      0.7958262283D+01  0.7616965920D-01
      0.2378082688D+01  0.3019225220D+00
      0.8143320818D+00  0.7278502735D+00
 Atom C6       Shell    62 P   1     bf  164 -   166          1.237508421403         -4.097403480948          0.000000000000
      0.2888754725D+00  0.1000000000D+01
 Atom C6       Shell    63 P   1     bf  167 -   169          1.237508421403         -4.097403480948          0.000000000000
      0.1005682367D+00  0.1000000000D+01
 Atom C6       Shell    64 D   1     bf  170 -   174          1.237508421403         -4.097403480948          0.000000000000
      0.1097000000D+01  0.1000000000D+01
 Atom C6       Shell    65 D   1     bf  175 -   179          1.237508421403         -4.097403480948          0.000000000000
      0.3180000000D+00  0.1000000000D+01
 Atom C6       Shell    66 F   1     bf  180 -   186          1.237508421403         -4.097403480948          0.000000000000
      0.7610000000D+00  0.1000000000D+01
 Atom H7       Shell    67 S   3     bf  187 -   187         -3.856116049647         -0.245791860337          0.000000000000
      0.3406134100D+02  0.2543930721D-01
      0.5123574600D+01  0.1900859489D+00
      0.1164662600D+01  0.8524411301D+00
 Atom H7       Shell    68 S   1     bf  188 -   188         -3.856116049647         -0.245791860337          0.000000000000
      0.3272304100D+00  0.1000000000D+01
 Atom H7       Shell    69 S   1     bf  189 -   189         -3.856116049647         -0.245791860337          0.000000000000
      0.1030724100D+00  0.1000000000D+01
 Atom H7       Shell    70 P   1     bf  190 -   192         -3.856116049647         -0.245791860337          0.000000000000
      0.8000000000D+00  0.1000000000D+01
 Atom H8       Shell    71 S   3     bf  193 -   193          4.002334079833          1.659968919805          0.000000000000
      0.3406134100D+02  0.2543930721D-01
      0.5123574600D+01  0.1900859489D+00
      0.1164662600D+01  0.8524411301D+00
 Atom H8       Shell    72 S   1     bf  194 -   194          4.002334079833          1.659968919805          0.000000000000
      0.3272304100D+00  0.1000000000D+01
 Atom H8       Shell    73 S   1     bf  195 -   195          4.002334079833          1.659968919805          0.000000000000
      0.1030724100D+00  0.1000000000D+01
 Atom H8       Shell    74 P   1     bf  196 -   198          4.002334079833          1.659968919805          0.000000000000
      0.8000000000D+00  0.1000000000D+01
 Atom H9       Shell    75 S   3     bf  199 -   199         -2.766104608423         -4.737784032040          0.000000000000
      0.3406134100D+02  0.2543930721D-01
      0.5123574600D+01  0.1900859489D+00
      0.1164662600D+01  0.8524411301D+00
 Atom H9       Shell    76 S   1     bf  200 -   200         -2.766104608423         -4.737784032040          0.000000000000
      0.3272304100D+00  0.1000000000D+01
 Atom H9       Shell    77 S   1     bf  201 -   201         -2.766104608423         -4.737784032040          0.000000000000
      0.1030724100D+00  0.1000000000D+01
 Atom H9       Shell    78 P   1     bf  202 -   204         -2.766104608423         -4.737784032040          0.000000000000
      0.8000000000D+00  0.1000000000D+01
 Atom H10      Shell    79 S   3     bf  205 -   205          5.095959061065         -2.859767709897          0.000000000000
      0.3406134100D+02  0.2543930721D-01
      0.5123574600D+01  0.1900859489D+00
      0.1164662600D+01  0.8524411301D+00
 Atom H10      Shell    80 S   1     bf  206 -   206          5.095959061065         -2.859767709897          0.000000000000
      0.3272304100D+00  0.1000000000D+01
 Atom H10      Shell    81 S   1     bf  207 -   207          5.095959061065         -2.859767709897          0.000000000000
      0.1030724100D+00  0.1000000000D+01
 Atom H10      Shell    82 P   1     bf  208 -   210          5.095959061065         -2.859767709897          0.000000000000
      0.8000000000D+00  0.1000000000D+01
 Atom H11      Shell    83 S   3     bf  211 -   211          1.710188121945         -6.087771970820          0.000000000000
      0.3406134100D+02  0.2543930721D-01
      0.5123574600D+01  0.1900859489D+00
      0.1164662600D+01  0.8524411301D+00
 Atom H11      Shell    84 S   1     bf  212 -   212          1.710188121945         -6.087771970820          0.000000000000
      0.3272304100D+00  0.1000000000D+01
 Atom H11      Shell    85 S   1     bf  213 -   213          1.710188121945         -6.087771970820          0.000000000000
      0.1030724100D+00  0.1000000000D+01
 Atom H11      Shell    86 P   1     bf  214 -   216          1.710188121945         -6.087771970820          0.000000000000
      0.8000000000D+00  0.1000000000D+01
 Atom C12      Shell    87 S   6     bf  217 -   217         -0.546822291743          3.774679788565          0.000000000000
      0.1357534968D+05  0.6064550360D-03
      0.2035233368D+04  0.4697908888D-02
      0.4632256236D+03  0.2433247765D-01
      0.1312001960D+03  0.9739996831D-01
      0.4285301589D+02  0.3019558425D+00
      0.1558418577D+02  0.6623360914D+00
 Atom C12      Shell    88 S   2     bf  218 -   218         -0.546822291743          3.774679788565          0.000000000000
      0.6206713851D+01  0.6559530854D+00
      0.2576489653D+01  0.3758563329D+00
 Atom C12      Shell    89 S   1     bf  219 -   219         -0.546822291743          3.774679788565          0.000000000000
      0.5769633942D+00  0.1000000000D+01
 Atom C12      Shell    90 S   1     bf  220 -   220         -0.546822291743          3.774679788565          0.000000000000
      0.2297283136D+00  0.1000000000D+01
 Atom C12      Shell    91 S   1     bf  221 -   221         -0.546822291743          3.774679788565          0.000000000000
      0.9516444003D-01  0.1000000000D+01
 Atom C12      Shell    92 P   4     bf  222 -   224         -0.546822291743          3.774679788565          0.000000000000
      0.3469723224D+02  0.1132722000D-01
      0.7958262283D+01  0.7616965920D-01
      0.2378082688D+01  0.3019225220D+00
      0.8143320818D+00  0.7278502735D+00
 Atom C12      Shell    93 P   1     bf  225 -   227         -0.546822291743          3.774679788565          0.000000000000
      0.2888754725D+00  0.1000000000D+01
 Atom C12      Shell    94 P   1     bf  228 -   230         -0.546822291743          3.774679788565          0.000000000000
      0.1005682367D+00  0.1000000000D+01
 Atom C12      Shell    95 D   1     bf  231 -   235         -0.546822291743          3.774679788565          0.000000000000
      0.1097000000D+01  0.1000000000D+01
 Atom C12      Shell    96 D   1     bf  236 -   240         -0.546822291743          3.774679788565          0.000000000000
      0.3180000000D+00  0.1000000000D+01
 Atom C12      Shell    97 F   1     bf  241 -   247         -0.546822291743          3.774679788565          0.000000000000
      0.7610000000D+00  0.1000000000D+01
 Atom C13      Shell    98 S   6     bf  248 -   248         -2.802423391042          4.872506007950          0.000000000000
      0.1357534968D+05  0.6064550360D-03
      0.2035233368D+04  0.4697908888D-02
      0.4632256236D+03  0.2433247765D-01
      0.1312001960D+03  0.9739996831D-01
      0.4285301589D+02  0.3019558425D+00
      0.1558418577D+02  0.6623360914D+00
 Atom C13      Shell    99 S   2     bf  249 -   249         -2.802423391042          4.872506007950          0.000000000000
      0.6206713851D+01  0.6559530854D+00
      0.2576489653D+01  0.3758563329D+00
 Atom C13      Shell   100 S   1     bf  250 -   250         -2.802423391042          4.872506007950          0.000000000000
      0.5769633942D+00  0.1000000000D+01
 Atom C13      Shell   101 S   1     bf  251 -   251         -2.802423391042          4.872506007950          0.000000000000
      0.2297283136D+00  0.1000000000D+01
 Atom C13      Shell   102 S   1     bf  252 -   252         -2.802423391042          4.872506007950          0.000000000000
      0.9516444003D-01  0.1000000000D+01
 Atom C13      Shell   103 P   4     bf  253 -   255         -2.802423391042          4.872506007950          0.000000000000
      0.3469723224D+02  0.1132722000D-01
      0.7958262283D+01  0.7616965920D-01
      0.2378082688D+01  0.3019225220D+00
      0.8143320818D+00  0.7278502735D+00
 Atom C13      Shell   104 P   1     bf  256 -   258         -2.802423391042          4.872506007950          0.000000000000
      0.2888754725D+00  0.1000000000D+01
 Atom C13      Shell   105 P   1     bf  259 -   261         -2.802423391042          4.872506007950          0.000000000000
      0.1005682367D+00  0.1000000000D+01
 Atom C13      Shell   106 D   1     bf  262 -   266         -2.802423391042          4.872506007950          0.000000000000
      0.1097000000D+01  0.1000000000D+01
 Atom C13      Shell   107 D   1     bf  267 -   271         -2.802423391042          4.872506007950          0.000000000000
      0.3180000000D+00  0.1000000000D+01
 Atom C13      Shell   108 F   1     bf  272 -   278         -2.802423391042          4.872506007950          0.000000000000
      0.7610000000D+00  0.1000000000D+01
 Atom H14      Shell   109 S   3     bf  279 -   279          1.115616208928          4.979406139018          0.000000000000
      0.3406134100D+02  0.2543930721D-01
      0.5123574600D+01  0.1900859489D+00
      0.1164662600D+01  0.8524411301D+00
 Atom H14      Shell   110 S   1     bf  280 -   280          1.115616208928          4.979406139018          0.000000000000
      0.3272304100D+00  0.1000000000D+01
 Atom H14      Shell   111 S   1     bf  281 -   281          1.115616208928          4.979406139018          0.000000000000
      0.1030724100D+00  0.1000000000D+01
 Atom H14      Shell   112 P   1     bf  282 -   284          1.115616208928          4.979406139018          0.000000000000
      0.8000000000D+00  0.1000000000D+01
 Atom H15      Shell   113 S   3     bf  285 -   285         -2.972028331598          6.909959687904          0.000000000000
      0.3406134100D+02  0.2543930721D-01
      0.5123574600D+01  0.1900859489D+00
      0.1164662600D+01  0.8524411301D+00
 Atom H15      Shell   114 S   1     bf  286 -   286         -2.972028331598          6.909959687904          0.000000000000
      0.3272304100D+00  0.1000000000D+01
 Atom H15      Shell   115 S   1     bf  287 -   287         -2.972028331598          6.909959687904          0.000000000000
      0.1030724100D+00  0.1000000000D+01
 Atom H15      Shell   116 P   1     bf  288 -   290         -2.972028331598          6.909959687904          0.000000000000
      0.8000000000D+00  0.1000000000D+01
 Atom H16      Shell   117 S   3     bf  291 -   291         -4.551414790753          3.808934087474          0.000000000000
      0.3406134100D+02  0.2543930721D-01
      0.5123574600D+01  0.1900859489D+00
      0.1164662600D+01  0.8524411301D+00
 Atom H16      Shell   118 S   1     bf  292 -   292         -4.551414790753          3.808934087474          0.000000000000
      0.3272304100D+00  0.1000000000D+01
 Atom H16      Shell   119 S   1     bf  293 -   293         -4.551414790753          3.808934087474          0.000000000000
      0.1030724100D+00  0.1000000000D+01
 Atom H16      Shell   120 P   1     bf  294 -   296         -4.551414790753          3.808934087474          0.000000000000
      0.8000000000D+00  0.1000000000D+01
 There are   240 symmetry adapted cartesian basis functions of A'  symmetry.
 There are    96 symmetry adapted cartesian basis functions of A"  symmetry.
 There are   208 symmetry adapted basis functions of A'  symmetry.
 There are    88 symmetry adapted basis functions of A"  symmetry.
   296 basis functions,   472 primitive gaussians,   336 cartesian basis functions
    28 alpha electrons       28 beta electrons
       nuclear repulsion energy       321.4247210898 Hartrees.
 IExCor= 4639 DFT=T Ex+Corr=wB97XD ExCW=0 ScaHFX=  1.000000
 ScaDFX=  1.000000  1.000000  1.000000  1.000000 ScalE2=  1.000000  1.000000
 IRadAn=      5 IRanWt=     -1 IRanGd=            0 ICorTp=0 IEmpDi=121
  HFx wShort=  0.000000 wLong=  0.200000 cFull=  0.222036 cShort=  0.000000 cLong=  0.777964
  DFx wShort=  0.000000 wLong=  0.200000 cFull=  0.000000 cShort=  0.000000 cLong=  1.000000
 NAtoms=   16 NActive=   16 NUniq=   16 SFac= 1.00D+00 NAtFMM=   60 NAOKFM=F Big=F
 Integral buffers will be    131072 words long.
 Raffenetti 2 integral format.
 Two-electron integral symmetry is turned on.
 R6Disp:  Grimme-D2 Dispersion energy=       -0.0071989801 Hartrees.
 Nuclear repulsion after empirical dispersion term =      321.4175221097 Hartrees.
 Leave Link  301 at Sat Jul 10 20:10:01 2021, MaxMem=  4194304000 cpu:         0.9
 (Enter /home/minenky/programs//g09/l302.exe)
 NPDir=0 NMtPBC=     1 NCelOv=     1 NCel=       1 NClECP=     1 NCelD=      1
         NCelK=      1 NCelE2=     1 NClLst=     1 CellRange=     0.0.
 One-electron integrals computed using PRISM.
   1 Symmetry operations used in ECPInt.
 ECPInt:  NShTT=    7260 NPrTT=   21936 LenC2=    7093 LenP2D=   17263.
 LDataN:  DoStor=T MaxTD1= 6 Len=  172
 NBasis=   296 RedAO= T EigKep=  1.16D-05  NBF=   208    88
 NBsUse=   296 1.00D-06 EigRej= -1.00D+00 NBFU=   208    88
 Precomputing XC quadrature grid using
 IXCGrd= 4 IRadAn=           5 IRanWt=          -1 IRanGd=           0 AccXCQ= 0.00D+00.
 Generated NRdTot=       0 NPtTot=           0 NUsed=           0 NTot=          32
 NSgBfM=   335   335   335   335   335 MxSgAt=    16 MxSgA2=    16.
 Leave Link  302 at Sat Jul 10 20:10:02 2021, MaxMem=  4194304000 cpu:        10.4
 (Enter /home/minenky/programs//g09/l303.exe)
 DipDrv:  MaxL=1.
 Leave Link  303 at Sat Jul 10 20:10:03 2021, MaxMem=  4194304000 cpu:         3.5
 (Enter /home/minenky/programs//g09/l401.exe)
 ExpMin= 9.52D-02 ExpMax= 1.36D+04 ExpMxC= 4.63D+02 IAcc=3 IRadAn=         5 AccDes= 0.00D+00
 Harris functional with IExCor= 4639 and IRadAn=       5 diagonalized for initial guess.
 HarFok:  IExCor= 4639 AccDes= 0.00D+00 IRadAn=         5 IDoV= 1 UseB2=F ITyADJ=14
 ICtDFT=  3500011 ScaDFX=  1.000000  1.000000  1.000000  1.000000
 FoFCou: FMM=F IPFlag=           0 FMFlag=      100000 FMFlg1=           0
         NFxFlg=           0 DoJE=T BraDBF=F KetDBF=T FulRan=T
         wScrn=  0.000000 ICntrl=     500 IOpCl=  0 I1Cent=   200000004 NGrid=           0
         NMat0=    1 NMatS0=      1 NMatT0=    0 NMatD0=    1 NMtDS0=    0 NMtDT0=    0
 Petite list used in FoFCou.
 Harris En= -295.253469548882    
 JPrj=0 DoOrth=F DoCkMO=F.
 Initial guess orbital symmetries:
       Occupied  (A') (A') (A') (A') (A') (A') (A') (A') (A') (A')
                 (A') (A') (A') (A') (A') (A') (A') (A') (A') (A')
                 (A') (A") (A') (A') (A') (A") (A") (A")
       Virtual   (A") (A") (A") (A') (A') (A') (A') (A') (A') (A")
                 (A') (A') (A') (A') (A') (A") (A') (A') (A") (A')
                 (A") (A') (A') (A') (A') (A") (A") (A') (A') (A')
                 (A") (A') (A") (A') (A') (A") (A') (A') (A') (A')
                 (A') (A") (A') (A') (A') (A') (A') (A') (A') (A')
                 (A') (A") (A') (A') (A") (A') (A') (A') (A') (A')
                 (A") (A") (A") (A') (A') (A') (A") (A') (A") (A')
                 (A') (A') (A') (A') (A") (A') (A') (A') (A") (A')
                 (A") (A') (A") (A') (A') (A") (A') (A') (A') (A")
                 (A') (A') (A") (A') (A") (A') (A') (A") (A') (A')
                 (A") (A') (A') (A") (A') (A') (A') (A") (A") (A')
                 (A') (A") (A') (A') (A") (A') (A') (A") (A') (A")
                 (A") (A") (A') (A") (A") (A') (A') (A") (A') (A')
                 (A') (A') (A') (A") (A') (A') (A') (A') (A") (A')
                 (A") (A') (A') (A') (A') (A') (A') (A") (A') (A")
                 (A') (A') (A') (A") (A') (A') (A') (A") (A") (A')
                 (A") (A') (A') (A") (A') (A") (A") (A') (A') (A')
                 (A") (A') (A') (A') (A") (A') (A") (A') (A") (A")
                 (A') (A') (A") (A") (A') (A') (A") (A') (A") (A')
                 (A') (A") (A") (A') (A') (A') (A") (A") (A') (A")
                 (A') (A") (A') (A") (A') (A') (A') (A') (A") (A')
                 (A') (A") (A") (A') (A') (A') (A") (A') (A") (A')
                 (A') (A') (A") (A') (A') (A') (A') (A') (A') (A")
                 (A') (A') (A") (A") (A") (A') (A') (A") (A') (A')
                 (A") (A') (A') (A') (A") (A") (A') (A') (A') (A')
                 (A') (A') (A') (A') (A') (A') (A') (A') (A') (A')
                 (A') (A') (A') (A') (A') (A') (A') (A')
 The electronic state of the initial guess is 1-A'.
 Leave Link  401 at Sat Jul 10 20:10:05 2021, MaxMem=  4194304000 cpu:        21.5
 (Enter /home/minenky/programs//g09/l502.exe)
 Closed shell SCF:
 Using DIIS extrapolation, IDIIS=  1040.
 Integral symmetry usage will be decided dynamically.
 Keep R1 ints in memory in symmetry-blocked form, NReq=2925865902.
 IVT=      494478 IEndB=      494478 NGot=  4194304000 MDV=  3697165025
 LenX=  3697165025 LenY=  3697051688
 Requested convergence on RMS density matrix=1.00D-08 within 380 cycles.
 Requested convergence on MAX density matrix=1.00D-06.
 Requested convergence on             energy=1.00D-06.
 No special actions if energy rises.
 FoFCou: FMM=F IPFlag=           0 FMFlag=           0 FMFlg1=           0
         NFxFlg=           0 DoJE=F BraDBF=F KetDBF=F FulRan=T
         wScrn=  0.000000 ICntrl=     600 IOpCl=  0 I1Cent=           0 NGrid=           0
         NMat0=    1 NMatS0=  43956 NMatT0=    0 NMatD0=    1 NMtDS0=    0 NMtDT0=    0
 Petite list used in FoFCou.
 Integral accuracy reduced to 1.0D-05 until final iterations.

 Cycle   1  Pass 0  IDiag  1:
 E= -309.565648505028    
 DIIS: error= 4.62D-02 at cycle   1 NSaved=   1.
 NSaved= 1 IEnMin= 1 EnMin= -309.565648505028     IErMin= 1 ErrMin= 4.62D-02
 ErrMax= 4.62D-02  0.00D+00 EMaxC= 1.00D-01 BMatC= 6.58D-01 BMatP= 6.58D-01
 IDIUse=3 WtCom= 5.38D-01 WtEn= 4.62D-01
 Coeff-Com:  0.100D+01
 Coeff-En:   0.100D+01
 Coeff:      0.100D+01
 Gap=     0.323 Goal=   None    Shift=    0.000
 GapD=    0.323 DampG=1.000 DampE=0.500 DampFc=0.5000 IDamp=-1.
 Damping current iteration by 5.00D-01
 RMSDP=1.38D-03 MaxDP=6.73D-02              OVMax= 4.53D-02

 Cycle   2  Pass 0  IDiag  1:
 E= -309.606509781733     Delta-E=       -0.040861276705 Rises=F Damp=T
 DIIS: error= 2.24D-02 at cycle   2 NSaved=   2.
 NSaved= 2 IEnMin= 2 EnMin= -309.606509781733     IErMin= 2 ErrMin= 2.24D-02
 ErrMax= 2.24D-02  0.00D+00 EMaxC= 1.00D-01 BMatC= 1.48D-01 BMatP= 6.58D-01
 IDIUse=3 WtCom= 7.76D-01 WtEn= 2.24D-01
 Coeff-Com: -0.866D+00 0.187D+01
 Coeff-En:   0.000D+00 0.100D+01
 Coeff:     -0.672D+00 0.167D+01
 Gap=     0.331 Goal=   None    Shift=    0.000
 RMSDP=7.97D-04 MaxDP=4.08D-02 DE=-4.09D-02 OVMax= 3.22D-02

 Cycle   3  Pass 0  IDiag  1:
 E= -309.642758317444     Delta-E=       -0.036248535711 Rises=F Damp=F
 DIIS: error= 3.34D-03 at cycle   3 NSaved=   3.
 NSaved= 3 IEnMin= 3 EnMin= -309.642758317444     IErMin= 3 ErrMin= 3.34D-03
 ErrMax= 3.34D-03  0.00D+00 EMaxC= 1.00D-01 BMatC= 3.18D-03 BMatP= 1.48D-01
 IDIUse=3 WtCom= 9.67D-01 WtEn= 3.34D-02
 Coeff-Com: -0.336D+00 0.720D+00 0.616D+00
 Coeff-En:   0.000D+00 0.000D+00 0.100D+01
 Coeff:     -0.325D+00 0.696D+00 0.629D+00
 Gap=     0.328 Goal=   None    Shift=    0.000
 RMSDP=1.31D-04 MaxDP=5.62D-03 DE=-3.62D-02 OVMax= 1.53D-02

 Cycle   4  Pass 0  IDiag  1:
 E= -309.645487055445     Delta-E=       -0.002728738001 Rises=F Damp=F
 DIIS: error= 1.27D-03 at cycle   4 NSaved=   4.
 NSaved= 4 IEnMin= 4 EnMin= -309.645487055445     IErMin= 4 ErrMin= 1.27D-03
 ErrMax= 1.27D-03  0.00D+00 EMaxC= 1.00D-01 BMatC= 1.54D-04 BMatP= 3.18D-03
 IDIUse=3 WtCom= 9.87D-01 WtEn= 1.27D-02
 Coeff-Com: -0.130D+00 0.278D+00 0.288D+00 0.563D+00
 Coeff-En:   0.000D+00 0.000D+00 0.000D+00 0.100D+01
 Coeff:     -0.128D+00 0.275D+00 0.285D+00 0.569D+00
 Gap=     0.328 Goal=   None    Shift=    0.000
 RMSDP=3.73D-05 MaxDP=1.42D-03 DE=-2.73D-03 OVMax= 4.97D-03

 Cycle   5  Pass 0  IDiag  1:
 E= -309.645637999777     Delta-E=       -0.000150944333 Rises=F Damp=F
 DIIS: error= 2.96D-04 at cycle   5 NSaved=   5.
 NSaved= 5 IEnMin= 5 EnMin= -309.645637999777     IErMin= 5 ErrMin= 2.96D-04
 ErrMax= 2.96D-04  0.00D+00 EMaxC= 1.00D-01 BMatC= 7.51D-06 BMatP= 1.54D-04
 IDIUse=3 WtCom= 9.97D-01 WtEn= 2.96D-03
 Coeff-Com:  0.263D-01-0.567D-01-0.397D-01 0.143D+00 0.927D+00
 Coeff-En:   0.000D+00 0.000D+00 0.000D+00 0.000D+00 0.100D+01
 Coeff:      0.263D-01-0.565D-01-0.396D-01 0.143D+00 0.927D+00
 Gap=     0.329 Goal=   None    Shift=    0.000
 RMSDP=2.46D-05 MaxDP=7.86D-04 DE=-1.51D-04 OVMax= 1.80D-03

 Cycle   6  Pass 0  IDiag  1:
 E= -309.645648370641     Delta-E=       -0.000010370863 Rises=F Damp=F
 DIIS: error= 7.09D-05 at cycle   6 NSaved=   6.
 NSaved= 6 IEnMin= 6 EnMin= -309.645648370641     IErMin= 6 ErrMin= 7.09D-05
 ErrMax= 7.09D-05  0.00D+00 EMaxC= 1.00D-01 BMatC= 4.05D-07 BMatP= 7.51D-06
 IDIUse=1 WtCom= 1.00D+00 WtEn= 0.00D+00
 Coeff-Com:  0.125D-01-0.270D-01-0.217D-01 0.305D-01 0.309D+00 0.697D+00
 Coeff:      0.125D-01-0.270D-01-0.217D-01 0.305D-01 0.309D+00 0.697D+00
 Gap=     0.329 Goal=   None    Shift=    0.000
 RMSDP=3.71D-06 MaxDP=1.41D-04 DE=-1.04D-05 OVMax= 2.93D-04

 Initial convergence to 1.0D-05 achieved.  Increase integral accuracy.
 Cycle   7  Pass 1  IDiag  1:
 E= -309.645666204479     Delta-E=       -0.000017833839 Rises=F Damp=F
 DIIS: error= 3.04D-05 at cycle   1 NSaved=   1.
 NSaved= 1 IEnMin= 1 EnMin= -309.645666204479     IErMin= 1 ErrMin= 3.04D-05
 ErrMax= 3.04D-05  0.00D+00 EMaxC= 1.00D-01 BMatC= 6.04D-07 BMatP= 6.04D-07
 IDIUse=1 WtCom= 1.00D+00 WtEn= 0.00D+00
 Coeff-Com:  0.100D+01
 Coeff:      0.100D+01
 Gap=     0.329 Goal=   None    Shift=    0.000
 RMSDP=3.71D-06 MaxDP=1.41D-04 DE=-1.78D-05 OVMax= 2.01D-04

 Cycle   8  Pass 1  IDiag  1:
 E= -309.645666591044     Delta-E=       -0.000000386565 Rises=F Damp=F
 DIIS: error= 1.62D-05 at cycle   2 NSaved=   2.
 NSaved= 2 IEnMin= 2 EnMin= -309.645666591044     IErMin= 2 ErrMin= 1.62D-05
 ErrMax= 1.62D-05  0.00D+00 EMaxC= 1.00D-01 BMatC= 4.62D-08 BMatP= 6.04D-07
 IDIUse=1 WtCom= 1.00D+00 WtEn= 0.00D+00
 Coeff-Com:  0.708D-01 0.929D+00
 Coeff:      0.708D-01 0.929D+00
 Gap=     0.329 Goal=   None    Shift=    0.000
 RMSDP=1.04D-06 MaxDP=2.80D-05 DE=-3.87D-07 OVMax= 1.02D-04

 Cycle   9  Pass 1  IDiag  1:
 E= -309.645666612078     Delta-E=       -0.000000021034 Rises=F Damp=F
 DIIS: error= 1.16D-05 at cycle   3 NSaved=   3.
 NSaved= 3 IEnMin= 3 EnMin= -309.645666612078     IErMin= 3 ErrMin= 1.16D-05
 ErrMax= 1.16D-05  0.00D+00 EMaxC= 1.00D-01 BMatC= 3.25D-08 BMatP= 4.62D-08
 IDIUse=1 WtCom= 1.00D+00 WtEn= 0.00D+00
 Coeff-Com: -0.396D-01 0.460D+00 0.580D+00
 Coeff:     -0.396D-01 0.460D+00 0.580D+00
 Gap=     0.329 Goal=   None    Shift=    0.000
 RMSDP=4.14D-07 MaxDP=1.34D-05 DE=-2.10D-08 OVMax= 5.36D-05

 Cycle  10  Pass 1  IDiag  1:
 E= -309.645666644090     Delta-E=       -0.000000032012 Rises=F Damp=F
 DIIS: error= 2.82D-06 at cycle   4 NSaved=   4.
 NSaved= 4 IEnMin= 4 EnMin= -309.645666644090     IErMin= 4 ErrMin= 2.82D-06
 ErrMax= 2.82D-06  0.00D+00 EMaxC= 1.00D-01 BMatC= 4.03D-10 BMatP= 3.25D-08
 IDIUse=1 WtCom= 1.00D+00 WtEn= 0.00D+00
 Coeff-Com: -0.103D-01 0.695D-01 0.120D+00 0.821D+00
 Coeff:     -0.103D-01 0.695D-01 0.120D+00 0.821D+00
 Gap=     0.329 Goal=   None    Shift=    0.000
 RMSDP=1.10D-07 MaxDP=2.55D-06 DE=-3.20D-08 OVMax= 1.45D-05

 Cycle  11  Pass 1  IDiag  1:
 E= -309.645666644858     Delta-E=       -0.000000000769 Rises=F Damp=F
 DIIS: error= 1.48D-06 at cycle   5 NSaved=   5.
 NSaved= 5 IEnMin= 5 EnMin= -309.645666644858     IErMin= 5 ErrMin= 1.48D-06
 ErrMax= 1.48D-06  0.00D+00 EMaxC= 1.00D-01 BMatC= 1.53D-10 BMatP= 4.03D-10
 IDIUse=1 WtCom= 1.00D+00 WtEn= 0.00D+00
 Coeff-Com:  0.541D-02-0.837D-01-0.919D-01 0.373D+00 0.797D+00
 Coeff:      0.541D-02-0.837D-01-0.919D-01 0.373D+00 0.797D+00
 Gap=     0.329 Goal=   None    Shift=    0.000
 RMSDP=7.13D-08 MaxDP=2.12D-06 DE=-7.69D-10 OVMax= 1.25D-05

 Cycle  12  Pass 1  IDiag  1:
 E= -309.645666645165     Delta-E=       -0.000000000307 Rises=F Damp=F
 DIIS: error= 4.12D-07 at cycle   6 NSaved=   6.
 NSaved= 6 IEnMin= 6 EnMin= -309.645666645165     IErMin= 6 ErrMin= 4.12D-07
 ErrMax= 4.12D-07  0.00D+00 EMaxC= 1.00D-01 BMatC= 1.01D-11 BMatP= 1.53D-10
 IDIUse=1 WtCom= 1.00D+00 WtEn= 0.00D+00
 Coeff-Com:  0.264D-02-0.323D-01-0.402D-01 0.427D-01 0.233D+00 0.794D+00
 Coeff:      0.264D-02-0.323D-01-0.402D-01 0.427D-01 0.233D+00 0.794D+00
 Gap=     0.329 Goal=   None    Shift=    0.000
 RMSDP=1.97D-08 MaxDP=5.05D-07 DE=-3.07D-10 OVMax= 2.67D-06

 Cycle  13  Pass 1  IDiag  1:
 E= -309.645666645185     Delta-E=       -0.000000000019 Rises=F Damp=F
 DIIS: error= 1.40D-07 at cycle   7 NSaved=   7.
 NSaved= 7 IEnMin= 7 EnMin= -309.645666645185     IErMin= 7 ErrMin= 1.40D-07
 ErrMax= 1.40D-07  0.00D+00 EMaxC= 1.00D-01 BMatC= 2.03D-12 BMatP= 1.01D-11
 IDIUse=1 WtCom= 1.00D+00 WtEn= 0.00D+00
 Coeff-Com: -0.591D-04 0.407D-02 0.260D-02-0.497D-01-0.604D-01 0.286D+00
 Coeff-Com:  0.817D+00
 Coeff:     -0.591D-04 0.407D-02 0.260D-02-0.497D-01-0.604D-01 0.286D+00
 Coeff:      0.817D+00
 Gap=     0.329 Goal=   None    Shift=    0.000
 RMSDP=8.71D-09 MaxDP=2.28D-07 DE=-1.93D-11 OVMax= 1.70D-06

 SCF Done:  E(RwB97XD) =  -309.645666645     A.U. after   13 cycles
            NFock= 13  Conv=0.87D-08     -V/T= 2.0050
 KE= 3.080937495465D+02 PE=-1.360670754746D+03 EE= 4.215138164445D+02
 Leave Link  502 at Sat Jul 10 20:10:57 2021, MaxMem=  4194304000 cpu:       667.1
 (Enter /home/minenky/programs//g09/l601.exe)
 Copying SCF densities to generalized density rwf, IOpCl= 0 IROHF=0.

 **********************************************************************

            Population analysis using the SCF density.

 **********************************************************************

 Orbital symmetries:
       Occupied  (A') (A') (A') (A') (A') (A') (A') (A') (A') (A')
                 (A') (A') (A') (A') (A') (A') (A') (A') (A') (A')
                 (A') (A") (A') (A') (A') (A") (A") (A")
       Virtual   (A") (A") (A") (A') (A') (A') (A') (A') (A') (A')
                 (A') (A") (A') (A') (A') (A") (A') (A') (A') (A")
                 (A") (A') (A') (A') (A") (A') (A") (A') (A') (A')
                 (A") (A') (A") (A') (A') (A') (A") (A') (A') (A')
                 (A') (A') (A') (A") (A') (A') (A') (A') (A') (A')
                 (A') (A") (A') (A') (A") (A') (A') (A') (A') (A')
                 (A") (A") (A') (A") (A') (A') (A") (A') (A') (A")
                 (A') (A') (A') (A') (A") (A') (A') (A') (A") (A')
                 (A") (A') (A") (A') (A') (A') (A") (A') (A') (A")
                 (A') (A') (A") (A') (A') (A") (A') (A') (A') (A")
                 (A') (A") (A') (A') (A") (A') (A") (A') (A') (A")
                 (A') (A") (A') (A") (A') (A') (A') (A") (A") (A')
                 (A") (A") (A") (A') (A") (A') (A") (A') (A') (A')
                 (A') (A') (A') (A") (A') (A') (A') (A') (A') (A")
                 (A") (A') (A') (A') (A') (A') (A') (A") (A') (A')
                 (A') (A") (A') (A") (A') (A') (A') (A") (A") (A')
                 (A") (A') (A') (A") (A') (A") (A") (A') (A') (A')
                 (A') (A") (A') (A') (A") (A') (A") (A') (A") (A")
                 (A') (A') (A") (A") (A') (A') (A") (A') (A") (A')
                 (A') (A") (A") (A') (A') (A") (A') (A") (A') (A")
                 (A") (A') (A') (A") (A') (A') (A') (A") (A') (A')
                 (A') (A") (A") (A') (A') (A') (A") (A') (A") (A')
                 (A') (A') (A") (A') (A') (A') (A') (A') (A') (A")
                 (A') (A') (A") (A") (A") (A') (A') (A") (A') (A')
                 (A") (A') (A') (A') (A") (A") (A') (A') (A') (A')
                 (A') (A') (A') (A') (A') (A') (A') (A') (A') (A')
                 (A') (A') (A') (A') (A') (A') (A') (A')
 The electronic state is 1-A'.
 Alpha  occ. eigenvalues --  -10.29941 -10.29340 -10.28947 -10.28919 -10.28866
 Alpha  occ. eigenvalues --  -10.28851 -10.28823 -10.28092  -0.96793  -0.89494
 Alpha  occ. eigenvalues --   -0.85063  -0.82854  -0.72209  -0.70216  -0.65492
 Alpha  occ. eigenvalues --   -0.60929  -0.56640  -0.54558  -0.52954  -0.50867
 Alpha  occ. eigenvalues --   -0.49999  -0.47275  -0.45586  -0.42771  -0.42134
 Alpha  occ. eigenvalues --   -0.39085  -0.33567  -0.30537
 Alpha virt. eigenvalues --    0.02341   0.05648   0.11945   0.12698   0.13835
 Alpha virt. eigenvalues --    0.14866   0.17012   0.17306   0.19325   0.21330
 Alpha virt. eigenvalues --    0.21866   0.22724   0.24271   0.25639   0.26406
 Alpha virt. eigenvalues --    0.28011   0.28044   0.29674   0.30470   0.30764
 Alpha virt. eigenvalues --    0.32415   0.33275   0.34331   0.34644   0.36858
 Alpha virt. eigenvalues --    0.37538   0.38785   0.39294   0.41251   0.42553
 Alpha virt. eigenvalues --    0.43005   0.43528   0.45101   0.45651   0.47208
 Alpha virt. eigenvalues --    0.48348   0.48753   0.49555   0.50396   0.51388
 Alpha virt. eigenvalues --    0.54214   0.55073   0.56115   0.56568   0.57314
 Alpha virt. eigenvalues --    0.57886   0.58257   0.59824   0.64668   0.65618
 Alpha virt. eigenvalues --    0.66989   0.67835   0.68062   0.72124   0.73644
 Alpha virt. eigenvalues --    0.74617   0.76212   0.77770   0.79285   0.80456
 Alpha virt. eigenvalues --    0.81937   0.83409   0.84512   0.85129   0.87794
 Alpha virt. eigenvalues --    0.90601   0.92706   0.94552   0.95511   0.95602
 Alpha virt. eigenvalues --    0.97289   1.00737   1.04125   1.05319   1.07997
 Alpha virt. eigenvalues --    1.09054   1.10168   1.11421   1.12523   1.18457
 Alpha virt. eigenvalues --    1.18540   1.23259   1.24923   1.28109   1.28654
 Alpha virt. eigenvalues --    1.30763   1.30766   1.32663   1.33934   1.35490
 Alpha virt. eigenvalues --    1.36550   1.39231   1.40310   1.41459   1.47309
 Alpha virt. eigenvalues --    1.49588   1.50527   1.53840   1.55692   1.55843
 Alpha virt. eigenvalues --    1.58561   1.58571   1.62451   1.63130   1.63951
 Alpha virt. eigenvalues --    1.65084   1.68924   1.70144   1.72666   1.73332
 Alpha virt. eigenvalues --    1.75222   1.76684   1.77771   1.79207   1.79383
 Alpha virt. eigenvalues --    1.81661   1.83075   1.84869   1.91708   1.91743
 Alpha virt. eigenvalues --    1.93854   1.95605   2.00809   2.01559   2.06722
 Alpha virt. eigenvalues --    2.08670   2.13261   2.14194   2.16064   2.19695
 Alpha virt. eigenvalues --    2.19750   2.21531   2.24983   2.25095   2.28983
 Alpha virt. eigenvalues --    2.30943   2.33390   2.38869   2.43343   2.44075
 Alpha virt. eigenvalues --    2.46918   2.47997   2.53633   2.54468   2.56724
 Alpha virt. eigenvalues --    2.60200   2.62332   2.64911   2.65602   2.68694
 Alpha virt. eigenvalues --    2.69733   2.69774   2.72103   2.75047   2.75072
 Alpha virt. eigenvalues --    2.76560   2.77642   2.80089   2.80990   2.83147
 Alpha virt. eigenvalues --    2.83719   2.84647   2.86257   2.87106   2.88238
 Alpha virt. eigenvalues --    2.90558   2.91217   2.92419   2.94347   2.94537
 Alpha virt. eigenvalues --    2.98368   2.98660   3.00752   3.03592   3.03954
 Alpha virt. eigenvalues --    3.10103   3.10981   3.11672   3.12792   3.13393
 Alpha virt. eigenvalues --    3.17597   3.21186   3.21349   3.22064   3.22922
 Alpha virt. eigenvalues --    3.25060   3.25332   3.25664   3.26433   3.29375
 Alpha virt. eigenvalues --    3.31635   3.33553   3.34216   3.35958   3.36917
 Alpha virt. eigenvalues --    3.41226   3.41336   3.43780   3.44776   3.45111
 Alpha virt. eigenvalues --    3.47777   3.48460   3.49214   3.52965   3.54117
 Alpha virt. eigenvalues --    3.55337   3.57716   3.60049   3.60448   3.62780
 Alpha virt. eigenvalues --    3.64337   3.66327   3.68127   3.72599   3.74129
 Alpha virt. eigenvalues --    3.78849   3.83999   3.85186   3.89898   3.91572
 Alpha virt. eigenvalues --    3.93853   4.02201   4.03901   4.05262   4.10335
 Alpha virt. eigenvalues --    4.15517   4.18649   4.20581   4.22622   4.26003
 Alpha virt. eigenvalues --    4.27000   4.28985   4.30549   4.31712   4.33961
 Alpha virt. eigenvalues --    4.35677   4.42266   4.44298   4.45699   4.48549
 Alpha virt. eigenvalues --    4.52064   4.61254   4.70190   4.73140   4.77810
 Alpha virt. eigenvalues --    4.80115   4.82971   4.85907   4.91545   4.98408
 Alpha virt. eigenvalues --    4.99104   5.02617   5.15315   5.21637   5.36287
 Alpha virt. eigenvalues --    5.39673   5.47743   5.56338   5.57118   5.82194
 Alpha virt. eigenvalues --   22.02196  22.47992  22.69823  22.74345  22.87686
 Alpha virt. eigenvalues --   22.91667  22.94731  23.37858
          Condensed to atoms (all electrons):
               1          2          3          4          5          6
     1  C    4.817448   0.413367   0.461935  -0.001273   0.003605  -0.067568
     2  C    0.413367   5.047581   0.002643   0.473076  -0.066736   0.013662
     3  C    0.461935   0.002643   5.013764  -0.057798   0.459149   0.004309
     4  C   -0.001273   0.473076  -0.057798   4.863075  -0.003365   0.459217
     5  C    0.003605  -0.066736   0.459149  -0.003365   4.885882   0.468228
     6  C   -0.067568   0.013662   0.004309   0.459217   0.468228   4.907079
     7  H   -0.062985   0.430006   0.009398  -0.032218  -0.001981   0.007839
     8  H   -0.066844   0.013825   0.438045  -0.003261  -0.047004   0.009462
     9  H    0.011090  -0.054405  -0.002697   0.441664   0.009667  -0.054170
    10  H    0.011906  -0.003312  -0.057693   0.010548   0.445542  -0.055507
    11  H   -0.002390   0.010403   0.010168  -0.053751  -0.054463   0.440829
    12  C    0.369751  -0.086863  -0.086142   0.006901   0.009811  -0.001184
    13  C   -0.056848  -0.003019   0.003723   0.001399  -0.000676   0.000185
    14  H   -0.065130   0.011352   0.003386  -0.000672   0.000129   0.000205
    15  H    0.006310  -0.000777  -0.000511  -0.000028   0.000025   0.000000
    16  H   -0.013631   0.006091   0.000757   0.000670  -0.000064   0.000033
               7          8          9         10         11         12
     1  C   -0.062985  -0.066844   0.011090   0.011906  -0.002390   0.369751
     2  C    0.430006   0.013825  -0.054405  -0.003312   0.010403  -0.086863
     3  C    0.009398   0.438045  -0.002697  -0.057693   0.010168  -0.086142
     4  C   -0.032218  -0.003261   0.441664   0.010548  -0.053751   0.006901
     5  C   -0.001981  -0.047004   0.009667   0.445542  -0.054463   0.009811
     6  C    0.007839   0.009462  -0.054170  -0.055507   0.440829  -0.001184
     7  H    0.553996  -0.000091  -0.006962   0.000055  -0.000191  -0.012062
     8  H   -0.000091   0.545991   0.000047  -0.007150  -0.000157  -0.004025
     9  H   -0.006962   0.000047   0.544504  -0.000138  -0.006785  -0.000207
    10  H    0.000055  -0.007150  -0.000138   0.544769  -0.007063  -0.000441
    11  H   -0.000191  -0.000157  -0.006785  -0.007063   0.543521   0.000069
    12  C   -0.012062  -0.004025  -0.000207  -0.000441   0.000069   5.025757
    13  C    0.003916   0.000604   0.000017   0.000009  -0.000002   0.608877
    14  H    0.000338   0.006831   0.000010  -0.000034  -0.000002   0.414198
    15  H   -0.000123  -0.000083  -0.000001   0.000000   0.000000  -0.040623
    16  H    0.005267   0.000066   0.000012   0.000000   0.000000  -0.042417
              13         14         15         16
     1  C   -0.056848  -0.065130   0.006310  -0.013631
     2  C   -0.003019   0.011352  -0.000777   0.006091
     3  C    0.003723   0.003386  -0.000511   0.000757
     4  C    0.001399  -0.000672  -0.000028   0.000670
     5  C   -0.000676   0.000129   0.000025  -0.000064
     6  C    0.000185   0.000205   0.000000   0.000033
     7  H    0.003916   0.000338  -0.000123   0.005267
     8  H    0.000604   0.006831  -0.000083   0.000066
     9  H    0.000017   0.000010  -0.000001   0.000012
    10  H    0.000009  -0.000034   0.000000   0.000000
    11  H   -0.000002  -0.000002   0.000000   0.000000
    12  C    0.608877   0.414198  -0.040623  -0.042417
    13  C    4.897850  -0.030837   0.421208   0.413594
    14  H   -0.030837   0.552699  -0.008615   0.005244
    15  H    0.421208  -0.008615   0.518558  -0.026480
    16  H    0.413594   0.005244  -0.026480   0.535081
 Mulliken charges:
               1
     1  C    0.241258
     2  C   -0.206896
     3  C   -0.202436
     4  C   -0.104184
     5  C   -0.107747
     6  C   -0.132620
     7  H    0.105796
     8  H    0.113744
     9  H    0.118354
    10  H    0.118507
    11  H    0.119813
    12  C   -0.161402
    13  C   -0.260001
    14  H    0.110896
    15  H    0.131140
    16  H    0.115777
 Sum of Mulliken charges =   0.00000
 Mulliken charges with hydrogens summed into heavy atoms:
               1
     1  C    0.241258
     2  C   -0.101099
     3  C   -0.088693
     4  C    0.014170
     5  C    0.010760
     6  C   -0.012807
    12  C   -0.050506
    13  C   -0.013083
 Electronic spatial extent (au):  <R**2>=            981.5381
 Charge=              0.0000 electrons
 Dipole moment (field-independent basis, Debye):
    X=              0.0799    Y=             -0.1655    Z=              0.0000  Tot=              0.1838
 Quadrupole moment (field-independent basis, Debye-Ang):
   XX=            -42.0935   YY=            -42.4841   ZZ=            -52.8356
   XY=              0.2351   XZ=              0.0000   YZ=              0.0000
 Traceless Quadrupole moment (field-independent basis, Debye-Ang):
   XX=              3.7109   YY=              3.3203   ZZ=             -7.0312
   XY=              0.2351   XZ=              0.0000   YZ=              0.0000
 Octapole moment (field-independent basis, Debye-Ang**2):
  XXX=              0.6480  YYY=             -2.7069  ZZZ=              0.0000  XYY=              0.8462
  XXY=             -0.8604  XXZ=              0.0000  XZZ=              0.3839  YZZ=             -0.7252
  YYZ=              0.0000  XYZ=              0.0000
 Hexadecapole moment (field-independent basis, Debye-Ang**3):
 XXXX=           -399.8580 YYYY=           -794.1047 ZZZZ=            -62.2456 XXXY=            109.0155
 XXXZ=              0.0000 YYYX=            106.6394 YYYZ=              0.0000 ZZZX=              0.0000
 ZZZY=              0.0000 XXYY=           -200.6034 XXZZ=            -92.4434 YYZZ=           -176.7383
 XXYZ=              0.0000 YYXZ=              0.0000 ZZXY=             44.9391
 N-N= 3.214175221097D+02 E-N=-1.360670759734D+03  KE= 3.080937495465D+02
 Symmetry A'   KE= 2.996443518719D+02
 Symmetry A"   KE= 8.449397674650D+00
 No NMR shielding tensors so no spin-rotation constants.
 Leave Link  601 at Sat Jul 10 20:11:11 2021, MaxMem=  4194304000 cpu:       165.7
 (Enter /home/minenky/programs//g09/l701.exe)
 Compute integral first derivatives.
 ... and contract with generalized density number  0.
 R6Disp: Adding Grimme-D2 dispersion energy 1st derivatives to the gradient.
   2 Symmetry operations used in ECPInt.
 ECPInt:  NShTT=    7260 NPrTT=   21936 LenC2=    7093 LenP2D=   17263.
 LDataN:  DoStor=T MaxTD1= 7 Len=  274
 Leave Link  701 at Sat Jul 10 20:11:13 2021, MaxMem=  4194304000 cpu:        18.8
 (Enter /home/minenky/programs//g09/l702.exe)
 L702 exits ... SP integral derivatives will be done elsewhere.
 Leave Link  702 at Sat Jul 10 20:11:13 2021, MaxMem=  4194304000 cpu:         0.1
 (Enter /home/minenky/programs//g09/l703.exe)
 Compute integral first derivatives, UseDBF=F ICtDFT=           0.
 Integral derivatives from FoFJK, PRISM(SPDF).
 Calling FoFJK, ICntrl=      2127 FMM=F ISym2X=1 I1Cent= 0 IOpClX= 0 NMat=1 NMatS=1 NMatT=0.
 FoFJK:  IHMeth= 1 ICntrl=    2127 DoSepK=T KAlg= 0 I1Cent=   0 FoldK=F
 IRaf=         1 NMat=   1 IRICut=       1 DoRegI=T DoRafI=F ISym2E= 1.
 FoFCou: FMM=F IPFlag=           0 FMFlag=      100000 FMFlg1=         800
         NFxFlg=           0 DoJE=F BraDBF=F KetDBF=F FulRan=T
         wScrn=  0.000000 ICntrl=    2527 IOpCl=  0 I1Cent=           0 NGrid=           0
         NMat0=    1 NMatS0=      1 NMatT0=    0 NMatD0=    1 NMtDS0=    0 NMtDT0=    0
 Petite list used in FoFCou.
 Leave Link  703 at Sat Jul 10 20:11:32 2021, MaxMem=  4194304000 cpu:       304.3
 (Enter /home/minenky/programs//g09/l716.exe)
 Dipole        = 3.14546950D-02-6.51078457D-02 0.00000000D+00
 ***** Axes restored to original set *****
 -------------------------------------------------------------------
 Center     Atomic                   Forces (Hartrees/Bohr)
 Number     Number              X              Y              Z
 -------------------------------------------------------------------
      1        6          -0.000008192    0.000002342    0.000000000
      2        6           0.000002612    0.000000859    0.000000000
      3        6           0.000003993   -0.000003777    0.000000000
      4        6           0.000003447   -0.000001247    0.000000000
      5        6           0.000001211    0.000006058    0.000000000
      6        6          -0.000004269   -0.000001443    0.000000000
      7        1          -0.000000665   -0.000000259    0.000000000
      8        1          -0.000000261    0.000000917    0.000000000
      9        1          -0.000000227    0.000000028    0.000000000
     10        1           0.000000270    0.000000078    0.000000000
     11        1           0.000001004    0.000000215    0.000000000
     12        6           0.000000596   -0.000001167    0.000000000
     13        6           0.000003601    0.000000331    0.000000000
     14        1           0.000000082   -0.000000453    0.000000000
     15        1          -0.000002011   -0.000000922    0.000000000
     16        1          -0.000001190   -0.000001560    0.000000000
 -------------------------------------------------------------------
 Cartesian Forces:  Max     0.000008192 RMS     0.000002085
 Leave Link  716 at Sat Jul 10 20:11:33 2021, MaxMem=  4194304000 cpu:         0.1
 (Enter /home/minenky/programs//g09/l103.exe)

 GradGradGradGradGradGradGradGradGradGradGradGradGradGradGradGradGradGrad
 Berny optimization.
 FormGI is forming the generalized inverse of G from B-inverse, IUseBI=4.
 Internal  Forces:  Max     0.000003508 RMS     0.000001106
 Search for a local minimum.
 Step number   1 out of a maximum of   82
 All quantities printed in internal units (Hartrees-Bohrs-Radians)
 RMS Force = .11060D-05 SwitMx=.10000D-02 MixMth= 2
 Mixed Optimization -- En-DIIS/RFO-DIIS
 Second derivative matrix not updated -- first step.
 ITU=  0
     Eigenvalues ---   -0.00040   0.01634   0.01732   0.01801   0.02269
     Eigenvalues ---    0.02371   0.02445   0.02552   0.02717   0.02804
     Eigenvalues ---    0.02887   0.03041   0.04034   0.10530   0.11059
     Eigenvalues ---    0.11310   0.11815   0.11943   0.12367   0.12832
     Eigenvalues ---    0.13698   0.17800   0.19503   0.19536   0.20125
     Eigenvalues ---    0.22593   0.28676   0.34018   0.35453   0.35986
     Eigenvalues ---    0.36221   0.36245   0.36303   0.36451   0.36601
     Eigenvalues ---    0.37135   0.42508   0.43310   0.47980   0.48312
     Eigenvalues ---    0.52322   0.63761
 Eigenvalue     1 is  -4.02D-04 should be greater than     0.000000 Eigenvector:
                          D9        D11       D10       D12       D2
   1                   -0.51597  -0.51309  -0.47325  -0.47037  -0.06885
                          D4        D32       D15       D31       D5
   1                   -0.06599  -0.06503   0.04553  -0.03933   0.03550
 RFO step:  Lambda=-4.01814104D-04 EMin=-4.01811124D-04
 I=     1 Eig=   -4.02D-04 Dot1= -2.02D-19
 I=     1 Stepn=  6.00D-01 RXN=   6.00D-01 EDone=F
 Mixed    1 eigenvectors in step.  Raw Step.Grad= -2.02D-19.
 RFO eigenvector is Hessian eigenvector with negative curvature.
 Taking step of  6.00D-01 in eigenvector direction(s).  Step.Grad= -8.10D-08.
 Linear search not attempted -- first point.
 Iteration  1 RMS(Cart)=  0.10275395 RMS(Int)=  0.02410812
 Iteration  2 RMS(Cart)=  0.04885208 RMS(Int)=  0.00133402
 Iteration  3 RMS(Cart)=  0.00198485 RMS(Int)=  0.00002581
 Iteration  4 RMS(Cart)=  0.00000222 RMS(Int)=  0.00002577
 Iteration  5 RMS(Cart)=  0.00000000 RMS(Int)=  0.00002577
[...]
    D8        0.00010   0.00000   0.00000   0.00003   0.00003   0.00012
    D9       -0.00310   0.00000   0.00000  -0.00075  -0.00075  -0.00385
   D10        3.13874   0.00000   0.00000  -0.00069  -0.00069   3.13805
   D11        3.13852   0.00000   0.00000  -0.00075  -0.00075   3.13777
   D12       -0.00283   0.00000   0.00000  -0.00069  -0.00069  -0.00352
   D13        0.00006   0.00000   0.00000   0.00001   0.00001   0.00007
   D14        3.14155   0.00000   0.00000  -0.00001  -0.00001   3.14154
   D15       -3.14134   0.00000   0.00000   0.00006   0.00006  -3.14127
   D16        0.00016   0.00000   0.00000   0.00004   0.00004   0.00020
   D17       -0.00009   0.00000   0.00000  -0.00002  -0.00002  -0.00011
   D18        3.14154   0.00000   0.00000  -0.00001  -0.00001   3.14153
   D19        3.14158   0.00000   0.00000   0.00000   0.00000   3.14158
   D20        0.00002   0.00000   0.00000   0.00001   0.00001   0.00003
   D21        0.00006   0.00000   0.00000   0.00002   0.00002   0.00008
   D22        3.14155   0.00000   0.00000  -0.00001  -0.00001   3.14154
   D23       -3.14143   0.00000   0.00000   0.00004   0.00004  -3.14139
   D24        0.00006   0.00000   0.00000   0.00001   0.00001   0.00008
   D25       -0.00005   0.00000   0.00000  -0.00001  -0.00001  -0.00006
   D26       -3.14154   0.00000   0.00000   0.00001   0.00001  -3.14153
   D27        3.14151   0.00000   0.00000  -0.00002  -0.00002   3.14149
   D28        0.00002   0.00000   0.00000   0.00000   0.00000   0.00003
   D29       -3.14156   0.00000   0.00000   0.00001   0.00001  -3.14156
   D30       -0.00010   0.00000   0.00000  -0.00002  -0.00002  -0.00013
   D31       -0.00022   0.00000   0.00000  -0.00005  -0.00005  -0.00028
   D32        3.14124   0.00000   0.00000  -0.00009  -0.00009   3.14115
         Item               Value     Threshold  Converged?
 Maximum Force            0.000000     0.000002     YES
 RMS     Force            0.000000     0.000001     YES
 Maximum Displacement     0.001885     0.000006     NO 
 RMS     Displacement     0.000362     0.000004     NO 
 Predicted change in Energy=-6.699306D-11
 GradGradGradGradGradGradGradGradGradGradGradGradGradGradGradGradGradGrad

 Leave Link  103 at Sat Jul 10 20:45:39 2021, MaxMem=  4194304000 cpu:        11.5
 (Enter /home/minenky/programs//g09/l9999.exe)
 1\1\GINC-CN513-11-R\Freq\RwB97XD\def2TZVP\C8H8\MINENKY\10-Jul-2021\0\\
 #P Geom=AllCheck Guess=TCheck SCRF=Check GenChk RwB97XD/def2TZVP Freq\
 \The PBEPBE optimization and frequencies\\0,1\C,-0.0001698995,0.554660
 7727,0.0006989338\C,-0.9980387572,-0.4216549681,0.0012066547\C,1.32896
 98491,0.1347720245,-0.000181755\C,-0.6743255634,-1.765935043,0.0006268
 615\C,1.6566339297,-1.2119839605,-0.000781667\C,0.6549391834,-2.168355
 2343,-0.0004076016\H,-2.0406518753,-0.1304414043,0.0022542037\H,2.1177
 351982,0.878408828,-0.0004697286\H,-1.463651519,-2.5072305328,0.001076
 8568\H,2.6966451613,-1.5130888644,-0.0015121842\H,0.9051293556,-3.2215
 954147,-0.0008233957\C,-0.2894042405,1.9974770132,0.0010826731\C,-1.48
 29123271,2.5786238991,-0.0013417241\H,0.59044729,2.6348215878,0.003423
 1414\H,-1.5724672687,3.6568224669,-0.0007785524\H,-2.4085470668,2.0160
 083379,-0.0040727164\\Version=AM64L-G09RevD.01\State=1-A\HF=-309.64566
 98\RMSD=3.796e-09\RMSF=1.133e-06\ZeroPoint=0.1342853\Thermal=0.1410699
 \Dipole=0.0314525,-0.0651028,-0.0000012\DipoleDeriv=-0.0093497,-0.1503
 459,-0.00016,-0.0933738,0.1001053,-0.0001755,0.0002187,-0.0008104,0.00
 64483,0.0310872,-0.0264492,-0.0002695,-0.0164958,-0.1312519,0.000162,-
 0.0003544,0.0003048,-0.1107689,-0.0112367,0.1140151,-0.0000492,0.13523
 13,-0.060207,0.0000861,-0.0000003,-0.0002098,-0.1256891,0.0128013,0.13
 11323,-0.0001361,0.0990925,0.0170855,-0.0000522,-0.0000529,-0.0001107,
 -0.1336931,0.1186365,-0.0858231,-0.0001338,-0.0728145,-0.027014,0.0000
 574,-0.0002588,0.000257,-0.1390979,-0.0423507,-0.0442249,-0.0000771,0.
 0108617,-0.006382,0.0001181,-0.0001025,0.0000812,-0.1391407,-0.0652526
 ,0.0377101,0.0001815,0.0567008,0.0675238,-0.0000809,0.0002053,-0.00007
 69,0.1219371,-0.0005298,-0.0760146,0.0000768,-0.0962237,-0.0216487,-0.
 0000164,0.0000738,-0.0000388,0.1320088,-0.0159567,-0.0889388,0.0000992
 ,-0.0722169,-0.0192273,0.0000327,0.0001382,0.0000109,0.1350653,-0.0852
 193,0.054603,0.0001435,0.0455301,0.0511752,-0.0000386,0.0001365,-0.000
 0692,0.1354873,0.0633744,0.0371748,0.0000653,0.0387788,-0.0873829,-0.0
 000778,0.0000693,-0.0000919,0.1387721,0.1145892,0.0462952,0.0006928,-0
 .0997828,0.3788281,0.0001472,0.0002219,0.0010165,-0.1464291,-0.0882874
 ,0.197267,0.0007046,0.159581,-0.1674007,0.0004962,0.0006364,0.0006051,
 -0.3012562,-0.0597808,-0.0913215,-0.0004664,-0.0276717,-0.0241029,-0.0
 001919,-0.0003559,-0.0002613,0.131199,0.0584211,-0.0043087,-0.0002176,
 0.037276,-0.0844914,-0.0000977,-0.0000857,-0.0003121,0.1494467,-0.0209
 463,-0.0507708,-0.000454,-0.1044731,0.0143909,-0.0003688,-0.0004895,-0
 .0002944,0.1457104\Polar=104.5187406,-17.9975546,123.5538866,0.0047817
 ,-0.0046864,50.5623366\PG=C01 [X(C8H8)]\NImag=0\\0.68409937,0.00791242
 ,0.66576820,-0.00024420,0.00009337,0.16448608,-0.23181443,-0.12268304,
 0.00008155,0.73510052,-0.06028563,-0.21161066,0.00002516,-0.03280602,0
 .69449750,0.00011954,0.00007731,-0.07142129,-0.00050644,0.00015286,0.1
 3907264,-0.30811587,0.08485208,0.00015589,-0.05105692,-0.05289024,0.00
 001945,0.70339039,0.01449563,-0.14465753,-0.00004427,-0.00360465,0.063
 37775,0.00002530,0.03169015,0.72560678,0.00013316,-0.00009663,-0.07029
 382,0.00004594,0.00006121,0.00930612,-0.00033065,0.00013873,0.13954250
 ,0.06231205,-0.00582274,-0.00002566,-0.14563569,0.01263609,0.00006056,
 -0.03767504,0.03944584,0.00003288,0.71631038,-0.06144283,-0.05139025,0
 .00001983,0.08722745,-0.34149961,-0.00012421,0.03702719,-0.04335452,-0
 .00003794,0.03759212,0.71860533,-0.00006138,-0.00000212,0.00708595,0.0
 0008680,-0.00007893,-0.06190605,0.00003289,-0.00003806,-0.00706639,-0.
 00042361,0.00010492,0.13659776,0.01092466,0.03734313,0.00000828,-0.007
 34589,-0.02100188,-0.00000796,-0.14628266,0.08648307,0.00007844,-0.053
 61779,-0.00285935,0.00004089,0.75213367,0.09199719,0.00199847,-0.00005
 715,-0.02017789,-0.07217237,-0.00001190,0.01294559,-0.33177168,-0.0000
 8613,-0.05831033,0.06677142,0.00005524,-0.01860014,0.68379949,0.000013
 80,-0.00002032,0.00736504,-0.00000613,-0.00000491,-0.00632944,0.000061
 27,-0.00013272,-0.06334880,0.00002438,0.00001610,0.00720773,-0.0003919
 5,0.00016471,0.13651359,-0.07482830,-0.01979774,0.00003436,0.00997583,
 0.09434852,0.00003216,0.06171613,-0.06546927,-0.00005528,-0.32090954,0
 .01909548,0.00018899,-0.24565067,-0.06904512,0.00009328,0.67659084,-0.
 01870840,-0.00272941,0.00000778,0.03873068,0.00208874,-0.00003084,-0.0
 0883785,-0.05045735,-0.00000935,0.09357213,-0.15085266,-0.00008206,-0.
 14351460,-0.23569312,0.00004535,-0.01535218,0.75569859,0.00004120,0.00
 001833,-0.00698689,0.00000645,-0.00007122,0.00695762,-0.00003980,0.000
 02735,0.00720162,0.00020048,-0.00002696,-0.06310129,0.00007643,-0.0000
 0377,-0.06291356,-0.00036233,0.00017033,0.13509695,-0.01798764,0.00821
 386,0.00002097,-0.32045075,0.07190583,0.00028109,-0.00140476,-0.004124
 84,0.00000590,-0.00362218,-0.00070186,0.00000324,0.00051837,-0.0005226
 6,-0.00000092,0.00172984,0.00133876,0.00000684,0.34049823,-0.02052809,
 0.01211259,0.00002107,0.07063422,-0.07962101,-0.00007836,-0.00320845,-
 0.00298728,-0.00000045,0.03152780,-0.00375323,-0.00002656,-0.00056251,
 -0.00108507,0.00000042,0.00059696,-0.00567323,-0.00000296,-0.07937487,
 0.08271114,0.00001086,-0.00002516,0.00371811,0.00029335,-0.00007341,-0
 .03799975,0.00000031,0.00000275,0.00653982,0.00000997,0.00000294,0.003
 45545,-0.00000140,-0.00000171,-0.00082447,0.00000707,-0.00000311,0.008
 13717,-0.00030672,0.00007197,0.02490911,-0.01707350,-0.02264702,0.0000
 0682,-0.00490443,0.00299777,0.00000730,-0.20771038,-0.13791143,0.00006
 610,-0.00035948,0.00114476,0.00000022,0.00907358,0.00701817,-0.0000013
 0,0.00111823,0.00215150,0.00000421,-0.00097845,-0.00120236,0.00000078,
 0.21851931,0.00680317,0.00773414,-0.00000380,0.00215954,0.00058834,-0.
 00000354,-0.13861885,-0.18960304,0.00004316,0.00098053,-0.00033265,-0.
 00000049,-0.02470377,-0.01570114,0.00001253,0.00283503,-0.00493802,-0.
 00000547,0.00048170,0.00027009,0.00000021,0.14904491,0.20100009,0.0000
 1641,0.00001286,0.00367489,0.00000890,-0.00000219,0.00625628,0.0000692
 6,0.00004373,-0.03721955,0.00000031,0.,-0.00076938,-0.00001259,-0.0000
 1034,0.00290462,0.00000600,-0.00000571,0.00761980,0.00000022,0.0000012
 4,0.00036384,-0.00007818,-0.00004498,0.02574996,0.00101221,0.00220623,
 0.00000541,0.00891190,0.00713612,-0.00000348,-0.00023732,0.00118738,0.
 00000008,-0.20992038,-0.14023322,0.00010399,-0.00488159,0.00296661,0.0
 0000974,-0.01615368,-0.02331475,0.00000954,0.00088638,-0.00034039,-0.0
 0000406,0.00002546,-0.00009305,-0.00000093,0.22008504,0.00270913,-0.00
 479751,-0.00000356,-0.02456969,-0.01586617,0.00001556,0.00116414,-0.00
 045744,-0.00000097,-0.13993471,-0.19196577,0.00007261,0.00239807,0.000
 75154,-0.00000276,0.00840701,0.01011064,-0.00000465,0.00029651,0.00086
 335,0.00000084,-0.00009880,0.00000078,0.00000029,0.15092301,0.20112838
 ,0.00000381,-0.00000775,0.00825337,-0.00000891,-0.00000561,0.00276863,
 0.00000150,-0.00000279,-0.00085105,0.00010836,0.00007082,-0.03753378,0
 .00000977,-0.00000151,0.00741102,0.00001177,0.00001898,0.00279111,-0.0
 0000471,0.00000157,-0.00425956,-0.00000061,0.00000042,-0.00109004,-0.0
 0011699,-0.00007814,0.02626741,0.00193110,0.00116119,0.00000409,0.0006
 1827,-0.00058305,-0.00000123,-0.00331845,-0.00075447,0.00000358,-0.001
 49389,-0.00412674,0.00000478,-0.31988885,0.07502256,0.00019509,-0.0167
 6085,0.00961976,0.00001481,-0.00005021,0.00005679,-0.00000066,0.000797
 93,0.00035378,-0.00000271,-0.00094378,0.00046123,0.00000095,0.33867661
 ,0.00045553,-0.00546309,-0.00000436,-0.00062449,-0.00130994,0.,0.03112
 378,-0.00320504,-0.00002112,-0.00354046,-0.00255244,-0.00000037,0.0748
 6248,-0.08232923,-0.00005765,-0.02208425,0.01081174,0.00001561,0.00007
 475,0.00009251,0.00000025,-0.00039872,0.00082973,0.00000161,-0.0011045
 8,0.00032695,0.00000102,-0.08082003,0.08243368,0.00000628,-0.00000448,
 0.00779489,-0.00000180,-0.00000061,-0.00088161,0.00001193,0.00000083,0
 .00264659,0.00000517,-0.00000098,0.00778863,0.00019419,-0.00005839,-0.
 03736221,0.00000575,-0.00000350,0.00293490,-0.00000100,0.00000013,-0.0
 0119730,-0.00000290,0.00000100,-0.00397652,0.00000002,-0.00000006,0.00
 008987,-0.00021553,0.00006451,0.02614732,-0.00142448,-0.00057964,-0.00
 000028,-0.00547314,0.00109902,0.00000985,-0.00291318,-0.00336348,0.000
 00573,-0.00130369,0.03074291,0.00000900,0.01004016,-0.02341081,-0.0000
 1024,-0.07588350,0.06341815,0.00004130,-0.00030111,0.00144791,0.000000
 72,0.00026858,-0.00116247,-0.00000061,0.00087328,-0.00047974,-0.000003
 53,0.00080720,0.00051898,-0.00000281,0.07508944,-0.00048940,0.00058095
 ,0.00000086,0.00170126,0.00153793,-0.00000281,-0.00396880,-0.00098578,
 0.00000030,-0.00100170,-0.00462493,-0.00000075,0.00830686,-0.01600082,
 -0.00000955,0.06341058,-0.32748407,-0.00011128,-0.00007432,-0.00034816
 ,0.00000001,0.00039043,-0.00090192,-0.00000072,0.00038369,0.00072021,0
 .00000080,-0.00034966,0.00079003,0.00000139,-0.06836909,0.34670615,0.0
 0000181,-0.00000131,-0.00114634,0.00000917,-0.00000144,0.00749561,0.00
 000434,0.00000055,0.00795173,0.00000426,-0.00002255,0.00256116,-0.0000
 0372,0.00000829,0.00275605,0.00004101,-0.00010944,-0.03681192,0.000000
 72,-0.00000175,-0.00002866,-0.00000012,0.00000008,0.00009921,-0.000003
 48,0.00000113,-0.00376512,-0.00000311,0.00000096,-0.00401507,-0.000048
 74,0.00012163,0.02579852,-0.10800484,0.00575237,-0.00003970,0.01528389
 ,-0.01801051,-0.00000446,-0.01114738,0.04065507,0.00000612,-0.00306742
 ,-0.00607204,0.00001544,-0.00554908,-0.00037325,0.00000704,-0.00218120
 ,0.00124688,0.00000221,-0.00043158,0.00099766,-0.00001287,0.00058170,0
 .00225354,0.00000095,0.00036150,-0.00146774,-0.00000117,-0.00033774,0.
 00148738,0.00000071,0.00012660,-0.00000224,-0.00000166,0.84919915,0.02
 602247,-0.23243077,-0.00005480,-0.00348185,-0.03509309,-0.00001854,0.0
 1592598,-0.01822480,0.00000197,-0.00578338,0.00419858,-0.00000258,0.00
 032838,0.00366798,-0.00000862,0.00132232,-0.00093764,-0.00000288,0.001
 73913,0.00034478,0.00001239,-0.00266803,0.00092226,0.00000722,0.000257
 00,-0.00024157,0.00000106,-0.00025907,0.00020530,0.00000090,0.00001808
 ,0.00001826,0.00000347,-0.07801242,0.62285223,-0.00001017,-0.00007819,
 -0.06687116,-0.00000306,0.00000842,0.00435533,0.00000436,-0.00001957,0
 .00484088,0.00000362,-0.00000428,0.00646288,0.00000896,-0.00000350,0.0
 0766622,-0.00000172,0.00000420,-0.00103607,-0.00000460,0.00000146,-0.0
 0364420,-0.00000797,0.00000387,-0.00426733,0.00000012,-0.00000018,0.00
 009576,-0.00000007,-0.00000083,0.00013713,-0.00000087,-0.00000008,-0.0
 0110444,0.00147737,0.00012024,0.13820492,-0.00176464,0.02083454,0.0000
 0027,-0.00185375,-0.00554383,-0.00001081,0.00337609,-0.00231867,0.0000
 0315,-0.00210746,0.00197481,-0.00000261,0.00063995,0.00081304,-0.00000
 004,0.00098439,-0.00030358,-0.00000034,0.00016468,-0.00103631,0.000011
 72,0.00041619,-0.00021295,-0.00000266,0.00001559,0.00005155,-0.0000004
 6,-0.00002284,-0.00005631,0.00000024,-0.00002274,0.00009171,0.00000100
 ,-0.48032659,0.16219948,-0.00089425,0.82156278,0.03532955,-0.01902414,
 0.00005875,0.00272514,0.00008128,0.00000869,-0.00442717,-0.00383493,-0
 .00000094,0.00049931,0.00087608,-0.00000580,0.00103675,-0.00199701,-0.
 00000385,0.00126922,-0.00013847,-0.00000119,0.00020334,-0.00113917,0.0
 0000811,0.00064527,0.00021821,0.00000094,-0.00008956,-0.00008522,0.000
 00045,0.00019004,-0.00054873,-0.00000026,0.00003367,-0.00002233,0.0000
 0068,0.17367266,-0.19534242,0.00032223,-0.08376469,0.69283513,0.000001
 91,0.00001381,0.00667367,0.00000308,0.00000116,0.00083454,0.00000816,-
 0.00001057,0.00152981,-0.00000186,-0.00000344,-0.00040768,0.00000191,0
 .00000512,-0.00024178,-0.00000414,-0.00000032,-0.00009596,-0.00000286,
 0.00000348,0.00000063,0.00000112,-0.00000092,0.00009842,0.00000023,-0.
 00000030,0.00002623,0.00000008,-0.00000021,-0.00008424,-0.00000030,0.0
 0000020,0.00007704,-0.00090155,0.00030492,-0.05458556,0.00166967,0.000
 22533,0.11035941,0.00402882,0.00487157,0.00000838,-0.00007824,0.001354
 96,-0.00000257,0.00128005,0.00211446,0.00000316,0.00016439,0.00021520,
 -0.00000094,0.00013662,-0.00020369,0.00000315,0.00012236,0.00005791,0.
 00000014,0.00006901,0.00011497,-0.00000012,0.00002357,-0.00007654,-0.0
 0000277,-0.00000245,0.00005163,0.00000001,0.00001598,-0.00003586,-0.00
 000020,0.00000849,-0.00001182,-0.00000075,-0.23369456,-0.13087324,-0.0
 0050068,-0.02319675,-0.01853702,-0.00008119,0.25362189,-0.02542474,-0.
 01697037,-0.00005901,0.00350255,-0.00487731,-0.00000947,-0.00250883,0.
 00107167,0.00000734,-0.00175231,-0.00022743,0.00000550,0.00041473,-0.0
 0017659,0.00000125,0.00039280,0.00021487,-0.00000112,-0.00010654,0.000
 16510,-0.00000092,0.00160734,-0.00013364,-0.00000391,0.00011151,-0.000
 47149,0.00000036,0.00002305,-0.00004025,-0.00000012,0.00010059,0.00003
 145,-0.00000035,-0.13131715,-0.15315556,-0.00037158,0.01403000,0.01068
 204,0.00003684,0.13774346,0.16311382,-0.00001445,0.00001932,0.00350992
 ,0.00000127,-0.00000597,0.00195483,-0.00000116,0.00000203,-0.00079724,
 -0.00000534,0.00000613,-0.00002061,0.00000094,-0.00000070,-0.00012368,
 0.00000420,-0.00000003,0.00014052,-0.00000073,-0.00000003,-0.00002497,
 0.00000291,-0.00000161,0.00024671,0.,-0.00000015,-0.00024309,-0.000000
 02,-0.00000014,-0.00001576,0.00000024,0.00000007,0.00001747,-0.0004867
 7,-0.00037992,-0.04187895,-0.00007374,-0.00003352,0.00676545,0.0005859
 4,0.00038866,0.02682288,-0.00425830,-0.00004768,-0.00003715,-0.0007041
 9,-0.00048381,0.00000343,0.00029847,0.00130044,0.00000044,0.00036490,0
 .00018000,0.00000069,-0.00037533,-0.00003079,0.00000283,0.00003995,-0.
 00006379,-0.00000077,0.00045417,0.00027991,-0.00000183,-0.00003573,-0.
 00004942,-0.00000077,-0.00001169,0.00005658,0.00000016,-0.00003349,0.0
 0012808,0.00000008,0.00003846,-0.00000244,-0.00000002,-0.00000400,0.03
 182519,0.00000752,-0.05742355,0.01568658,-0.00004632,0.00089853,0.0002
 5784,0.00002203,0.05619960,0.00179980,0.00154816,-0.00000414,-0.000179
 79,0.00022441,0.00000027,-0.00013417,-0.00065759,0.00000131,0.00005215
 ,0.00002083,0.00000050,0.00028500,-0.00001071,-0.00000030,0.00002283,0
 .00001480,-0.00000009,0.00014862,0.00023186,-0.00000113,0.00003946,0.0
 0002055,0.00000008,-0.00000664,-0.00002305,0.00000001,0.00001928,-0.00
 006639,-0.00000021,0.00001743,-0.00002161,-0.00000003,-0.00222593,-0.0
 0993499,-0.00001687,0.02143935,-0.34508571,-0.00017070,0.00038861,0.00
 116747,0.00000769,-0.02491956,0.36282688,-0.00003408,-0.00001458,0.011
 66009,0.00000217,-0.00000881,-0.00036540,-0.00000398,0.00001552,-0.000
 00469,-0.00000320,0.00000475,-0.00000582,-0.00000548,-0.00000570,-0.00
 074410,0.00000563,-0.00000011,0.00012562,0.,-0.00000039,-0.00023458,-0
 .00000003,0.00000016,0.00019775,-0.00000006,-0.00000006,-0.00000286,-0
 .00000018,0.00000077,-0.00001252,0.00000011,0.00000010,-0.00005694,-0.
 00001140,0.00007349,0.00519389,-0.00004012,-0.00018822,-0.03351945,0.0
 0002019,0.00000536,-0.00820448,0.00006331,0.00018509,0.02295990,0.0009
 6379,-0.00156953,0.00002097,-0.00057297,0.00012667,0.00000358,-0.00019
 917,0.00017477,0.00000126,0.00056086,0.00023613,0.00000161,0.00012484,
 -0.00008848,0.,0.00009016,-0.00004062,-0.00000039,0.00090601,0.0005967
 5,-0.00000710,0.00023742,0.00000484,-0.00000083,-0.00002048,0.00003183
 ,0.00000005,0.00000302,0.00001372,-0.00000016,0.00006963,-0.00001503,-
 0.00000072,-0.02080844,-0.01856004,-0.00007855,-0.26044135,-0.12447310
 ,-0.00064793,-0.00339770,0.00292570,-0.00003533,0.00455220,0.00325354,
 0.00000711,0.27793218,-0.00064582,-0.00066878,0.00000428,0.00144659,-0
 .00034580,-0.00000031,-0.00013454,0.00014076,-0.00000049,-0.00016033,0
 .00008124,-0.00000104,-0.00021620,-0.00005116,0.00000033,0.00004780,-0
 .00003541,-0.00000004,0.00050259,-0.00218426,0.00000597,-0.00011323,0.
 00002623,-0.00000011,0.00001064,0.00000637,0.00000031,-0.00001465,0.00
 002515,-0.00000014,-0.00003151,0.00000462,0.00000009,0.01141572,0.0131
 5145,0.00003466,-0.12819816,-0.13747460,-0.00040439,0.00282539,-0.0003
 9378,-0.00000183,-0.02411711,-0.01025489,-0.00006736,0.13738283,0.1379
 7283,0.00001550,0.00001556,-0.00750249,-0.00001234,0.00000431,-0.00009
 805,0.00000624,-0.00000881,0.00002246,0.00000968,-0.00000513,-0.000348
 55,0.00000328,0.00000745,0.00006378,-0.00000674,-0.00000217,-0.0000596
 3,0.00000255,0.00000915,0.00108936,0.00000164,-0.00000061,0.00011135,-
 0.00000013,0.00000043,0.00004211,0.00000013,-0.00000004,0.00000592,0.0
 0000045,-0.00000016,0.00017172,-0.00005026,-0.00005833,0.00643070,-0.0
 0066103,-0.00039140,-0.03743053,-0.00003177,0.00000115,0.01185100,-0.0
 0001362,-0.00000149,0.00301356,0.00073643,0.00043009,0.02263730\\0.000
 00041,-0.00000011,0.,-0.00000032,0.00000091,0.,-0.00000010,-0.00000096
 ,0.,-0.00000152,0.00000055,0.00000002,-0.00000099,-0.00000121,0.000000
 02,-0.00000175,-0.00000055,0.00000003,-0.00000015,0.00000151,0.,0.0000
 0056,-0.00000179,-0.00000001,-0.00000207,0.00000103,0.00000003,-0.0000
 0123,-0.00000219,0.00000002,-0.00000257,-0.00000085,0.00000005,0.00000
 153,0.00000015,-0.00000006,0.00000210,0.00000101,0.,0.00000188,-0.0000
 0056,-0.00000006,0.00000276,0.00000124,-0.00000005,0.00000146,0.000001
 82,0.\\\@


 THE UNDERLYING PHYSICAL LAWS NECESSARY FOR THE 
 MATHEMATICAL THEORY OF A LARGE PART OF PHYSICS AND THE
 WHOLE OF CHEMISTRY ARE THUS COMPLETELY KNOWN, AND THE
 DIFFICULTY IS ONLY THAT THE EXACT APPLICATION OF THESE
 LAWS LEADS TO EQUATIONS MUCH TOO COMPLICATED 
 TO BE SOLUBLE.

                                        -- P. A. M. DIRAC, 1929
 Job cpu time:       0 days  2 hours 21 minutes 29.9 seconds.
 File lengths (MBytes):  RWF=    130 Int=      0 D2E=      0 Chk=      7 Scr=      1
 Normal termination of Gaussian 09 at Sat Jul 10 20:45:40 2021.
