 Entering Gaussian System, Link 0=g09
 Initial command:
 /home/minenky/programs//g09/l1.exe "/local/scratch/minenky/m1_00_109-66-00_C5H12_wB97XD/Gau-178436.inp" -scrdir="/local/scratch/minenky/m1_00_109-66-00_C5H12_wB97XD/"
 Entering Link 1 = /home/minenky/programs//g09/l1.exe PID=    178451.
  
 Copyright (c) 1988,1990,1992,1993,1995,1998,2003,2009,2013,
            Gaussian, Inc.  All Rights Reserved.
  
 This is part of the Gaussian(R) 09 program.  It is based on
 the Gaussian(R) 03 system (copyright 2003, Gaussian, Inc.),
 the Gaussian(R) 98 system (copyright 1998, Gaussian, Inc.),
 the Gaussian(R) 94 system (copyright 1995, Gaussian, Inc.),
 the Gaussian 92(TM) system (copyright 1992, Gaussian, Inc.),
 the Gaussian 90(TM) system (copyright 1990, Gaussian, Inc.),
 the Gaussian 88(TM) system (copyright 1988, Gaussian, Inc.),
 the Gaussian 86(TM) system (copyright 1986, Carnegie Mellon
 University), and the Gaussian 82(TM) system (copyright 1983,
 Carnegie Mellon University). Gaussian is a federally registered
 trademark of Gaussian, Inc.
  
 This software contains proprietary and confidential information,
 including trade secrets, belonging to Gaussian, Inc.
  
 This software is provided under written license and may be
 used, copied, transmitted, or stored only in accord with that
 written license.
  
 The following legend is applicable only to US Government
 contracts under FAR:
  
                    RESTRICTED RIGHTS LEGEND
  
 Use, reproduction and disclosure by the US Government is
 subject to restrictions as set forth in subparagraphs (a)
 and (c) of the Commercial Computer Software - Restricted
 Rights clause in FAR 52.227-19.
  
 Gaussian, Inc.
 340 Quinnipiac St., Bldg. 40, Wallingford CT 06492
  
  
 ---------------------------------------------------------------
 Warning -- This program may not be used in any manner that
 competes with the business of Gaussian, Inc. or will provide
 assistance to any competitor of Gaussian, Inc.  The licensee
 of this program is prohibited from giving any competitor of
 Gaussian, Inc. access to this program.  By using this program,
 the user acknowledges that Gaussian, Inc. is engaged in the
 business of creating and licensing software in the field of
 computational chemistry and represents and warrants to the
 licensee that it is not a competitor of Gaussian, Inc. and that
 it will not use this program in any manner prohibited above.
 ---------------------------------------------------------------
  

 Cite this work as:
 Gaussian 09, Revision D.01,
 M. J. Frisch, G. W. Trucks, H. B. Schlegel, G. E. Scuseria, 
 M. A. Robb, J. R. Cheeseman, G. Scalmani, V. Barone, B. Mennucci, 
 G. A. Petersson, H. Nakatsuji, M. Caricato, X. Li, H. P. Hratchian, 
 A. F. Izmaylov, J. Bloino, G. Zheng, J. L. Sonnenberg, M. Hada, 
 M. Ehara, K. Toyota, R. Fukuda, J. Hasegawa, M. Ishida, T. Nakajima, 
 Y. Honda, O. Kitao, H. Nakai, T. Vreven, J. A. Montgomery, Jr., 
 J. E. Peralta, F. Ogliaro, M. Bearpark, J. J. Heyd, E. Brothers, 
 K. N. Kudin, V. N. Staroverov, T. Keith, R. Kobayashi, J. Normand, 
 K. Raghavachari, A. Rendell, J. C. Burant, S. S. Iyengar, J. Tomasi, 
 M. Cossi, N. Rega, J. M. Millam, M. Klene, J. E. Knox, J. B. Cross, 
 V. Bakken, C. Adamo, J. Jaramillo, R. Gomperts, R. E. Stratmann, 
 O. Yazyev, A. J. Austin, R. Cammi, C. Pomelli, J. W. Ochterski, 
 R. L. Martin, K. Morokuma, V. G. Zakrzewski, G. A. Voth, 
 P. Salvador, J. J. Dannenberg, S. Dapprich, A. D. Daniels, 
 O. Farkas, J. B. Foresman, J. V. Ortiz, J. Cioslowski, 
 and D. J. Fox, Gaussian, Inc., Wallingford CT, 2013.
 
 ******************************************
 Gaussian 09:  AM64L-G09RevD.01 24-Apr-2013
                 9-Jul-2021 
 ******************************************
 %Mem=32000MB
 %NProcShared=16
 Will use up to   16 processors via shared memory.
 %Chk=m1_00_109-66-00_C5H12_wB97XD
 ----------------------------------------------------------------------
 #P wB97XD/def2tzvp opt=(tight) freq integral(Grid=ultrafine) # SCF(Max
 Cycle=380) 5d 7f GFPrint
 ----------------------------------------------------------------------
 1/7=10,14=-1,18=20,19=15,26=4,38=1/1,3;
 2/9=110,12=2,17=6,18=5,40=1/2;
 3/5=44,7=101,8=11,11=2,16=1,24=100,25=1,30=1,71=1,74=-58,75=-5/1,2,3;
 4//1;
 5/5=2,7=380,38=5/2;
 6/7=2,8=2,9=2,10=2,28=1/1;
 7//1,2,3,16;
 1/7=10,14=-1,18=20,19=15,26=4/3(2);
 2/9=110/2;
 99//99;
 2/9=110/2;
 3/5=44,7=101,8=11,11=2,16=1,25=1,30=1,71=1,74=-58,75=-5/1,2,3;
 4/5=5,16=3,69=1/1;
 5/5=2,7=380,38=5/2;
 7//1,2,3,16;
 1/7=10,14=-1,18=20,19=15,26=4/3(-5);
 2/9=110/2;
 6/7=2,8=2,9=2,10=2,19=2,28=1/1;
 99/9=1/99;
 Leave Link    1 at Fri Jul  9 19:19:35 2021, MaxMem=  4194304000 cpu:         0.9
 (Enter /home/minenky/programs//g09/l101.exe)
 ---------------------------------------
 The PBEPBE optimization and frequencies
 ---------------------------------------
 Symbolic Z-matrix:
 Charge =  0 Multiplicity = 1
 C                     0.        2.5474    0.3239 
 C                     0.        1.27752  -0.5223 
 C                     0.        0.        0.31335 
 H                     0.        3.44417  -0.29853 
 H                     0.88134   2.58955   0.96859 
 H                    -0.88134   2.58955   0.96859 
 H                     0.87488   1.27597  -1.18078 
 H                    -0.87488   1.27597  -1.18078 
 C                     0.       -1.27752  -0.5223 
 H                     0.87526   0.        0.97329 
 H                    -0.87526   0.        0.97329 
 C                     0.       -2.5474    0.3239 
 H                     0.87488  -1.27597  -1.18078 
 H                    -0.87488  -1.27597  -1.18078 
 H                     0.       -3.44417  -0.29853 
 H                     0.88134  -2.58955   0.96859 
 H                    -0.88134  -2.58955   0.96859 
 
 NAtoms=     17 NQM=       17 NQMF=       0 NMMI=      0 NMMIF=      0
                NMic=       0 NMicF=      0.
                    Isotopes and Nuclear Properties:
 (Nuclear quadrupole moments (NQMom) in fm**2, nuclear magnetic moments (NMagM)
  in nuclear magnetons)

  Atom         1           2           3           4           5           6           7           8           9          10
 IAtWgt=          12          12          12           1           1           1           1           1          12           1
 AtmWgt=  12.0000000  12.0000000  12.0000000   1.0078250   1.0078250   1.0078250   1.0078250   1.0078250  12.0000000   1.0078250
 NucSpn=           0           0           0           1           1           1           1           1           0           1
 AtZEff=   0.0000000   0.0000000   0.0000000   0.0000000   0.0000000   0.0000000   0.0000000   0.0000000   0.0000000   0.0000000
 NQMom=    0.0000000   0.0000000   0.0000000   0.0000000   0.0000000   0.0000000   0.0000000   0.0000000   0.0000000   0.0000000
 NMagM=    0.0000000   0.0000000   0.0000000   2.7928460   2.7928460   2.7928460   2.7928460   2.7928460   0.0000000   2.7928460
 AtZNuc=   6.0000000   6.0000000   6.0000000   1.0000000   1.0000000   1.0000000   1.0000000   1.0000000   6.0000000   1.0000000

  Atom        11          12          13          14          15          16          17
 IAtWgt=           1          12           1           1           1           1           1
 AtmWgt=   1.0078250  12.0000000   1.0078250   1.0078250   1.0078250   1.0078250   1.0078250
 NucSpn=           1           0           1           1           1           1           1
 AtZEff=   0.0000000   0.0000000   0.0000000   0.0000000   0.0000000   0.0000000   0.0000000
 NQMom=    0.0000000   0.0000000   0.0000000   0.0000000   0.0000000   0.0000000   0.0000000
 NMagM=    2.7928460   0.0000000   2.7928460   2.7928460   2.7928460   2.7928460   2.7928460
 AtZNuc=   1.0000000   6.0000000   1.0000000   1.0000000   1.0000000   1.0000000   1.0000000
 Leave Link  101 at Fri Jul  9 19:19:36 2021, MaxMem=  4194304000 cpu:         1.4
 (Enter /home/minenky/programs//g09/l103.exe)

 GradGradGradGradGradGradGradGradGradGradGradGradGradGradGradGradGradGrad
 Berny optimization.
 Initialization pass.
                           ----------------------------
                           !    Initial Parameters    !
                           ! (Angstroms and Degrees)  !
 --------------------------                            --------------------------
 ! Name  Definition              Value          Derivative Info.                !
 --------------------------------------------------------------------------------
 ! R1    R(1,2)                  1.526          estimate D2E/DX2                !
 ! R2    R(1,4)                  1.0916         estimate D2E/DX2                !
 ! R3    R(1,5)                  1.0928         estimate D2E/DX2                !
 ! R4    R(1,6)                  1.0928         estimate D2E/DX2                !
 ! R5    R(2,3)                  1.5266         estimate D2E/DX2                !
 ! R6    R(2,7)                  1.095          estimate D2E/DX2                !
 ! R7    R(2,8)                  1.095          estimate D2E/DX2                !
 ! R8    R(3,9)                  1.5266         estimate D2E/DX2                !
 ! R9    R(3,10)                 1.0962         estimate D2E/DX2                !
 ! R10   R(3,11)                 1.0962         estimate D2E/DX2                !
 ! R11   R(9,12)                 1.526          estimate D2E/DX2                !
 ! R12   R(9,13)                 1.095          estimate D2E/DX2                !
 ! R13   R(9,14)                 1.095          estimate D2E/DX2                !
 ! R14   R(12,15)                1.0916         estimate D2E/DX2                !
 ! R15   R(12,16)                1.0928         estimate D2E/DX2                !
 ! R16   R(12,17)                1.0928         estimate D2E/DX2                !
 ! A1    A(2,1,4)              111.558          estimate D2E/DX2                !
 ! A2    A(2,1,5)              111.0535         estimate D2E/DX2                !
 ! A3    A(2,1,6)              111.0535         estimate D2E/DX2                !
 ! A4    A(4,1,5)              107.7403         estimate D2E/DX2                !
 ! A5    A(4,1,6)              107.7403         estimate D2E/DX2                !
 ! A6    A(5,1,6)              107.514          estimate D2E/DX2                !
 ! A7    A(1,2,3)              113.1326         estimate D2E/DX2                !
 ! A8    A(1,2,7)              109.5507         estimate D2E/DX2                !
 ! A9    A(1,2,8)              109.5507         estimate D2E/DX2                !
 ! A10   A(3,2,7)              109.1477         estimate D2E/DX2                !
 ! A11   A(3,2,8)              109.1477         estimate D2E/DX2                !
 ! A12   A(7,2,8)              106.0658         estimate D2E/DX2                !
 ! A13   A(2,3,9)              113.6212         estimate D2E/DX2                !
 ! A14   A(2,3,10)             109.2422         estimate D2E/DX2                !
 ! A15   A(2,3,11)             109.2422         estimate D2E/DX2                !
 ! A16   A(9,3,10)             109.2422         estimate D2E/DX2                !
 ! A17   A(9,3,11)             109.2422         estimate D2E/DX2                !
 ! A18   A(10,3,11)            105.9677         estimate D2E/DX2                !
 ! A19   A(3,9,12)             113.1326         estimate D2E/DX2                !
 ! A20   A(3,9,13)             109.1477         estimate D2E/DX2                !
 ! A21   A(3,9,14)             109.1477         estimate D2E/DX2                !
 ! A22   A(12,9,13)            109.5507         estimate D2E/DX2                !
 ! A23   A(12,9,14)            109.5507         estimate D2E/DX2                !
 ! A24   A(13,9,14)            106.0658         estimate D2E/DX2                !
 ! A25   A(9,12,15)            111.558          estimate D2E/DX2                !
 ! A26   A(9,12,16)            111.0535         estimate D2E/DX2                !
 ! A27   A(9,12,17)            111.0535         estimate D2E/DX2                !
 ! A28   A(15,12,16)           107.7403         estimate D2E/DX2                !
 ! A29   A(15,12,17)           107.7403         estimate D2E/DX2                !
 ! A30   A(16,12,17)           107.514          estimate D2E/DX2                !
 ! D1    D(4,1,2,3)            180.0            estimate D2E/DX2                !
 ! D2    D(4,1,2,7)             57.9801         estimate D2E/DX2                !
 ! D3    D(4,1,2,8)            -57.9801         estimate D2E/DX2                !
 ! D4    D(5,1,2,3)             59.7922         estimate D2E/DX2                !
 ! D5    D(5,1,2,7)            -62.2276         estimate D2E/DX2                !
 ! D6    D(5,1,2,8)           -178.1879         estimate D2E/DX2                !
 ! D7    D(6,1,2,3)            -59.7922         estimate D2E/DX2                !
 ! D8    D(6,1,2,7)            178.1879         estimate D2E/DX2                !
 ! D9    D(6,1,2,8)             62.2276         estimate D2E/DX2                !
 ! D10   D(1,2,3,9)            180.0            estimate D2E/DX2                !
 ! D11   D(1,2,3,10)           -57.7483         estimate D2E/DX2                !
 ! D12   D(1,2,3,11)            57.7483         estimate D2E/DX2                !
 ! D13   D(7,2,3,9)            -57.7548         estimate D2E/DX2                !
 ! D14   D(7,2,3,10)            64.4969         estimate D2E/DX2                !
 ! D15   D(7,2,3,11)           179.9935         estimate D2E/DX2                !
 ! D16   D(8,2,3,9)             57.7548         estimate D2E/DX2                !
 ! D17   D(8,2,3,10)          -179.9935         estimate D2E/DX2                !
 ! D18   D(8,2,3,11)           -64.4969         estimate D2E/DX2                !
 ! D19   D(2,3,9,12)           180.0            estimate D2E/DX2                !
 ! D20   D(2,3,9,13)            57.7548         estimate D2E/DX2                !
 ! D21   D(2,3,9,14)           -57.7548         estimate D2E/DX2                !
 ! D22   D(10,3,9,12)           57.7483         estimate D2E/DX2                !
 ! D23   D(10,3,9,13)          -64.4969         estimate D2E/DX2                !
 ! D24   D(10,3,9,14)          179.9935         estimate D2E/DX2                !
 ! D25   D(11,3,9,12)          -57.7483         estimate D2E/DX2                !
 ! D26   D(11,3,9,13)         -179.9935         estimate D2E/DX2                !
 ! D27   D(11,3,9,14)           64.4969         estimate D2E/DX2                !
 ! D28   D(3,9,12,15)          180.0            estimate D2E/DX2                !
 ! D29   D(3,9,12,16)          -59.7922         estimate D2E/DX2                !
 ! D30   D(3,9,12,17)           59.7922         estimate D2E/DX2                !
 ! D31   D(13,9,12,15)         -57.9801         estimate D2E/DX2                !
 ! D32   D(13,9,12,16)          62.2276         estimate D2E/DX2                !
 ! D33   D(13,9,12,17)        -178.1879         estimate D2E/DX2                !
 ! D34   D(14,9,12,15)          57.9801         estimate D2E/DX2                !
 ! D35   D(14,9,12,16)         178.1879         estimate D2E/DX2                !
 ! D36   D(14,9,12,17)         -62.2276         estimate D2E/DX2                !
 --------------------------------------------------------------------------------
 Trust Radius=3.00D-01 FncErr=1.00D-07 GrdErr=1.00D-06
 Number of steps in this run=     92 maximum allowed number of steps=    102.
 GradGradGradGradGradGradGradGradGradGradGradGradGradGradGradGradGradGrad

 Leave Link  103 at Fri Jul  9 19:19:36 2021, MaxMem=  4194304000 cpu:         0.1
 (Enter /home/minenky/programs//g09/l202.exe)
                          Input orientation:                          
 ---------------------------------------------------------------------
 Center     Atomic      Atomic             Coordinates (Angstroms)
 Number     Number       Type             X           Y           Z
 ---------------------------------------------------------------------
      1          6           0        0.000000    2.547402    0.323899
      2          6           0        0.000000    1.277521   -0.522301
      3          6           0        0.000000    0.000000    0.313348
      4          1           0        0.000000    3.444167   -0.298534
      5          1           0        0.881344    2.589550    0.968585
      6          1           0       -0.881344    2.589550    0.968585
      7          1           0        0.874879    1.275974   -1.180780
      8          1           0       -0.874879    1.275974   -1.180780
      9          6           0        0.000000   -1.277521   -0.522301
     10          1           0        0.875259    0.000000    0.973290
     11          1           0       -0.875259    0.000000    0.973290
     12          6           0        0.000000   -2.547402    0.323899
     13          1           0        0.874879   -1.275974   -1.180780
     14          1           0       -0.874879   -1.275974   -1.180780
     15          1           0        0.000000   -3.444167   -0.298534
     16          1           0        0.881344   -2.589550    0.968585
     17          1           0       -0.881344   -2.589550    0.968585
 ---------------------------------------------------------------------
                    Distance matrix (angstroms):
                    1          2          3          4          5
     1  C    0.000000
     2  C    1.525992   0.000000
     3  C    2.547424   1.526555   0.000000
     4  H    1.091609   2.178170   3.498097   0.000000
     5  H    1.092778   2.172770   2.812805   1.764292   0.000000
     6  H    1.092778   2.172770   2.812805   1.764292   1.762688
     7  H    2.155458   1.094993   2.150800   2.498966   2.518987
     8  H    2.155458   1.094993   2.150800   2.498966   3.070761
     9  C    3.917409   2.555042   1.526555   4.726987   4.237186
    10  H    2.770748   2.152889   1.096176   3.774374   2.589561
    11  H    2.770748   2.152889   1.096176   3.774374   3.129129
    12  C    5.094804   3.917409   2.547424   6.023813   5.251730
    13  H    4.200914   2.778371   2.150800   4.880933   4.422905
    14  H    4.200914   2.778371   2.150800   4.880933   4.758820
    15  H    6.023813   4.726987   3.498097   6.888334   6.228009
    16  H    5.251730   4.237186   2.812805   6.228009   5.179100
    17  H    5.251730   4.237186   2.812805   6.228009   5.470845
                    6          7          8          9         10
     6  H    0.000000
     7  H    3.070761   0.000000
     8  H    2.518987   1.749758   0.000000
     9  C    4.237186   2.778371   2.778371   0.000000
    10  H    3.129129   2.503623   3.054687   2.152889   0.000000
    11  H    2.589561   3.054687   2.503623   2.152889   1.750518
    12  C    5.251730   4.200914   4.200914   1.525992   2.770748
    13  H    4.758820   2.551948   3.094203   1.094993   2.503623
    14  H    4.422905   3.094203   2.551948   1.094993   3.054687
    15  H    6.228009   4.880933   4.880933   2.178170   3.774374
    16  H    5.470845   4.422905   4.758820   2.172770   2.589561
    17  H    5.179100   4.758820   4.422905   2.172770   3.129129
                   11         12         13         14         15
    11  H    0.000000
    12  C    2.770748   0.000000
    13  H    3.054687   2.155458   0.000000
    14  H    2.503623   2.155458   1.749758   0.000000
    15  H    3.774374   1.091609   2.498966   2.498966   0.000000
    16  H    3.129129   1.092778   2.518987   3.070761   1.764292
    17  H    2.589561   1.092778   3.070761   2.518987   1.764292
                   16         17
    16  H    0.000000
    17  H    1.762688   0.000000
 Stoichiometry    C5H12
 Framework group  C2V[C2(C),SGV(C4H2),SGV'(H2),X(H8)]
 Deg. of freedom    14
 Full point group                 C2V     NOp   4
 Largest Abelian subgroup         C2V     NOp   4
 Largest concise Abelian subgroup C2V     NOp   4
                         Standard orientation:                         
 ---------------------------------------------------------------------
 Center     Atomic      Atomic             Coordinates (Angstroms)
 Number     Number       Type             X           Y           Z
 ---------------------------------------------------------------------
      1          6           0        0.000000    2.547402    0.323899
      2          6           0        0.000000    1.277521   -0.522301
      3          6           0        0.000000    0.000000    0.313348
      4          1           0        0.000000    3.444167   -0.298534
      5          1           0        0.881344    2.589550    0.968585
      6          1           0       -0.881344    2.589550    0.968585
      7          1           0        0.874879    1.275974   -1.180780
      8          1           0       -0.874879    1.275974   -1.180780
      9          6           0        0.000000   -1.277521   -0.522301
     10          1           0        0.875259    0.000000    0.973290
     11          1           0       -0.875259    0.000000    0.973290
     12          6           0        0.000000   -2.547402    0.323899
     13          1           0        0.874879   -1.275974   -1.180780
     14          1           0       -0.874879   -1.275974   -1.180780
     15          1           0        0.000000   -3.444167   -0.298534
     16          1           0        0.881344   -2.589550    0.968585
     17          1           0       -0.881344   -2.589550    0.968585
 ---------------------------------------------------------------------
 Rotational constants (GHZ):     17.1357778      1.9424257      1.8434419
 Leave Link  202 at Fri Jul  9 19:19:37 2021, MaxMem=  4194304000 cpu:         0.7
 (Enter /home/minenky/programs//g09/l301.exe)
 Standard basis: def2TZVP (5D, 7F)
 ======================================================================================================
                                       Pseudopotential Parameters
 ======================================================================================================
  Center     Atomic      Valence      Angular      Power
  Number     Number     Electrons     Momentum     of R      Exponent        Coefficient   SO-Coeffient
 ======================================================================================================
    1          6
                                   No pseudopotential on this center.
    2          6
                                   No pseudopotential on this center.
    3          6
                                   No pseudopotential on this center.
    4          1
                                   No pseudopotential on this center.
    5          1
                                   No pseudopotential on this center.
    6          1
                                   No pseudopotential on this center.
    7          1
                                   No pseudopotential on this center.
    8          1
                                   No pseudopotential on this center.
    9          6
                                   No pseudopotential on this center.
   10          1
                                   No pseudopotential on this center.
   11          1
                                   No pseudopotential on this center.
   12          6
                                   No pseudopotential on this center.
   13          1
                                   No pseudopotential on this center.
   14          1
                                   No pseudopotential on this center.
   15          1
                                   No pseudopotential on this center.
   16          1
                                   No pseudopotential on this center.
   17          1
                                   No pseudopotential on this center.
 ======================================================================================================
 Ernie: Thresh=  0.10000D-02 Tol=  0.10000D-05 Strict=F.
 AO basis set (Overlap normalization):
 Atom C1       Shell     1 S   6     bf    1 -     1          0.000000000000          4.813892130365          0.612080584689
      0.1357534968D+05  0.6064550360D-03
      0.2035233368D+04  0.4697908888D-02
      0.4632256236D+03  0.2433247765D-01
      0.1312001960D+03  0.9739996831D-01
      0.4285301589D+02  0.3019558425D+00
      0.1558418577D+02  0.6623360914D+00
 Atom C1       Shell     2 S   2     bf    2 -     2          0.000000000000          4.813892130365          0.612080584689
      0.6206713851D+01  0.6559530854D+00
      0.2576489653D+01  0.3758563329D+00
 Atom C1       Shell     3 S   1     bf    3 -     3          0.000000000000          4.813892130365          0.612080584689
      0.5769633942D+00  0.1000000000D+01
 Atom C1       Shell     4 S   1     bf    4 -     4          0.000000000000          4.813892130365          0.612080584689
      0.2297283136D+00  0.1000000000D+01
 Atom C1       Shell     5 S   1     bf    5 -     5          0.000000000000          4.813892130365          0.612080584689
      0.9516444003D-01  0.1000000000D+01
 Atom C1       Shell     6 P   4     bf    6 -     8          0.000000000000          4.813892130365          0.612080584689
      0.3469723224D+02  0.1132722000D-01
      0.7958262283D+01  0.7616965920D-01
      0.2378082688D+01  0.3019225220D+00
      0.8143320818D+00  0.7278502735D+00
 Atom C1       Shell     7 P   1     bf    9 -    11          0.000000000000          4.813892130365          0.612080584689
      0.2888754725D+00  0.1000000000D+01
 Atom C1       Shell     8 P   1     bf   12 -    14          0.000000000000          4.813892130365          0.612080584689
      0.1005682367D+00  0.1000000000D+01
 Atom C1       Shell     9 D   1     bf   15 -    19          0.000000000000          4.813892130365          0.612080584689
      0.1097000000D+01  0.1000000000D+01
 Atom C1       Shell    10 D   1     bf   20 -    24          0.000000000000          4.813892130365          0.612080584689
      0.3180000000D+00  0.1000000000D+01
 Atom C1       Shell    11 F   1     bf   25 -    31          0.000000000000          4.813892130365          0.612080584689
      0.7610000000D+00  0.1000000000D+01
 Atom C2       Shell    12 S   6     bf   32 -    32          0.000000000000          2.414164819010         -0.987005668958
      0.1357534968D+05  0.6064550360D-03
      0.2035233368D+04  0.4697908888D-02
      0.4632256236D+03  0.2433247765D-01
      0.1312001960D+03  0.9739996831D-01
      0.4285301589D+02  0.3019558425D+00
      0.1558418577D+02  0.6623360914D+00
 Atom C2       Shell    13 S   2     bf   33 -    33          0.000000000000          2.414164819010         -0.987005668958
      0.6206713851D+01  0.6559530854D+00
      0.2576489653D+01  0.3758563329D+00
 Atom C2       Shell    14 S   1     bf   34 -    34          0.000000000000          2.414164819010         -0.987005668958
      0.5769633942D+00  0.1000000000D+01
 Atom C2       Shell    15 S   1     bf   35 -    35          0.000000000000          2.414164819010         -0.987005668958
      0.2297283136D+00  0.1000000000D+01
 Atom C2       Shell    16 S   1     bf   36 -    36          0.000000000000          2.414164819010         -0.987005668958
      0.9516444003D-01  0.1000000000D+01
 Atom C2       Shell    17 P   4     bf   37 -    39          0.000000000000          2.414164819010         -0.987005668958
      0.3469723224D+02  0.1132722000D-01
      0.7958262283D+01  0.7616965920D-01
      0.2378082688D+01  0.3019225220D+00
      0.8143320818D+00  0.7278502735D+00
 Atom C2       Shell    18 P   1     bf   40 -    42          0.000000000000          2.414164819010         -0.987005668958
      0.2888754725D+00  0.1000000000D+01
 Atom C2       Shell    19 P   1     bf   43 -    45          0.000000000000          2.414164819010         -0.987005668958
      0.1005682367D+00  0.1000000000D+01
 Atom C2       Shell    20 D   1     bf   46 -    50          0.000000000000          2.414164819010         -0.987005668958
      0.1097000000D+01  0.1000000000D+01
 Atom C2       Shell    21 D   1     bf   51 -    55          0.000000000000          2.414164819010         -0.987005668958
      0.3180000000D+00  0.1000000000D+01
 Atom C2       Shell    22 F   1     bf   56 -    62          0.000000000000          2.414164819010         -0.987005668958
      0.7610000000D+00  0.1000000000D+01
 Atom C3       Shell    23 S   6     bf   63 -    63          0.000000000000          0.000000000000          0.592142084261
      0.1357534968D+05  0.6064550360D-03
      0.2035233368D+04  0.4697908888D-02
      0.4632256236D+03  0.2433247765D-01
      0.1312001960D+03  0.9739996831D-01
      0.4285301589D+02  0.3019558425D+00
      0.1558418577D+02  0.6623360914D+00
 Atom C3       Shell    24 S   2     bf   64 -    64          0.000000000000          0.000000000000          0.592142084261
      0.6206713851D+01  0.6559530854D+00
      0.2576489653D+01  0.3758563329D+00
 Atom C3       Shell    25 S   1     bf   65 -    65          0.000000000000          0.000000000000          0.592142084261
      0.5769633942D+00  0.1000000000D+01
 Atom C3       Shell    26 S   1     bf   66 -    66          0.000000000000          0.000000000000          0.592142084261
      0.2297283136D+00  0.1000000000D+01
 Atom C3       Shell    27 S   1     bf   67 -    67          0.000000000000          0.000000000000          0.592142084261
      0.9516444003D-01  0.1000000000D+01
 Atom C3       Shell    28 P   4     bf   68 -    70          0.000000000000          0.000000000000          0.592142084261
      0.3469723224D+02  0.1132722000D-01
      0.7958262283D+01  0.7616965920D-01
      0.2378082688D+01  0.3019225220D+00
      0.8143320818D+00  0.7278502735D+00
 Atom C3       Shell    29 P   1     bf   71 -    73          0.000000000000          0.000000000000          0.592142084261
      0.2888754725D+00  0.1000000000D+01
 Atom C3       Shell    30 P   1     bf   74 -    76          0.000000000000          0.000000000000          0.592142084261
      0.1005682367D+00  0.1000000000D+01
 Atom C3       Shell    31 D   1     bf   77 -    81          0.000000000000          0.000000000000          0.592142084261
      0.1097000000D+01  0.1000000000D+01
 Atom C3       Shell    32 D   1     bf   82 -    86          0.000000000000          0.000000000000          0.592142084261
      0.3180000000D+00  0.1000000000D+01
 Atom C3       Shell    33 F   1     bf   87 -    93          0.000000000000          0.000000000000          0.592142084261
      0.7610000000D+00  0.1000000000D+01
 Atom H4       Shell    34 S   3     bf   94 -    94          0.000000000000          6.508532385922         -0.564147321381
      0.3406134100D+02  0.2543930721D-01
      0.5123574600D+01  0.1900859489D+00
      0.1164662600D+01  0.8524411301D+00
 Atom H4       Shell    35 S   1     bf   95 -    95          0.000000000000          6.508532385922         -0.564147321381
      0.3272304100D+00  0.1000000000D+01
 Atom H4       Shell    36 S   1     bf   96 -    96          0.000000000000          6.508532385922         -0.564147321381
      0.1030724100D+00  0.1000000000D+01
 Atom H4       Shell    37 P   1     bf   97 -    99          0.000000000000          6.508532385922         -0.564147321381
      0.8000000000D+00  0.1000000000D+01
 Atom H5       Shell    38 S   3     bf  100 -   100          1.665498788862          4.893540307414          1.830360566395
      0.3406134100D+02  0.2543930721D-01
      0.5123574600D+01  0.1900859489D+00
      0.1164662600D+01  0.8524411301D+00
 Atom H5       Shell    39 S   1     bf  101 -   101          1.665498788862          4.893540307414          1.830360566395
      0.3272304100D+00  0.1000000000D+01
 Atom H5       Shell    40 S   1     bf  102 -   102          1.665498788862          4.893540307414          1.830360566395
      0.1030724100D+00  0.1000000000D+01
 Atom H5       Shell    41 P   1     bf  103 -   105          1.665498788862          4.893540307414          1.830360566395
      0.8000000000D+00  0.1000000000D+01
 Atom H6       Shell    42 S   3     bf  106 -   106         -1.665498788862          4.893540307414          1.830360566395
      0.3406134100D+02  0.2543930721D-01
      0.5123574600D+01  0.1900859489D+00
      0.1164662600D+01  0.8524411301D+00
 Atom H6       Shell    43 S   1     bf  107 -   107         -1.665498788862          4.893540307414          1.830360566395
      0.3272304100D+00  0.1000000000D+01
 Atom H6       Shell    44 S   1     bf  108 -   108         -1.665498788862          4.893540307414          1.830360566395
      0.1030724100D+00  0.1000000000D+01
 Atom H6       Shell    45 P   1     bf  109 -   111         -1.665498788862          4.893540307414          1.830360566395
      0.8000000000D+00  0.1000000000D+01
 Atom H7       Shell    46 S   3     bf  112 -   112          1.653281709413          2.411241412683         -2.231350643215
      0.3406134100D+02  0.2543930721D-01
      0.5123574600D+01  0.1900859489D+00
      0.1164662600D+01  0.8524411301D+00
 Atom H7       Shell    47 S   1     bf  113 -   113          1.653281709413          2.411241412683         -2.231350643215
      0.3272304100D+00  0.1000000000D+01
 Atom H7       Shell    48 S   1     bf  114 -   114          1.653281709413          2.411241412683         -2.231350643215
      0.1030724100D+00  0.1000000000D+01
 Atom H7       Shell    49 P   1     bf  115 -   117          1.653281709413          2.411241412683         -2.231350643215
      0.8000000000D+00  0.1000000000D+01
 Atom H8       Shell    50 S   3     bf  118 -   118         -1.653281709413          2.411241412683         -2.231350643215
      0.3406134100D+02  0.2543930721D-01
      0.5123574600D+01  0.1900859489D+00
      0.1164662600D+01  0.8524411301D+00
 Atom H8       Shell    51 S   1     bf  119 -   119         -1.653281709413          2.411241412683         -2.231350643215
      0.3272304100D+00  0.1000000000D+01
 Atom H8       Shell    52 S   1     bf  120 -   120         -1.653281709413          2.411241412683         -2.231350643215
      0.1030724100D+00  0.1000000000D+01
 Atom H8       Shell    53 P   1     bf  121 -   123         -1.653281709413          2.411241412683         -2.231350643215
      0.8000000000D+00  0.1000000000D+01
 Atom C9       Shell    54 S   6     bf  124 -   124          0.000000000000         -2.414164819010         -0.987005668958
      0.1357534968D+05  0.6064550360D-03
      0.2035233368D+04  0.4697908888D-02
      0.4632256236D+03  0.2433247765D-01
      0.1312001960D+03  0.9739996831D-01
      0.4285301589D+02  0.3019558425D+00
      0.1558418577D+02  0.6623360914D+00
 Atom C9       Shell    55 S   2     bf  125 -   125          0.000000000000         -2.414164819010         -0.987005668958
      0.6206713851D+01  0.6559530854D+00
      0.2576489653D+01  0.3758563329D+00
 Atom C9       Shell    56 S   1     bf  126 -   126          0.000000000000         -2.414164819010         -0.987005668958
      0.5769633942D+00  0.1000000000D+01
 Atom C9       Shell    57 S   1     bf  127 -   127          0.000000000000         -2.414164819010         -0.987005668958
      0.2297283136D+00  0.1000000000D+01
 Atom C9       Shell    58 S   1     bf  128 -   128          0.000000000000         -2.414164819010         -0.987005668958
      0.9516444003D-01  0.1000000000D+01
 Atom C9       Shell    59 P   4     bf  129 -   131          0.000000000000         -2.414164819010         -0.987005668958
      0.3469723224D+02  0.1132722000D-01
      0.7958262283D+01  0.7616965920D-01
      0.2378082688D+01  0.3019225220D+00
      0.8143320818D+00  0.7278502735D+00
 Atom C9       Shell    60 P   1     bf  132 -   134          0.000000000000         -2.414164819010         -0.987005668958
      0.2888754725D+00  0.1000000000D+01
 Atom C9       Shell    61 P   1     bf  135 -   137          0.000000000000         -2.414164819010         -0.987005668958
      0.1005682367D+00  0.1000000000D+01
 Atom C9       Shell    62 D   1     bf  138 -   142          0.000000000000         -2.414164819010         -0.987005668958
      0.1097000000D+01  0.1000000000D+01
 Atom C9       Shell    63 D   1     bf  143 -   147          0.000000000000         -2.414164819010         -0.987005668958
      0.3180000000D+00  0.1000000000D+01
 Atom C9       Shell    64 F   1     bf  148 -   154          0.000000000000         -2.414164819010         -0.987005668958
      0.7610000000D+00  0.1000000000D+01
 Atom H10      Shell    65 S   3     bf  155 -   155          1.653999805343          0.000000000000          1.839251727850
      0.3406134100D+02  0.2543930721D-01
      0.5123574600D+01  0.1900859489D+00
      0.1164662600D+01  0.8524411301D+00
 Atom H10      Shell    66 S   1     bf  156 -   156          1.653999805343          0.000000000000          1.839251727850
      0.3272304100D+00  0.1000000000D+01
 Atom H10      Shell    67 S   1     bf  157 -   157          1.653999805343          0.000000000000          1.839251727850
      0.1030724100D+00  0.1000000000D+01
 Atom H10      Shell    68 P   1     bf  158 -   160          1.653999805343          0.000000000000          1.839251727850
      0.8000000000D+00  0.1000000000D+01
 Atom H11      Shell    69 S   3     bf  161 -   161         -1.653999805343          0.000000000000          1.839251727850
      0.3406134100D+02  0.2543930721D-01
      0.5123574600D+01  0.1900859489D+00
      0.1164662600D+01  0.8524411301D+00
 Atom H11      Shell    70 S   1     bf  162 -   162         -1.653999805343          0.000000000000          1.839251727850
      0.3272304100D+00  0.1000000000D+01
 Atom H11      Shell    71 S   1     bf  163 -   163         -1.653999805343          0.000000000000          1.839251727850
      0.1030724100D+00  0.1000000000D+01
 Atom H11      Shell    72 P   1     bf  164 -   166         -1.653999805343          0.000000000000          1.839251727850
      0.8000000000D+00  0.1000000000D+01
 Atom C12      Shell    73 S   6     bf  167 -   167          0.000000000000         -4.813892130365          0.612080584689
      0.1357534968D+05  0.6064550360D-03
      0.2035233368D+04  0.4697908888D-02
      0.4632256236D+03  0.2433247765D-01
      0.1312001960D+03  0.9739996831D-01
      0.4285301589D+02  0.3019558425D+00
      0.1558418577D+02  0.6623360914D+00
 Atom C12      Shell    74 S   2     bf  168 -   168          0.000000000000         -4.813892130365          0.612080584689
      0.6206713851D+01  0.6559530854D+00
      0.2576489653D+01  0.3758563329D+00
 Atom C12      Shell    75 S   1     bf  169 -   169          0.000000000000         -4.813892130365          0.612080584689
      0.5769633942D+00  0.1000000000D+01
 Atom C12      Shell    76 S   1     bf  170 -   170          0.000000000000         -4.813892130365          0.612080584689
      0.2297283136D+00  0.1000000000D+01
 Atom C12      Shell    77 S   1     bf  171 -   171          0.000000000000         -4.813892130365          0.612080584689
      0.9516444003D-01  0.1000000000D+01
 Atom C12      Shell    78 P   4     bf  172 -   174          0.000000000000         -4.813892130365          0.612080584689
      0.3469723224D+02  0.1132722000D-01
      0.7958262283D+01  0.7616965920D-01
      0.2378082688D+01  0.3019225220D+00
      0.8143320818D+00  0.7278502735D+00
 Atom C12      Shell    79 P   1     bf  175 -   177          0.000000000000         -4.813892130365          0.612080584689
      0.2888754725D+00  0.1000000000D+01
 Atom C12      Shell    80 P   1     bf  178 -   180          0.000000000000         -4.813892130365          0.612080584689
      0.1005682367D+00  0.1000000000D+01
 Atom C12      Shell    81 D   1     bf  181 -   185          0.000000000000         -4.813892130365          0.612080584689
      0.1097000000D+01  0.1000000000D+01
 Atom C12      Shell    82 D   1     bf  186 -   190          0.000000000000         -4.813892130365          0.612080584689
      0.3180000000D+00  0.1000000000D+01
 Atom C12      Shell    83 F   1     bf  191 -   197          0.000000000000         -4.813892130365          0.612080584689
      0.7610000000D+00  0.1000000000D+01
 Atom H13      Shell    84 S   3     bf  198 -   198          1.653281709413         -2.411241412683         -2.231350643215
      0.3406134100D+02  0.2543930721D-01
      0.5123574600D+01  0.1900859489D+00
      0.1164662600D+01  0.8524411301D+00
 Atom H13      Shell    85 S   1     bf  199 -   199          1.653281709413         -2.411241412683         -2.231350643215
      0.3272304100D+00  0.1000000000D+01
 Atom H13      Shell    86 S   1     bf  200 -   200          1.653281709413         -2.411241412683         -2.231350643215
      0.1030724100D+00  0.1000000000D+01
 Atom H13      Shell    87 P   1     bf  201 -   203          1.653281709413         -2.411241412683         -2.231350643215
      0.8000000000D+00  0.1000000000D+01
 Atom H14      Shell    88 S   3     bf  204 -   204         -1.653281709413         -2.411241412683         -2.231350643215
      0.3406134100D+02  0.2543930721D-01
      0.5123574600D+01  0.1900859489D+00
      0.1164662600D+01  0.8524411301D+00
 Atom H14      Shell    89 S   1     bf  205 -   205         -1.653281709413         -2.411241412683         -2.231350643215
      0.3272304100D+00  0.1000000000D+01
 Atom H14      Shell    90 S   1     bf  206 -   206         -1.653281709413         -2.411241412683         -2.231350643215
      0.1030724100D+00  0.1000000000D+01
 Atom H14      Shell    91 P   1     bf  207 -   209         -1.653281709413         -2.411241412683         -2.231350643215
      0.8000000000D+00  0.1000000000D+01
 Atom H15      Shell    92 S   3     bf  210 -   210          0.000000000000         -6.508532385922         -0.564147321381
      0.3406134100D+02  0.2543930721D-01
      0.5123574600D+01  0.1900859489D+00
      0.1164662600D+01  0.8524411301D+00
 Atom H15      Shell    93 S   1     bf  211 -   211          0.000000000000         -6.508532385922         -0.564147321381
      0.3272304100D+00  0.1000000000D+01
 Atom H15      Shell    94 S   1     bf  212 -   212          0.000000000000         -6.508532385922         -0.564147321381
      0.1030724100D+00  0.1000000000D+01
 Atom H15      Shell    95 P   1     bf  213 -   215          0.000000000000         -6.508532385922         -0.564147321381
      0.8000000000D+00  0.1000000000D+01
 Atom H16      Shell    96 S   3     bf  216 -   216          1.665498788862         -4.893540307414          1.830360566395
      0.3406134100D+02  0.2543930721D-01
      0.5123574600D+01  0.1900859489D+00
      0.1164662600D+01  0.8524411301D+00
 Atom H16      Shell    97 S   1     bf  217 -   217          1.665498788862         -4.893540307414          1.830360566395
      0.3272304100D+00  0.1000000000D+01
 Atom H16      Shell    98 S   1     bf  218 -   218          1.665498788862         -4.893540307414          1.830360566395
      0.1030724100D+00  0.1000000000D+01
 Atom H16      Shell    99 P   1     bf  219 -   221          1.665498788862         -4.893540307414          1.830360566395
      0.8000000000D+00  0.1000000000D+01
 Atom H17      Shell   100 S   3     bf  222 -   222         -1.665498788862         -4.893540307414          1.830360566395
      0.3406134100D+02  0.2543930721D-01
      0.5123574600D+01  0.1900859489D+00
      0.1164662600D+01  0.8524411301D+00
 Atom H17      Shell   101 S   1     bf  223 -   223         -1.665498788862         -4.893540307414          1.830360566395
      0.3272304100D+00  0.1000000000D+01
 Atom H17      Shell   102 S   1     bf  224 -   224         -1.665498788862         -4.893540307414          1.830360566395
      0.1030724100D+00  0.1000000000D+01
 Atom H17      Shell   103 P   1     bf  225 -   227         -1.665498788862         -4.893540307414          1.830360566395
      0.8000000000D+00  0.1000000000D+01
 There are    89 symmetry adapted cartesian basis functions of A1  symmetry.
 There are    39 symmetry adapted cartesian basis functions of A2  symmetry.
 There are    48 symmetry adapted cartesian basis functions of B1  symmetry.
 There are    76 symmetry adapted cartesian basis functions of B2  symmetry.
 There are    78 symmetry adapted basis functions of A1  symmetry.
 There are    37 symmetry adapted basis functions of A2  symmetry.
 There are    45 symmetry adapted basis functions of B1  symmetry.
 There are    67 symmetry adapted basis functions of B2  symmetry.
   227 basis functions,   351 primitive gaussians,   252 cartesian basis functions
    21 alpha electrons       21 beta electrons
       nuclear repulsion energy       185.0186916561 Hartrees.
 IExCor= 4639 DFT=T Ex+Corr=wB97XD ExCW=0 ScaHFX=  1.000000
 ScaDFX=  1.000000  1.000000  1.000000  1.000000 ScalE2=  1.000000  1.000000
 IRadAn=      5 IRanWt=     -1 IRanGd=            0 ICorTp=0 IEmpDi=121
  HFx wShort=  0.000000 wLong=  0.200000 cFull=  0.222036 cShort=  0.000000 cLong=  0.777964
  DFx wShort=  0.000000 wLong=  0.200000 cFull=  0.000000 cShort=  0.000000 cLong=  1.000000
 NAtoms=   17 NActive=   17 NUniq=    7 SFac= 4.00D+00 NAtFMM=   60 NAOKFM=F Big=F
 Integral buffers will be    131072 words long.
 Raffenetti 2 integral format.
 Two-electron integral symmetry is turned on.
 R6Disp:  Grimme-D2 Dispersion energy=       -0.0086533172 Hartrees.
 Nuclear repulsion after empirical dispersion term =      185.0100383389 Hartrees.
 Leave Link  301 at Fri Jul  9 19:19:37 2021, MaxMem=  4194304000 cpu:         0.5
 (Enter /home/minenky/programs//g09/l302.exe)
 NPDir=0 NMtPBC=     1 NCelOv=     1 NCel=       1 NClECP=     1 NCelD=      1
         NCelK=      1 NCelE2=     1 NClLst=     1 CellRange=     0.0.
 One-electron integrals computed using PRISM.
 One-electron integral symmetry used in STVInt
   4 Symmetry operations used in ECPInt.
 ECPInt:  NShTT=    5356 NPrTT=   15024 LenC2=    5264 LenP2D=   12273.
 LDataN:  DoStor=T MaxTD1= 6 Len=  172
 NBasis=   227 RedAO= T EigKep=  2.05D-04  NBF=    78    37    45    67
 NBsUse=   227 1.00D-06 EigRej= -1.00D+00 NBFU=    78    37    45    67
 Precomputing XC quadrature grid using
 IXCGrd= 4 IRadAn=           5 IRanWt=          -1 IRanGd=           0 AccXCQ= 0.00D+00.
 Generated NRdTot=       0 NPtTot=           0 NUsed=           0 NTot=          32
 NSgBfM=   251   251   251   251   251 MxSgAt=    17 MxSgA2=    17.
 Leave Link  302 at Fri Jul  9 19:19:54 2021, MaxMem=  4194304000 cpu:       115.4
 (Enter /home/minenky/programs//g09/l303.exe)
 DipDrv:  MaxL=1.
 Leave Link  303 at Fri Jul  9 19:19:57 2021, MaxMem=  4194304000 cpu:         5.8
 (Enter /home/minenky/programs//g09/l401.exe)
 ExpMin= 9.52D-02 ExpMax= 1.36D+04 ExpMxC= 4.63D+02 IAcc=3 IRadAn=         5 AccDes= 0.00D+00
 Harris functional with IExCor= 4639 and IRadAn=       5 diagonalized for initial guess.
 HarFok:  IExCor= 4639 AccDes= 0.00D+00 IRadAn=         5 IDoV= 1 UseB2=F ITyADJ=14
 ICtDFT=  3500011 ScaDFX=  1.000000  1.000000  1.000000  1.000000
 FoFCou: FMM=F IPFlag=           0 FMFlag=      100000 FMFlg1=           0
         NFxFlg=           0 DoJE=T BraDBF=F KetDBF=T FulRan=T
         wScrn=  0.000000 ICntrl=     500 IOpCl=  0 I1Cent=   200000004 NGrid=           0
         NMat0=    1 NMatS0=      1 NMatT0=    0 NMatD0=    1 NMtDS0=    0 NMtDT0=    0
 Petite list used in FoFCou.
 Harris En= -187.704947587846    
 JPrj=0 DoOrth=F DoCkMO=F.
 Initial guess orbital symmetries:
       Occupied  (B2) (A1) (A1) (B2) (A1) (A1) (B2) (A1) (B2) (A1)
                 (B1) (B2) (A2) (A1) (A1) (B1) (B2) (A2) (A1) (B2)
                 (B1)
       Virtual   (A1) (B2) (A1) (B1) (A1) (B2) (A1) (A2) (B1) (B2)
                 (A2) (A1) (B1) (B2) (A1) (B2) (A1) (B1) (A1) (A2)
                 (B2) (B2) (B1) (A2) (A1) (A1) (B2) (A1) (B1) (B2)
                 (B2) (B1) (A1) (B2) (A2) (A1) (A1) (B2) (A1) (B1)
                 (A2) (B1) (B2) (A1) (B2) (A1) (A1) (A2) (B2) (A1)
                 (B2) (A1) (B1) (A2) (A1) (B1) (B2) (B2) (A2) (B1)
                 (A1) (B2) (A1) (A2) (B1) (A1) (B2) (B1) (A2) (A1)
                 (B2) (B2) (A1) (A1) (A2) (A1) (B2) (B1) (B1) (B1)
                 (A2) (B2) (A1) (A2) (B1) (A1) (B2) (B2) (B1) (A1)
                 (B2) (A2) (A1) (B1) (A2) (B2) (A1) (A1) (B2) (B1)
                 (A2) (A1) (B2) (A1) (B2) (B1) (A1) (B2) (B2) (B1)
                 (A2) (A1) (A1) (B2) (A2) (B2) (A1) (A1) (B2) (B1)
                 (B1) (A2) (B1) (A1) (A2) (B2) (A1) (B1) (A1) (A2)
                 (A2) (B2) (B1) (B1) (A1) (B2) (A1) (A1) (B2) (B2)
                 (A1) (A2) (B1) (B2) (A1) (B2) (B1) (B2) (A2) (A1)
                 (A1) (B2) (A2) (A1) (B1) (A1) (A1) (B2) (B1) (A2)
                 (A2) (B1) (B2) (A1) (B1) (A2) (B2) (A2) (B1) (A1)
                 (B2) (A1) (A2) (B1) (B2) (B1) (A2) (A1) (B1) (B2)
                 (A2) (A1) (B2) (A1) (A1) (B2) (B1) (B2) (A1) (A2)
                 (B1) (B2) (B1) (A1) (B2) (A2) (A1) (A1) (B2) (A1)
                 (B2) (A1) (B2) (A1) (B2) (A1)
 The electronic state of the initial guess is 1-A1.
 Leave Link  401 at Fri Jul  9 19:20:03 2021, MaxMem=  4194304000 cpu:        75.0
 (Enter /home/minenky/programs//g09/l502.exe)
 Closed shell SCF:
 Using DIIS extrapolation, IDIIS=  1040.
 Integral symmetry usage will be decided dynamically.
 Keep R1 ints in memory in symmetry-blocked form, NReq=838667508.
 IVT=      345248 IEndB=      345248 NGot=  4194304000 MDV=  4109618027
 LenX=  4109618027 LenY=  4109554082
 Requested convergence on RMS density matrix=1.00D-08 within 380 cycles.
 Requested convergence on MAX density matrix=1.00D-06.
 Requested convergence on             energy=1.00D-06.
 No special actions if energy rises.
 FoFCou: FMM=F IPFlag=           0 FMFlag=           0 FMFlg1=           0
         NFxFlg=           0 DoJE=F BraDBF=F KetDBF=F FulRan=T
         wScrn=  0.000000 ICntrl=     600 IOpCl=  0 I1Cent=           0 NGrid=           0
         NMat0=    1 NMatS0=  25878 NMatT0=    0 NMatD0=    1 NMtDS0=    0 NMtDT0=    0
 Petite list used in FoFCou.
 Integral accuracy reduced to 1.0D-05 until final iterations.

 Cycle   1  Pass 0  IDiag  1:
 E= -197.709594535911    
 DIIS: error= 6.73D-02 at cycle   1 NSaved=   1.
 NSaved= 1 IEnMin= 1 EnMin= -197.709594535911     IErMin= 1 ErrMin= 6.73D-02
 ErrMax= 6.73D-02  0.00D+00 EMaxC= 1.00D-01 BMatC= 4.23D-01 BMatP= 4.23D-01
 IDIUse=3 WtCom= 3.27D-01 WtEn= 6.73D-01
 Coeff-Com:  0.100D+01
 Coeff-En:   0.100D+01
 Coeff:      0.100D+01
 Gap=     0.468 Goal=   None    Shift=    0.000
 GapD=    0.468 DampG=2.000 DampE=0.500 DampFc=1.0000 IDamp=-1.
 RMSDP=1.35D-03 MaxDP=4.32D-02              OVMax= 5.89D-02

 Cycle   2  Pass 0  IDiag  1:
 E= -197.764136339994     Delta-E=       -0.054541804083 Rises=F Damp=F
 DIIS: error= 1.07D-02 at cycle   2 NSaved=   2.
 NSaved= 2 IEnMin= 2 EnMin= -197.764136339994     IErMin= 2 ErrMin= 1.07D-02
 ErrMax= 1.07D-02  0.00D+00 EMaxC= 1.00D-01 BMatC= 1.76D-02 BMatP= 4.23D-01
 IDIUse=3 WtCom= 8.93D-01 WtEn= 1.07D-01
 Coeff-Com:  0.942D-01 0.906D+00
 Coeff-En:   0.000D+00 0.100D+01
 Coeff:      0.841D-01 0.916D+00
 Gap=     0.523 Goal=   None    Shift=    0.000
 RMSDP=6.38D-04 MaxDP=1.91D-02 DE=-5.45D-02 OVMax= 3.55D-02

 Cycle   3  Pass 0  IDiag  1:
 E= -197.774470149881     Delta-E=       -0.010333809887 Rises=F Damp=F
 DIIS: error= 6.60D-03 at cycle   3 NSaved=   3.
 NSaved= 3 IEnMin= 3 EnMin= -197.774470149881     IErMin= 3 ErrMin= 6.60D-03
 ErrMax= 6.60D-03  0.00D+00 EMaxC= 1.00D-01 BMatC= 7.48D-03 BMatP= 1.76D-02
 IDIUse=3 WtCom= 9.34D-01 WtEn= 6.60D-02
 Coeff-Com:  0.242D-01 0.398D+00 0.577D+00
 Coeff-En:   0.000D+00 0.247D+00 0.753D+00
 Coeff:      0.226D-01 0.388D+00 0.589D+00
 Gap=     0.508 Goal=   None    Shift=    0.000
 RMSDP=2.36D-04 MaxDP=6.73D-03 DE=-1.03D-02 OVMax= 1.52D-02

 Cycle   4  Pass 0  IDiag  1:
 E= -197.781617235828     Delta-E=       -0.007147085947 Rises=F Damp=F
 DIIS: error= 2.18D-04 at cycle   4 NSaved=   4.
 NSaved= 4 IEnMin= 4 EnMin= -197.781617235828     IErMin= 4 ErrMin= 2.18D-04
 ErrMax= 2.18D-04  0.00D+00 EMaxC= 1.00D-01 BMatC= 1.13D-05 BMatP= 7.48D-03
 IDIUse=3 WtCom= 9.98D-01 WtEn= 2.18D-03
 Coeff-Com: -0.241D-02-0.381D-01-0.245D-01 0.107D+01
 Coeff-En:   0.000D+00 0.000D+00 0.000D+00 0.100D+01
 Coeff:     -0.241D-02-0.381D-01-0.245D-01 0.106D+01
 Gap=     0.507 Goal=   None    Shift=    0.000
 RMSDP=2.97D-05 MaxDP=4.97D-04 DE=-7.15D-03 OVMax= 1.23D-03

 Cycle   5  Pass 0  IDiag  1:
 E= -197.781632757802     Delta-E=       -0.000015521975 Rises=F Damp=F
 DIIS: error= 8.64D-05 at cycle   5 NSaved=   5.
 NSaved= 5 IEnMin= 5 EnMin= -197.781632757802     IErMin= 5 ErrMin= 8.64D-05
 ErrMax= 8.64D-05  0.00D+00 EMaxC= 1.00D-01 BMatC= 1.74D-06 BMatP= 1.13D-05
 IDIUse=1 WtCom= 1.00D+00 WtEn= 0.00D+00
 Coeff-Com: -0.196D-02-0.323D-01-0.349D-01 0.373D+00 0.696D+00
 Coeff:     -0.196D-02-0.323D-01-0.349D-01 0.373D+00 0.696D+00
 Gap=     0.507 Goal=   None    Shift=    0.000
 RMSDP=5.98D-06 MaxDP=1.25D-04 DE=-1.55D-05 OVMax= 2.98D-04

 Initial convergence to 1.0D-05 achieved.  Increase integral accuracy.
 Cycle   6  Pass 1  IDiag  1:
 E= -197.781610453041     Delta-E=        0.000022304762 Rises=F Damp=F
 DIIS: error= 7.89D-05 at cycle   1 NSaved=   1.
 NSaved= 1 IEnMin= 1 EnMin= -197.781610453041     IErMin= 1 ErrMin= 7.89D-05
 ErrMax= 7.89D-05  0.00D+00 EMaxC= 1.00D-01 BMatC= 5.53D-07 BMatP= 5.53D-07
 IDIUse=1 WtCom= 1.00D+00 WtEn= 0.00D+00
 Coeff-Com:  0.100D+01
 Coeff:      0.100D+01
 Gap=     0.507 Goal=   None    Shift=    0.000
 RMSDP=5.98D-06 MaxDP=1.25D-04 DE= 2.23D-05 OVMax= 1.39D-04

 Cycle   7  Pass 1  IDiag  1:
 E= -197.781610797580     Delta-E=       -0.000000344539 Rises=F Damp=F
 DIIS: error= 1.97D-05 at cycle   2 NSaved=   2.
 NSaved= 2 IEnMin= 2 EnMin= -197.781610797580     IErMin= 2 ErrMin= 1.97D-05
 ErrMax= 1.97D-05  0.00D+00 EMaxC= 1.00D-01 BMatC= 6.56D-08 BMatP= 5.53D-07
 IDIUse=1 WtCom= 1.00D+00 WtEn= 0.00D+00
 Coeff-Com:  0.139D+00 0.861D+00
 Coeff:      0.139D+00 0.861D+00
 Gap=     0.507 Goal=   None    Shift=    0.000
 RMSDP=1.25D-06 MaxDP=3.97D-05 DE=-3.45D-07 OVMax= 7.58D-05

 Cycle   8  Pass 1  IDiag  1:
 E= -197.781610837762     Delta-E=       -0.000000040181 Rises=F Damp=F
 DIIS: error= 1.13D-05 at cycle   3 NSaved=   3.
 NSaved= 3 IEnMin= 3 EnMin= -197.781610837762     IErMin= 3 ErrMin= 1.13D-05
 ErrMax= 1.13D-05  0.00D+00 EMaxC= 1.00D-01 BMatC= 2.47D-08 BMatP= 6.56D-08
 IDIUse=1 WtCom= 1.00D+00 WtEn= 0.00D+00
 Coeff-Com: -0.420D-01 0.371D+00 0.671D+00
 Coeff:     -0.420D-01 0.371D+00 0.671D+00
 Gap=     0.507 Goal=   None    Shift=    0.000
 RMSDP=5.04D-07 MaxDP=1.53D-05 DE=-4.02D-08 OVMax= 3.23D-05

 Cycle   9  Pass 1  IDiag  1:
 E= -197.781610861118     Delta-E=       -0.000000023356 Rises=F Damp=F
 DIIS: error= 5.64D-07 at cycle   4 NSaved=   4.
 NSaved= 4 IEnMin= 4 EnMin= -197.781610861118     IErMin= 4 ErrMin= 5.64D-07
 ErrMax= 5.64D-07  0.00D+00 EMaxC= 1.00D-01 BMatC= 6.60D-11 BMatP= 2.47D-08
 IDIUse=1 WtCom= 1.00D+00 WtEn= 0.00D+00
 Coeff-Com: -0.479D-02 0.110D-01 0.374D-01 0.956D+00
 Coeff:     -0.479D-02 0.110D-01 0.374D-01 0.956D+00
 Gap=     0.507 Goal=   None    Shift=    0.000
 RMSDP=1.50D-07 MaxDP=3.34D-06 DE=-2.34D-08 OVMax= 4.81D-06

 Cycle  10  Pass 1  IDiag  1:
 E= -197.781610861250     Delta-E=       -0.000000000132 Rises=F Damp=F
 DIIS: error= 1.71D-07 at cycle   5 NSaved=   5.
 NSaved= 5 IEnMin= 5 EnMin= -197.781610861250     IErMin= 5 ErrMin= 1.71D-07
 ErrMax= 1.71D-07  0.00D+00 EMaxC= 1.00D-01 BMatC= 5.91D-12 BMatP= 6.60D-11
 IDIUse=1 WtCom= 1.00D+00 WtEn= 0.00D+00
 Coeff-Com:  0.314D-02-0.287D-01-0.520D-01 0.237D-01 0.105D+01
 Coeff:      0.314D-02-0.287D-01-0.520D-01 0.237D-01 0.105D+01
 Gap=     0.507 Goal=   None    Shift=    0.000
 RMSDP=6.32D-08 MaxDP=1.29D-06 DE=-1.32D-10 OVMax= 2.21D-06

 Cycle  11  Pass 1  IDiag  1:
 E= -197.781610861261     Delta-E=       -0.000000000011 Rises=F Damp=F
 DIIS: error= 6.07D-08 at cycle   6 NSaved=   6.
 NSaved= 6 IEnMin= 6 EnMin= -197.781610861261     IErMin= 6 ErrMin= 6.07D-08
 ErrMax= 6.07D-08  0.00D+00 EMaxC= 1.00D-01 BMatC= 6.10D-13 BMatP= 5.91D-12
 IDIUse=1 WtCom= 1.00D+00 WtEn= 0.00D+00
 Coeff-Com:  0.995D-03-0.788D-02-0.149D-01-0.307D-01 0.312D+00 0.740D+00
 Coeff:      0.995D-03-0.788D-02-0.149D-01-0.307D-01 0.312D+00 0.740D+00
 Gap=     0.507 Goal=   None    Shift=    0.000
 RMSDP=7.16D-09 MaxDP=1.38D-07 DE=-1.14D-11 OVMax= 2.93D-07

 SCF Done:  E(RwB97XD) =  -197.781610861     A.U. after   11 cycles
            NFock= 11  Conv=0.72D-08     -V/T= 2.0060
 KE= 1.965989576956D+02 PE=-8.271559033754D+02 EE= 2.477652964797D+02
 Leave Link  502 at Fri Jul  9 19:20:20 2021, MaxMem=  4194304000 cpu:       248.2
 (Enter /home/minenky/programs//g09/l601.exe)
 Copying SCF densities to generalized density rwf, IOpCl= 0 IROHF=0.

 **********************************************************************

            Population analysis using the SCF density.

 **********************************************************************

 Orbital symmetries:
       Occupied  (A1) (B2) (A1) (B2) (A1) (A1) (B2) (A1) (B2) (A1)
                 (B1) (B2) (A2) (A1) (A1) (B1) (B2) (A2) (A1) (B1)
                 (B2)
       Virtual   (A1) (B2) (A1) (B1) (A1) (B2) (A1) (A2) (B1) (B2)
                 (A2) (A1) (B1) (B2) (A1) (B2) (A1) (B1) (A2) (A1)
                 (B2) (B1) (B2) (A2) (A1) (A1) (A1) (B2) (B1) (B2)
                 (B1) (B2) (A1) (B2) (A2) (A1) (A1) (B2) (B1) (A1)
                 (A2) (B2) (B1) (A1) (B2) (A1) (A1) (B2) (A2) (A1)
                 (B2) (A1) (B1) (A2) (A1) (B1) (B2) (B2) (A2) (B1)
                 (A1) (B2) (A1) (A2) (B1) (A1) (B2) (B1) (A2) (A1)
                 (B2) (A1) (B2) (A1) (A1) (A2) (B2) (B1) (A2) (B1)
                 (B1) (B2) (A1) (A2) (B1) (A1) (B2) (B2) (B1) (A1)
                 (A2) (B2) (A1) (B1) (A2) (B2) (A1) (B2) (A1) (B1)
                 (A2) (A1) (B2) (A1) (B2) (B1) (A1) (B2) (B2) (B1)
                 (A2) (A1) (A1) (B2) (B2) (A2) (A1) (A1) (B1) (B2)
                 (A2) (B1) (B1) (A1) (A2) (B2) (A1) (B1) (A1) (A2)
                 (A2) (B2) (B1) (A1) (B1) (B2) (A1) (A1) (B2) (B2)
                 (A1) (A2) (B1) (B2) (A1) (B2) (B1) (B2) (A2) (A1)
                 (A1) (B2) (A2) (A1) (B1) (A1) (B2) (A1) (B1) (A2)
                 (A2) (B1) (B2) (A1) (B1) (A2) (B2) (A2) (B1) (A1)
                 (B2) (A1) (A2) (B1) (B2) (B1) (A2) (B1) (A1) (B2)
                 (A2) (A1) (B2) (A1) (A1) (B2) (B1) (B2) (A1) (A2)
                 (B1) (B2) (B1) (A1) (B2) (A2) (A1) (A1) (B2) (A1)
                 (B2) (A1) (B2) (A1) (B2) (A1)
 The electronic state is 1-A1.
 Alpha  occ. eigenvalues --  -10.27349 -10.27348 -10.27121 -10.26664 -10.26664
 Alpha  occ. eigenvalues --   -0.90155  -0.84904  -0.77171  -0.69190  -0.66737
 Alpha  occ. eigenvalues --   -0.56413  -0.52452  -0.51791  -0.48898  -0.47811
 Alpha  occ. eigenvalues --   -0.45954  -0.43460  -0.41477  -0.40634  -0.39955
 Alpha  occ. eigenvalues --   -0.39562
 Alpha virt. eigenvalues --    0.11168   0.12768   0.14537   0.15051   0.16807
 Alpha virt. eigenvalues --    0.19056   0.19963   0.20193   0.20196   0.20756
 Alpha virt. eigenvalues --    0.21384   0.24017   0.24328   0.25165   0.25896
 Alpha virt. eigenvalues --    0.28133   0.30106   0.31193   0.33503   0.34213
 Alpha virt. eigenvalues --    0.35196   0.37888   0.38650   0.39021   0.39729
 Alpha virt. eigenvalues --    0.44465   0.46933   0.47347   0.48630   0.49994
 Alpha virt. eigenvalues --    0.52057   0.52172   0.53017   0.53403   0.53891
 Alpha virt. eigenvalues --    0.54819   0.55098   0.56180   0.56970   0.58074
 Alpha virt. eigenvalues --    0.58083   0.60547   0.60670   0.66734   0.67740
 Alpha virt. eigenvalues --    0.69526   0.71187   0.76423   0.78435   0.81628
 Alpha virt. eigenvalues --    0.89341   0.89413   0.90716   0.92194   0.94165
 Alpha virt. eigenvalues --    0.96322   0.97176   1.06402   1.06639   1.07950
 Alpha virt. eigenvalues --    1.10697   1.12201   1.14941   1.16528   1.17907
 Alpha virt. eigenvalues --    1.19720   1.20560   1.25383   1.26382   1.27866
 Alpha virt. eigenvalues --    1.32870   1.38360   1.38532   1.53677   1.59503
 Alpha virt. eigenvalues --    1.59564   1.60778   1.61692   1.63164   1.63408
 Alpha virt. eigenvalues --    1.64096   1.65792   1.67234   1.69607   1.69961
 Alpha virt. eigenvalues --    1.70995   1.72858   1.75540   1.83425   1.85265
 Alpha virt. eigenvalues --    1.89047   1.90918   1.92637   1.93499   1.93838
 Alpha virt. eigenvalues --    1.96477   2.01154   2.01661   2.01700   2.04608
 Alpha virt. eigenvalues --    2.05285   2.06530   2.17663   2.18300   2.22613
 Alpha virt. eigenvalues --    2.25746   2.33367   2.33456   2.38384   2.42135
 Alpha virt. eigenvalues --    2.42368   2.42849   2.44819   2.45467   2.50041
 Alpha virt. eigenvalues --    2.50734   2.51619   2.54691   2.56864   2.57393
 Alpha virt. eigenvalues --    2.62407   2.62436   2.64952   2.66814   2.68044
 Alpha virt. eigenvalues --    2.68162   2.71242   2.71687   2.72497   2.74487
 Alpha virt. eigenvalues --    2.76461   2.79875   2.80427   2.82388   2.82916
 Alpha virt. eigenvalues --    2.84673   2.85829   2.89051   2.94527   2.97974
 Alpha virt. eigenvalues --    3.07343   3.12099   3.12614   3.13687   3.18300
 Alpha virt. eigenvalues --    3.19767   3.22859   3.24767   3.28595   3.28736
 Alpha virt. eigenvalues --    3.30795   3.32640   3.33091   3.35034   3.39170
 Alpha virt. eigenvalues --    3.39286   3.41879   3.42300   3.46559   3.47932
 Alpha virt. eigenvalues --    3.50629   3.52917   3.53847   3.54241   3.60248
 Alpha virt. eigenvalues --    3.62268   3.63007   3.68960   3.69538   3.70703
 Alpha virt. eigenvalues --    3.72910   3.74820   3.79599   3.91927   3.96611
 Alpha virt. eigenvalues --    3.97926   3.98153   3.99380   3.99476   4.06013
 Alpha virt. eigenvalues --    4.07600   4.11326   4.23477   4.24008   4.33628
 Alpha virt. eigenvalues --    4.36420   4.40177   4.45068   4.48224   4.50583
 Alpha virt. eigenvalues --    4.64034   4.64201   4.68787   4.69125   4.69640
 Alpha virt. eigenvalues --    4.69680   4.77283   4.87196   4.91027   5.14184
 Alpha virt. eigenvalues --    5.16598  22.39696  22.44164  22.50062  22.58857
 Alpha virt. eigenvalues --   22.59095
          Condensed to atoms (all electrons):
               1          2          3          4          5          6
     1  C    4.887331   0.313771  -0.045061   0.418881   0.412947   0.412947
     2  C    0.313771   4.915884   0.315216  -0.044598  -0.037352  -0.037352
     3  C   -0.045061   0.315216   5.027798   0.011149  -0.005596  -0.005596
     4  H    0.418881  -0.044598   0.011149   0.554274  -0.023920  -0.023920
     5  H    0.412947  -0.037352  -0.005596  -0.023920   0.572659  -0.029617
     6  H    0.412947  -0.037352  -0.005596  -0.023920  -0.029617   0.572659
     7  H   -0.032705   0.417186  -0.042706  -0.004184  -0.005869   0.007346
     8  H   -0.032705   0.417186  -0.042706  -0.004184   0.007346  -0.005869
     9  C    0.009806  -0.044245   0.315216  -0.000548  -0.000103  -0.000103
    10  H   -0.004243  -0.033441   0.405330  -0.000098   0.003382   0.000064
    11  H   -0.004243  -0.033441   0.405330  -0.000098   0.000064   0.003382
    12  C   -0.000636   0.009806  -0.045061   0.000024  -0.000017  -0.000017
    13  H   -0.000131  -0.003980  -0.042706   0.000004   0.000108  -0.000042
    14  H   -0.000131  -0.003980  -0.042706   0.000004  -0.000042   0.000108
    15  H    0.000024  -0.000548   0.011149   0.000000   0.000000   0.000000
    16  H   -0.000017  -0.000103  -0.005596   0.000000  -0.000018   0.000009
    17  H   -0.000017  -0.000103  -0.005596   0.000000   0.000009  -0.000018
               7          8          9         10         11         12
     1  C   -0.032705  -0.032705   0.009806  -0.004243  -0.004243  -0.000636
     2  C    0.417186   0.417186  -0.044245  -0.033441  -0.033441   0.009806
     3  C   -0.042706  -0.042706   0.315216   0.405330   0.405330  -0.045061
     4  H   -0.004184  -0.004184  -0.000548  -0.000098  -0.000098   0.000024
     5  H   -0.005869   0.007346  -0.000103   0.003382   0.000064  -0.000017
     6  H    0.007346  -0.005869  -0.000103   0.000064   0.003382  -0.000017
     7  H    0.609782  -0.036351  -0.003980  -0.007274   0.008259  -0.000131
     8  H   -0.036351   0.609782  -0.003980   0.008259  -0.007274  -0.000131
     9  C   -0.003980  -0.003980   4.915884  -0.033441  -0.033441   0.313771
    10  H   -0.007274   0.008259  -0.033441   0.613512  -0.038097  -0.004243
    11  H    0.008259  -0.007274  -0.033441  -0.038097   0.613512  -0.004243
    12  C   -0.000131  -0.000131   0.313771  -0.004243  -0.004243   4.887331
    13  H    0.003504  -0.000169   0.417186  -0.007274   0.008259  -0.032705
    14  H   -0.000169   0.003504   0.417186   0.008259  -0.007274  -0.032705
    15  H    0.000004   0.000004  -0.044598  -0.000098  -0.000098   0.418881
    16  H    0.000108  -0.000042  -0.037352   0.003382   0.000064   0.412947
    17  H   -0.000042   0.000108  -0.037352   0.000064   0.003382   0.412947
              13         14         15         16         17
     1  C   -0.000131  -0.000131   0.000024  -0.000017  -0.000017
     2  C   -0.003980  -0.003980  -0.000548  -0.000103  -0.000103
     3  C   -0.042706  -0.042706   0.011149  -0.005596  -0.005596
     4  H    0.000004   0.000004   0.000000   0.000000   0.000000
     5  H    0.000108  -0.000042   0.000000  -0.000018   0.000009
     6  H   -0.000042   0.000108   0.000000   0.000009  -0.000018
     7  H    0.003504  -0.000169   0.000004   0.000108  -0.000042
     8  H   -0.000169   0.003504   0.000004  -0.000042   0.000108
     9  C    0.417186   0.417186  -0.044598  -0.037352  -0.037352
    10  H   -0.007274   0.008259  -0.000098   0.003382   0.000064
    11  H    0.008259  -0.007274  -0.000098   0.000064   0.003382
    12  C   -0.032705  -0.032705   0.418881   0.412947   0.412947
    13  H    0.609782  -0.036351  -0.004184  -0.005869   0.007346
    14  H   -0.036351   0.609782  -0.004184   0.007346  -0.005869
    15  H   -0.004184  -0.004184   0.554274  -0.023920  -0.023920
    16  H   -0.005869   0.007346  -0.023920   0.572659  -0.029617
    17  H    0.007346  -0.005869  -0.023920  -0.029617   0.572659
 Mulliken charges:
               1
     1  C   -0.335818
     2  C   -0.149904
     3  C   -0.207857
     4  H    0.117213
     5  H    0.106017
     6  H    0.106017
     7  H    0.087223
     8  H    0.087223
     9  C   -0.149904
    10  H    0.085958
    11  H    0.085958
    12  C   -0.335818
    13  H    0.087223
    14  H    0.087223
    15  H    0.117213
    16  H    0.106017
    17  H    0.106017
 Sum of Mulliken charges =   0.00000
 Mulliken charges with hydrogens summed into heavy atoms:
               1
     1  C   -0.006571
     2  C    0.024542
     3  C   -0.035942
     9  C    0.024542
    12  C   -0.006571
 Electronic spatial extent (au):  <R**2>=            716.9285
 Charge=              0.0000 electrons
 Dipole moment (field-independent basis, Debye):
    X=              0.0000    Y=              0.0000    Z=             -0.0897  Tot=              0.0897
 Quadrupole moment (field-independent basis, Debye-Ang):
   XX=            -34.3395   YY=            -35.9362   ZZ=            -35.4890
   XY=              0.0000   XZ=              0.0000   YZ=              0.0000
 Traceless Quadrupole moment (field-independent basis, Debye-Ang):
   XX=              0.9154   YY=             -0.6813   ZZ=             -0.2341
   XY=              0.0000   XZ=              0.0000   YZ=              0.0000
 Octapole moment (field-independent basis, Debye-Ang**2):
  XXX=              0.0000  YYY=              0.0000  ZZZ=             -0.3297  XYY=              0.0000
  XXY=              0.0000  XXZ=              0.4856  XZZ=              0.0000  YZZ=              0.0000
  YYZ=             -2.8146  XYZ=              0.0000
 Hexadecapole moment (field-independent basis, Debye-Ang**3):
 XXXX=            -72.0560 YYYY=           -824.6488 ZZZZ=           -124.0258 XXXY=              0.0000
 XXXZ=              0.0000 YYYX=              0.0000 YYYZ=              0.0000 ZZZX=              0.0000
 ZZZY=              0.0000 XXYY=           -148.4024 XXZZ=            -28.8870 YYZZ=           -156.4387
 XXYZ=              0.0000 YYXZ=              0.0000 ZZXY=              0.0000
 N-N= 1.850100383389D+02 E-N=-8.271558909095D+02  KE= 1.965989576956D+02
 Symmetry A1   KE= 1.102834472866D+02
 Symmetry A2   KE= 4.038870366164D+00
 Symmetry B1   KE= 5.846414345312D+00
 Symmetry B2   KE= 7.643022569744D+01
 No NMR shielding tensors so no spin-rotation constants.
 Leave Link  601 at Fri Jul  9 19:20:30 2021, MaxMem=  4194304000 cpu:        82.1
 (Enter /home/minenky/programs//g09/l701.exe)
 Compute integral first derivatives.
 ... and contract with generalized density number  0.
 R6Disp: Adding Grimme-D2 dispersion energy 1st derivatives to the gradient.
   4 Symmetry operations used in ECPInt.
 ECPInt:  NShTT=    5356 NPrTT=   15024 LenC2=    5264 LenP2D=   12273.
 LDataN:  DoStor=T MaxTD1= 7 Len=  274
 Leave Link  701 at Fri Jul  9 19:20:36 2021, MaxMem=  4194304000 cpu:        66.3
 (Enter /home/minenky/programs//g09/l702.exe)
 L702 exits ... SP integral derivatives will be done elsewhere.
 Leave Link  702 at Fri Jul  9 19:20:37 2021, MaxMem=  4194304000 cpu:         0.1
 (Enter /home/minenky/programs//g09/l703.exe)
 Compute integral first derivatives, UseDBF=F ICtDFT=           0.
 Integral derivatives from FoFJK, PRISM(SPDF).
 Calling FoFJK, ICntrl=      2127 FMM=F ISym2X=1 I1Cent= 0 IOpClX= 0 NMat=1 NMatS=1 NMatT=0.
 FoFJK:  IHMeth= 1 ICntrl=    2127 DoSepK=T KAlg= 0 I1Cent=   0 FoldK=F
 IRaf=         1 NMat=   1 IRICut=       1 DoRegI=T DoRafI=F ISym2E= 1.
 FoFCou: FMM=F IPFlag=           0 FMFlag=      100000 FMFlg1=         800
         NFxFlg=           0 DoJE=F BraDBF=F KetDBF=F FulRan=T
         wScrn=  0.000000 ICntrl=    2527 IOpCl=  0 I1Cent=           0 NGrid=           0
         NMat0=    1 NMatS0=      1 NMatT0=    0 NMatD0=    1 NMtDS0=    0 NMtDT0=    0
 Petite list used in FoFCou.
 Leave Link  703 at Fri Jul  9 19:20:57 2021, MaxMem=  4194304000 cpu:       196.2
 (Enter /home/minenky/programs//g09/l716.exe)
 Dipole        = 2.22044605D-16 5.32907052D-15-3.52826385D-02
 ***** Axes restored to original set *****
 -------------------------------------------------------------------
 Center     Atomic                   Forces (Hartrees/Bohr)
 Number     Number              X              Y              Z
 -------------------------------------------------------------------
      1        6           0.000000000   -0.001024093   -0.000477866
      2        6           0.000000000   -0.000040112    0.000809358
      3        6           0.000000000    0.000000000   -0.000679604
      4        1           0.000000000   -0.000360913   -0.000051891
      5        1          -0.000052884   -0.000202905   -0.000163365
      6        1           0.000052884   -0.000202905   -0.000163365
      7        1          -0.000103752    0.000006505    0.000281040
      8        1           0.000103752    0.000006505    0.000281040
      9        6           0.000000000    0.000040112    0.000809358
     10        1          -0.000013047    0.000000000   -0.000175150
     11        1           0.000013047    0.000000000   -0.000175150
     12        6           0.000000000    0.001024093   -0.000477866
     13        1          -0.000103752   -0.000006505    0.000281040
     14        1           0.000103752   -0.000006505    0.000281040
     15        1           0.000000000    0.000360913   -0.000051891
     16        1          -0.000052884    0.000202905   -0.000163365
     17        1           0.000052884    0.000202905   -0.000163365
 -------------------------------------------------------------------
 Cartesian Forces:  Max     0.001024093 RMS     0.000322333
 Leave Link  716 at Fri Jul  9 19:20:57 2021, MaxMem=  4194304000 cpu:         0.0
 (Enter /home/minenky/programs//g09/l103.exe)

 GradGradGradGradGradGradGradGradGradGradGradGradGradGradGradGradGradGrad
 Berny optimization.
 FormGI is forming the generalized inverse of G from B-inverse, IUseBI=4.
 Internal  Forces:  Max     0.001965201 RMS     0.000450128
 Search for a local minimum.
 Step number   1 out of a maximum of   92
 All quantities printed in internal units (Hartrees-Bohrs-Radians)
 RMS Force = .45013D-03 SwitMx=.10000D-02 MixMth= 2
 Mixed Optimization -- En-DIIS/RFO-DIIS
 Second derivative matrix not updated -- first step.
 ITU=  0
     Eigenvalues ---    0.00415   0.00415   0.00422   0.00422   0.03463
     Eigenvalues ---    0.03512   0.03512   0.04836   0.04850   0.04850
     Eigenvalues ---    0.05486   0.05486   0.05555   0.05555   0.08460
     Eigenvalues ---    0.08460   0.08540   0.12289   0.12289   0.12348
     Eigenvalues ---    0.16000   0.16000   0.16000   0.16000   0.16000
     Eigenvalues ---    0.16000   0.21899   0.21899   0.21907   0.29744
     Eigenvalues ---    0.29744   0.29797   0.29797   0.34109   0.34109
     Eigenvalues ---    0.34242   0.34242   0.34242   0.34242   0.34494
     Eigenvalues ---    0.34494   0.34494   0.34494   0.34627   0.34627
 RFO step:  Lambda=-6.22425588D-05 EMin= 4.14680078D-03
 Linear search not attempted -- first point.
 Iteration  1 RMS(Cart)=  0.00584982 RMS(Int)=  0.00000212
 Iteration  2 RMS(Cart)=  0.00000228 RMS(Int)=  0.00000062
 Iteration  3 RMS(Cart)=  0.00000000 RMS(Int)=  0.00000062
 ITry= 1 IFail=0 DXMaxC= 1.91D-02 DCOld= 1.00D+10 DXMaxT= 3.00D-01 DXLimC= 3.00D+00 Rises=F
 ClnCor:  largest displacement from symmetrization is 4.13D-11 for atom    15.
 Variable       Old X    -DE/DX   Delta X   Delta X   Delta X     New X
                                 (Linear)    (Quad)   (Total)
    R1        2.88371  -0.00197   0.00000  -0.00659  -0.00659   2.87711
    R2        2.06284  -0.00027   0.00000  -0.00077  -0.00077   2.06207
    R3        2.06505  -0.00015   0.00000  -0.00043  -0.00043   2.06463
    R4        2.06505  -0.00015   0.00000  -0.00043  -0.00043   2.06463
    R5        2.88477  -0.00180   0.00000  -0.00606  -0.00606   2.87871
    R6        2.06924  -0.00025   0.00000  -0.00074  -0.00074   2.06850
    R7        2.06924  -0.00025   0.00000  -0.00074  -0.00074   2.06850
    R8        2.88477  -0.00180   0.00000  -0.00606  -0.00606   2.87871
    R9        2.07147  -0.00012   0.00000  -0.00034  -0.00034   2.07113
   R10        2.07147  -0.00012   0.00000  -0.00034  -0.00034   2.07113
   R11        2.88371  -0.00197   0.00000  -0.00659  -0.00659   2.87711
   R12        2.06924  -0.00025   0.00000  -0.00074  -0.00074   2.06850
   R13        2.06924  -0.00025   0.00000  -0.00074  -0.00074   2.06850
   R14        2.06284  -0.00027   0.00000  -0.00077  -0.00077   2.06207
   R15        2.06505  -0.00015   0.00000  -0.00043  -0.00043   2.06463
   R16        2.06505  -0.00015   0.00000  -0.00043  -0.00043   2.06463
    A1        1.94705  -0.00025   0.00000  -0.00158  -0.00159   1.94547
    A2        1.93825  -0.00021   0.00000  -0.00130  -0.00130   1.93695
    A3        1.93825  -0.00021   0.00000  -0.00130  -0.00130   1.93695
    A4        1.88042   0.00025   0.00000   0.00152   0.00152   1.88194
    A5        1.88042   0.00025   0.00000   0.00152   0.00152   1.88194
    A6        1.87647   0.00022   0.00000   0.00141   0.00141   1.87788
    A7        1.97454  -0.00049   0.00000  -0.00286  -0.00286   1.97167
    A8        1.91202   0.00012   0.00000   0.00022   0.00022   1.91224
    A9        1.91202   0.00012   0.00000   0.00022   0.00022   1.91224
   A10        1.90499   0.00013   0.00000   0.00031   0.00031   1.90529
   A11        1.90499   0.00013   0.00000   0.00031   0.00031   1.90529
   A12        1.85120   0.00001   0.00000   0.00213   0.00213   1.85333
   A13        1.98306  -0.00055   0.00000  -0.00309  -0.00309   1.97997
   A14        1.90664   0.00015   0.00000   0.00039   0.00039   1.90703
   A15        1.90664   0.00015   0.00000   0.00039   0.00039   1.90703
   A16        1.90664   0.00015   0.00000   0.00039   0.00039   1.90703
   A17        1.90664   0.00015   0.00000   0.00039   0.00039   1.90703
   A18        1.84949  -0.00001   0.00000   0.00187   0.00187   1.85136
   A19        1.97454  -0.00049   0.00000  -0.00286  -0.00286   1.97167
   A20        1.90499   0.00013   0.00000   0.00031   0.00031   1.90529
   A21        1.90499   0.00013   0.00000   0.00031   0.00031   1.90529
   A22        1.91202   0.00012   0.00000   0.00022   0.00022   1.91224
   A23        1.91202   0.00012   0.00000   0.00022   0.00022   1.91224
   A24        1.85120   0.00001   0.00000   0.00213   0.00213   1.85333
   A25        1.94705  -0.00025   0.00000  -0.00158  -0.00159   1.94547
   A26        1.93825  -0.00021   0.00000  -0.00130  -0.00130   1.93695
   A27        1.93825  -0.00021   0.00000  -0.00130  -0.00130   1.93695
   A28        1.88042   0.00025   0.00000   0.00152   0.00152   1.88194
   A29        1.88042   0.00025   0.00000   0.00152   0.00152   1.88194
   A30        1.87647   0.00022   0.00000   0.00141   0.00141   1.87788
    D1        3.14159   0.00000   0.00000   0.00000   0.00000   3.14159
    D2        1.01194   0.00008   0.00000   0.00141   0.00141   1.01335
    D3       -1.01194  -0.00008   0.00000  -0.00141  -0.00141  -1.01335
    D4        1.04357   0.00000   0.00000   0.00003   0.00003   1.04360
    D5       -1.08608   0.00008   0.00000   0.00143   0.00143  -1.08464
    D6       -3.10997  -0.00008   0.00000  -0.00138  -0.00138  -3.11135
    D7       -1.04357   0.00000   0.00000  -0.00003  -0.00003  -1.04360
    D8        3.10997   0.00008   0.00000   0.00138   0.00138   3.11135
    D9        1.08608  -0.00008   0.00000  -0.00143  -0.00143   1.08464
   D10        3.14159   0.00000   0.00000   0.00000   0.00000   3.14159
   D11       -1.00790  -0.00008   0.00000  -0.00133  -0.00133  -1.00923
   D12        1.00790   0.00008   0.00000   0.00133   0.00133   1.00923
   D13       -1.00801  -0.00008   0.00000  -0.00144  -0.00144  -1.00945
   D14        1.12568  -0.00016   0.00000  -0.00277  -0.00277   1.12291
   D15        3.14148  -0.00001   0.00000  -0.00011  -0.00011   3.14137
   D16        1.00801   0.00008   0.00000   0.00144   0.00144   1.00945
   D17       -3.14148   0.00001   0.00000   0.00011   0.00011  -3.14137
   D18       -1.12568   0.00016   0.00000   0.00277   0.00277  -1.12291
   D19        3.14159   0.00000   0.00000   0.00000   0.00000   3.14159
   D20        1.00801   0.00008   0.00000   0.00144   0.00144   1.00945
   D21       -1.00801  -0.00008   0.00000  -0.00144  -0.00144  -1.00945
   D22        1.00790   0.00008   0.00000   0.00133   0.00133   1.00923
   D23       -1.12568   0.00016   0.00000   0.00277   0.00277  -1.12291
   D24        3.14148  -0.00001   0.00000  -0.00011  -0.00011   3.14137
   D25       -1.00790  -0.00008   0.00000  -0.00133  -0.00133  -1.00923
   D26       -3.14148   0.00001   0.00000   0.00011   0.00011  -3.14137
   D27        1.12568  -0.00016   0.00000  -0.00277  -0.00277   1.12291
   D28        3.14159   0.00000   0.00000   0.00000   0.00000   3.14159
   D29       -1.04357   0.00000   0.00000  -0.00003  -0.00003  -1.04360
   D30        1.04357   0.00000   0.00000   0.00003   0.00003   1.04360
   D31       -1.01194  -0.00008   0.00000  -0.00141  -0.00141  -1.01335
   D32        1.08608  -0.00008   0.00000  -0.00143  -0.00143   1.08464
   D33       -3.10997  -0.00008   0.00000  -0.00138  -0.00138  -3.11135
   D34        1.01194   0.00008   0.00000   0.00141   0.00141   1.01335
   D35        3.10997   0.00008   0.00000   0.00138   0.00138   3.11135
   D36       -1.08608   0.00008   0.00000   0.00143   0.00143  -1.08464
         Item               Value     Threshold  Converged?
 Maximum Force            0.001965     0.000015     NO 
 RMS     Force            0.000450     0.000010     NO 
 Maximum Displacement     0.019059     0.000060     NO 
 RMS     Displacement     0.005850     0.000040     NO 
 Predicted change in Energy=-3.112904D-05
 Lowest energy point so far.  Saving SCF results.
[...]
 ! D16   D(8,2,3,9)             57.8027         -DE/DX =    0.0                 !
 ! D17   D(8,2,3,10)          -179.9903         -DE/DX =    0.0                 !
 ! D18   D(8,2,3,11)           -64.4044         -DE/DX =    0.0                 !
 ! D19   D(2,3,9,12)           180.0            -DE/DX =    0.0                 !
 ! D20   D(2,3,9,13)            57.8027         -DE/DX =    0.0                 !
 ! D21   D(2,3,9,14)           -57.8027         -DE/DX =    0.0                 !
 ! D22   D(10,3,9,12)           57.793          -DE/DX =    0.0                 !
 ! D23   D(10,3,9,13)          -64.4044         -DE/DX =    0.0                 !
 ! D24   D(10,3,9,14)          179.9903         -DE/DX =    0.0                 !
 ! D25   D(11,3,9,12)          -57.793          -DE/DX =    0.0                 !
 ! D26   D(11,3,9,13)         -179.9903         -DE/DX =    0.0                 !
 ! D27   D(11,3,9,14)           64.4044         -DE/DX =    0.0                 !
 ! D28   D(3,9,12,15)          180.0            -DE/DX =    0.0                 !
 ! D29   D(3,9,12,16)          -59.7813         -DE/DX =    0.0                 !
 ! D30   D(3,9,12,17)           59.7813         -DE/DX =    0.0                 !
 ! D31   D(13,9,12,15)         -58.0387         -DE/DX =    0.0                 !
 ! D32   D(13,9,12,16)          62.18           -DE/DX =    0.0                 !
 ! D33   D(13,9,12,17)        -178.2574         -DE/DX =    0.0                 !
 ! D34   D(14,9,12,15)          58.0387         -DE/DX =    0.0                 !
 ! D35   D(14,9,12,16)         178.2574         -DE/DX =    0.0                 !
 ! D36   D(14,9,12,17)         -62.18           -DE/DX =    0.0                 !
 --------------------------------------------------------------------------------
 GradGradGradGradGradGradGradGradGradGradGradGradGradGradGradGradGradGrad

 Leave Link  103 at Fri Jul  9 19:33:30 2021, MaxMem=  4194304000 cpu:        68.0
 (Enter /home/minenky/programs//g09/l9999.exe)
 1\1\GINC-CN506-06-R\Freq\RwB97XD\def2TZVP\C5H12\MINENKY\09-Jul-2021\0\
 \#P Geom=AllCheck Guess=TCheck SCRF=Check GenChk RwB97XD/def2TZVP Freq
 \\The PBEPBE optimization and frequencies\\0,1\C,0.,2.5408883789,0.323
 6200643\C,0.,1.274428109,-0.522051719\C,0.,0.,0.3130957555\H,0.,3.4375
 461963,-0.2982850113\H,0.8814893705,2.5811594652,0.9678769985\H,-0.881
 4893705,2.5811594652,0.9678769985\H,0.8750686818,1.2727220573,-1.17970
 74283\H,-0.8750686818,1.2727220573,-1.1797074283\C,0.,-1.274428109,-0.
 522051719\H,0.8755347602,0.,0.9724676479\H,-0.8755347602,0.,0.97246764
 79\C,0.,-2.5408883789,0.3236200643\H,0.8750686818,-1.2727220573,-1.179
 7074283\H,-0.8750686818,-1.2727220573,-1.1797074283\H,0.,-3.4375461963
 ,-0.2982850113\H,0.8814893705,-2.5811594652,0.9678769985\H,-0.88148937
 05,-2.5811594652,0.9678769985\\Version=AM64L-G09RevD.01\State=1-A1\HF=
 -197.7816372\RMSD=1.029e-09\RMSF=6.226e-06\ZeroPoint=0.1613209\Thermal
 =0.1683652\Dipole=0.,0.,-0.036099\DipoleDeriv=0.1152123,0.,0.,0.,-0.00
 25386,-0.0284955,0.,-0.0021523,0.0805647,0.1528161,0.,0.,0.,0.0714793,
 0.0088581,0.,-0.0171491,0.1057703,0.1647286,0.,0.,0.,0.003073,0.,0.,0.
 ,0.0741192,0.0742533,0.,0.,0.,-0.1539487,0.0648016,0.,0.1082962,-0.014
 5372,-0.08406,-0.0229748,-0.1156458,0.0282644,0.0397991,0.0020105,-0.0
 937234,-0.0475578,-0.0257541,-0.08406,0.0229747,0.1156458,-0.0282644,0
 .0397991,0.0020105,0.0937234,-0.0475578,-0.0257541,-0.0841914,0.002551
 9,0.1307282,0.0202517,-0.0008198,-0.0225021,0.0970069,0.0009309,-0.052
 1949,-0.0841914,-0.0025518,-0.1307282,-0.0202517,-0.0008197,-0.0225021
 ,-0.0970069,0.0009309,-0.0521949,0.1528161,0.,0.,0.,0.0714794,-0.00885
 81,0.,0.0171492,0.1057703,-0.0881432,0.,-0.1276765,0.,0.0055127,0.,-0.
 0952073,0.,-0.0529594,-0.0881432,0.,0.1276765,0.,0.0055126,0.,0.095207
 3,0.,-0.0529594,0.1152123,0.,0.,0.,-0.0025386,0.0284955,0.,0.0021522,0
 .0805648,-0.0841914,-0.0025518,0.1307282,-0.0202517,-0.0008198,0.02250
 21,0.0970069,-0.0009309,-0.0521949,-0.0841914,0.0025518,-0.1307282,0.0
 202517,-0.0008197,0.0225021,-0.0970069,-0.0009309,-0.0521949,0.0742533
 ,0.,0.,0.,-0.1539487,-0.0648016,0.,-0.1082962,-0.0145372,-0.08406,0.02
 29748,-0.1156458,-0.0282644,0.0397991,-0.0020105,-0.0937234,0.0475578,
 -0.0257541,-0.08406,-0.0229748,0.1156458,0.0282644,0.0397992,-0.002010
 5,0.0937234,0.0475579,-0.0257541\Polar=56.0330438,-0.0000001,72.748067
 9,0.,-0.0000003,58.8519613\PG=C02V [C2(C1),SGV(C4H2),SGV'(H2),X(H8)]\N
 Imag=0\\0.56947429,0.,0.51470277,0.,-0.04770719,0.54376567,-0.08011504
 ,0.,0.,0.59423031,0.,-0.16106113,-0.05855829,0.,0.46666651,0.,-0.05608
 076,-0.12114983,0.,0.00488602,0.54119369,-0.00060260,0.,0.,-0.08055231
 ,0.,0.,0.58970892,0.,-0.03048993,0.01518064,0.,-0.15388788,0.05453317,
 0.,0.47117944,0.,-0.01657119,0.01331763,0.,0.05564177,-0.12179408,0.,0
 .,0.54013490,-0.04780808,0.,0.,-0.00143870,0.,0.,0.00027681,0.,0.,0.04
 645718,0.,-0.22392266,0.12601814,0.,-0.02082970,0.01767859,0.,-0.00351
 046,-0.00570360,0.,0.24494370,0.,0.12769695,-0.13825092,0.,-0.01781357
 ,0.01272782,0.,-0.00251103,-0.00249434,0.,-0.13649301,0.14740717,-0.22
 200180,-0.00553684,-0.12453842,0.00078350,0.00013544,0.00068224,0.0001
 8850,0.00016541,0.00020756,0.00074642,0.00032430,0.00138788,0.23812275
 ,-0.00469572,-0.04751532,-0.00269205,-0.02418994,-0.00149380,-0.016745
 70,-0.00131080,0.00181527,-0.00078879,0.02256854,0.00129385,0.01445080
 ,0.00594381,0.05090280,-0.12403659,-0.00325889,-0.13675529,-0.01613882
 ,-0.00063796,-0.01220488,0.00036314,0.00107650,0.00053184,-0.01519437,
 -0.00128343,-0.01092746,0.13770296,0.00723364,0.14757239,-0.22200180,0
 .00553684,0.12453842,0.00078350,-0.00013544,-0.00068224,0.00018850,-0.
 00016541,-0.00020756,0.00074643,-0.00032430,-0.00138788,-0.02050066,0.
 00016388,0.01598746,0.23812275,0.00469572,-0.04751532,-0.00269205,0.02
 418994,-0.00149380,-0.01674570,0.00131080,0.00181527,-0.00078879,-0.02
 256854,0.00129385,0.01445080,-0.00016388,-0.00109148,0.00038931,-0.005
 94381,0.05090280,0.12403659,-0.00325889,-0.13675529,0.01613882,-0.0006
 3796,-0.01220488,-0.00036314,0.00107650,0.00053184,0.01519437,-0.00128
 343,-0.01092746,-0.01598746,0.00038931,0.01234319,-0.13770296,0.007233
 64,0.14757239,0.00092937,-0.00015989,-0.00112849,-0.21659393,0.0001091
 6,0.12066899,-0.00006952,0.00009187,-0.00019520,0.00001040,0.00068176,
 0.00006560,0.00081620,0.00035769,0.00016506,0.00160060,-0.00009254,-0.
 00058115,0.23179364,0.02412614,-0.00164586,-0.01787097,-0.00011431,-0.
 04698738,0.00019584,-0.02392323,-0.00215389,0.01720049,0.00026664,0.00
 080894,0.00080669,-0.00049550,0.00115660,0.00060364,-0.00027122,-0.004
 70283,-0.00369119,-0.00009628,0.05651981,0.01529016,-0.00083246,-0.011
 48301,0.11943459,0.00002885,-0.13686369,0.01656747,0.00125155,-0.01263
 029,-0.00030475,0.00004370,0.00082324,-0.00009126,0.00070875,0.0000393
 0,-0.00024789,-0.00333713,-0.00141022,-0.13388865,0.00001334,0.1498378
 7,0.00092937,0.00015989,0.00112849,-0.21659393,-0.00010916,-0.12066899
 ,-0.00006952,-0.00009187,0.00019520,0.00001040,-0.00068176,-0.00006560
 ,0.00160060,0.00009254,0.00058115,0.00081620,-0.00035769,-0.00016506,-
 0.02155322,0.00006993,-0.01555637,0.23179364,-0.02412614,-0.00164587,-
 0.01787097,0.00011431,-0.04698738,0.00019584,0.02392323,-0.00215389,0.
 01720049,-0.00026664,0.00080894,0.00080669,0.00027122,-0.00470283,-0.0
 0369119,0.00049550,0.00115660,0.00060364,-0.00006993,-0.00056779,0.000
 05969,0.00009628,0.05651981,-0.01529016,-0.00083246,-0.01148301,-0.119
 43459,0.00002885,-0.13686369,-0.01656747,0.00125155,-0.01263029,0.0003
 0475,0.00004370,0.00082324,0.00024789,-0.00333713,-0.00141022,0.000091
 26,0.00070875,0.00003930,0.01555637,0.00005969,0.01199503,0.13388865,0
 .00001334,0.14983787,-0.00049182,0.,0.,-0.00127576,0.,0.,-0.08055231,0
 .,0.,0.00058445,0.,0.,0.00027987,0.00014049,0.00021839,0.00027987,-0.0
 0014049,-0.00021839,0.00011529,-0.00117080,-0.00017080,0.00011529,0.00
 117081,0.00017080,0.59423031,0.,-0.00290175,0.00313584,0.,-0.02872227,
 -0.01516331,0.,-0.15388787,-0.05564176,0.,-0.00085761,-0.00088165,-0.0
 0011981,-0.00009775,0.00003306,0.00011981,-0.00009775,0.00003306,0.000
 19409,0.00160871,-0.00104751,-0.00019409,0.00160871,-0.00104751,0.,0.4
 6666651,0.,0.00380892,-0.00368808,0.,0.01516331,0.01396329,0.,-0.05453
 317,-0.12179408,0.,0.00171267,0.00089963,0.00028910,-0.00010908,0.0001
 1729,-0.00028910,-0.00010908,0.00011729,-0.00008166,0.00089187,0.00040
 022,0.00008166,0.00089187,0.00040022,0.,-0.00488602,0.54119369,0.00024
 461,-0.00004192,0.00023860,-0.00005529,-0.00037052,0.00023260,-0.21421
 432,0.,-0.11888581,0.00023147,0.00009310,0.00026996,0.00011135,0.00061
 931,0.00015138,-0.00009788,-0.00004804,-0.00007140,0.00087865,0.000444
 61,-0.00012700,0.00167083,-0.00012960,0.00020639,-0.00005529,0.0003705
 2,0.00023260,0.22978766,0.00104487,0.00162409,0.00072189,0.02381433,-0
 .00223287,0.01716659,0.,-0.04702421,0.,-0.00031612,0.00031253,-0.00013
 649,-0.00063089,-0.00036897,-0.00052098,-0.00001650,-0.00003902,-0.000
 06194,-0.00043853,0.00108330,-0.00065033,-0.00007356,-0.00470901,0.003
 35510,-0.02381433,-0.00223288,-0.01716659,0.,0.05621969,0.00038112,-0.
 00099878,0.00063446,-0.01635789,0.00106214,-0.01252516,-0.11795969,0.,
 -0.13489975,0.00031631,-0.00011257,0.00003743,0.00014453,0.00049501,0.
 00061447,0.00008857,0.00008014,0.00003288,0.00010061,-0.00064976,0.000
 10035,0.00020169,0.00322949,-0.00168149,-0.01635789,-0.00106214,-0.012
 52517,0.13264726,0.,0.14875640,0.00024461,0.00004192,-0.00023861,-0.00
 005529,0.00037052,-0.00023260,-0.21421432,0.,0.11888581,0.00023147,-0.
 00009310,-0.00026996,-0.00009788,0.00004804,0.00007140,0.00011135,-0.0
 0061931,-0.00015138,0.00167083,0.00012960,-0.00020639,0.00087865,-0.00
 044461,0.00012700,-0.00005529,-0.00037052,-0.00023260,-0.02154080,0.,0
 .01556254,0.22978766,-0.00104487,0.00162410,0.00072189,-0.02381433,-0.
 00223288,0.01716659,0.,-0.04702421,0.,0.00031612,0.00031253,-0.0001364
 9,0.00001650,-0.00003902,-0.00006194,0.00063089,-0.00036897,-0.0005209
 8,0.00007356,-0.00470901,0.00335510,0.00043853,0.00108330,-0.00065033,
 0.02381433,-0.00223287,-0.01716659,0.,-0.00053558,0.,0.,0.05621969,-0.
 00038111,-0.00099878,0.00063446,0.01635789,0.00106214,-0.01252517,0.11
 795969,0.,-0.13489975,-0.00031631,-0.00011257,0.00003743,-0.00008857,0
 .00008014,0.00003288,-0.00014453,0.00049501,0.00061447,-0.00020170,0.0
 0322949,-0.00168149,-0.00010061,-0.00064976,0.00010035,0.01635789,-0.0
 0106214,-0.01252516,-0.01556254,0.,0.01171751,-0.13264726,0.,0.1487564
 0,0.00062195,0.,0.,-0.00049182,0.,0.,-0.00060259,0.,0.,-0.00000713,0.,
 0.,-0.00002519,0.00008591,0.00005734,-0.00002519,-0.00008591,-0.000057
 34,0.00031721,0.00015714,-0.00029466,0.00031721,-0.00015714,0.00029466
 ,-0.08011504,0.,0.,0.00024461,-0.00104487,0.00038111,0.00024461,0.0010
 4487,-0.00038112,0.56947429,0.,-0.00075805,0.00127237,0.,-0.00290175,-
 0.00380892,0.,-0.03048993,0.01657119,0.,-0.00045050,-0.00028495,-0.000
 05303,0.00003978,-0.00001701,0.00005303,0.00003978,-0.00001701,-0.0001
 5852,-0.00006206,0.00000653,0.00015852,-0.00006206,0.00000653,0.,-0.16
 106113,0.05608076,0.00004192,0.00162410,0.00099878,-0.00004192,0.00162
 409,0.00099878,0.,0.51470277,0.,-0.00127237,0.00121529,0.,-0.00313584,
 -0.00368808,0.,-0.01518064,0.01331763,0.,-0.00056977,-0.00027337,-0.00
 005141,0.00009336,0.00000620,0.00005141,0.00009336,0.00000620,-0.00031
 258,0.00002116,0.00012945,0.00031258,0.00002116,0.00012945,0.,0.058558
 29,-0.12114983,0.00023861,-0.00072189,0.00063446,-0.00023860,-0.000721
 89,0.00063446,0.,0.04770719,0.54376567,0.00031721,0.00015852,-0.000312
 58,0.00011529,-0.00019409,-0.00008166,-0.00006952,-0.00009187,-0.00019
 520,-0.00001912,0.00010579,0.00003026,-0.00002467,-0.00002634,-0.00000
 107,-0.00001058,-0.00018787,-0.00007645,0.00021934,0.00062520,-0.00020
 966,-0.00008050,-0.00002436,0.00008971,-0.21659393,-0.00010916,0.12066
 899,0.00087865,0.00043853,0.00010061,0.00167083,-0.00007356,-0.0002016
 9,0.00092937,0.00015989,-0.00112849,0.23179364,-0.00015714,-0.00006206
 ,-0.00002116,0.00117081,0.00160871,-0.00089187,0.02392323,-0.00215389,
 -0.01720049,-0.00007607,-0.00000711,0.00007070,0.00001816,0.00001955,-
 0.00001298,-0.00016982,0.00010804,0.00019662,-0.00062520,-0.00044933,0
 .00048860,-0.00002436,-0.00001969,0.00006735,0.00011431,-0.04698738,-0
 .00019584,-0.00044461,0.00108330,0.00064976,-0.00012960,-0.00470901,-0
 .00322949,-0.02412614,-0.00164587,0.01787097,0.00009628,0.05651981,-0.
 00029466,-0.00000653,0.00012945,-0.00017080,0.00104751,0.00040022,0.01
 656747,-0.00125155,-0.01263029,-0.00004663,-0.00004881,0.00003525,0.00
 000917,-0.00000994,-0.00005826,-0.00006762,0.00021479,0.00007651,-0.00
 020966,-0.00048860,0.00065873,-0.00008971,-0.00006735,0.00003101,0.119
 43459,-0.00002885,-0.13686369,-0.00012700,0.00065033,0.00010035,-0.000
 20639,-0.00335510,-0.00168149,0.01529016,0.00083246,-0.01148301,-0.133
 88865,-0.00001334,0.14983787,0.00031721,-0.00015852,0.00031258,0.00011
 529,0.00019409,0.00008166,-0.00006952,0.00009187,0.00019520,-0.0000191
 2,-0.00010579,-0.00003026,-0.00001058,0.00018787,0.00007645,-0.0000246
 7,0.00002634,0.00000107,-0.00008050,0.00002436,-0.00008971,0.00021934,
 -0.00062520,0.00020966,-0.21659393,0.00010916,-0.12066899,0.00167083,0
 .00007356,0.00020170,0.00087865,-0.00043853,-0.00010061,0.00092937,-0.
 00015989,0.00112849,-0.02155322,-0.00006993,-0.01555637,0.23179364,0.0
 0015714,-0.00006206,-0.00002116,-0.00117080,0.00160871,-0.00089187,-0.
 02392323,-0.00215389,-0.01720049,0.00007607,-0.00000711,0.00007070,0.0
 0016982,0.00010804,0.00019662,-0.00001816,0.00001955,-0.00001298,0.000
 02436,-0.00001969,0.00006735,0.00062520,-0.00044933,0.00048860,-0.0001
 1431,-0.04698738,-0.00019584,0.00012960,-0.00470901,-0.00322949,0.0004
 4461,0.00108330,0.00064976,0.02412614,-0.00164586,0.01787097,0.0000699
 3,-0.00056779,-0.00005969,-0.00009628,0.05651981,0.00029466,-0.0000065
 3,0.00012945,0.00017080,0.00104751,0.00040022,-0.01656747,-0.00125155,
 -0.01263029,0.00004663,-0.00004881,0.00003525,0.00006762,0.00021479,0.
 00007651,-0.00000917,-0.00000994,-0.00005826,0.00008971,-0.00006735,0.
 00003101,0.00020966,-0.00048860,0.00065873,-0.11943459,-0.00002885,-0.
 13686369,0.00020639,-0.00335510,-0.00168149,0.00012700,0.00065033,0.00
 010035,-0.01529016,0.00083246,-0.01148301,0.01555637,-0.00005969,0.011
 99503,0.13388865,-0.00001334,0.14983787,-0.00000713,0.,0.,0.00058445,0
 .,0.,0.00027681,0.,0.,-0.00000635,0.,0.,0.00000173,0.00000357,-0.00000
 521,0.00000173,-0.00000357,0.00000521,-0.00001912,0.00007607,-0.000046
 63,-0.00001912,-0.00007607,0.00004663,-0.00143870,0.,0.,0.00023147,0.0
 0031612,0.00031631,0.00023147,-0.00031612,-0.00031631,-0.04780808,0.,0
 .,0.00001040,-0.00026664,-0.00030475,0.00001040,0.00026664,0.00030475,
 0.04645718,0.,-0.00045050,0.00056977,0.,-0.00085761,-0.00171267,0.,-0.
 00351046,0.00570360,0.,-0.00025552,-0.00011506,-0.00002685,0.00003318,
 -0.00002207,0.00002685,0.00003318,-0.00002207,-0.00010579,-0.00000711,
 0.00004881,0.00010579,-0.00000711,0.00004881,0.,-0.02082970,-0.0176785
 9,-0.00009310,0.00031253,0.00011257,0.00009310,0.00031253,0.00011257,0
 .,-0.22392266,-0.12601814,-0.00068176,0.00080894,-0.00004370,0.0006817
 6,0.00080894,-0.00004370,0.,0.24494370,0.,0.00028495,-0.00027337,0.,0.
 00088165,0.00089963,0.,0.00251103,-0.00249434,0.,0.00011506,0.00006075
 ,0.00001536,-0.00000946,-0.00000683,-0.00001536,-0.00000946,-0.0000068
 3,0.00003026,-0.00007070,0.00003525,-0.00003026,-0.00007070,0.00003525
 ,0.,0.01781357,0.01272782,0.00026996,0.00013649,0.00003743,-0.00026996
 ,0.00013649,0.00003743,0.,-0.12769695,-0.13825092,0.00006560,-0.000806
 69,0.00082324,-0.00006560,-0.00080669,0.00082324,0.,0.13649301,0.14740
 717,-0.00002519,0.00005303,-0.00005141,0.00027987,0.00011981,0.0002891
 0,0.00018850,-0.00016541,0.00020756,0.00000173,0.00002685,0.00001536,0
 .00002180,0.00001450,0.00000207,-0.00001195,0.00000336,0.00000075,-0.0
 0002467,-0.00001816,0.00000917,-0.00001058,-0.00016982,0.00006762,0.00
 078350,-0.00013544,0.00068224,0.00011135,0.00063089,0.00014453,-0.0000
 9788,-0.00001650,-0.00008857,-0.22200180,0.00553684,-0.12453842,0.0008
 1620,0.00049550,-0.00009126,0.00160060,-0.00027122,0.00024789,0.000746
 43,-0.00032430,0.00138788,0.23812275,-0.00008591,0.00003978,-0.0000933
 6,-0.00014049,-0.00009775,0.00010908,0.00131080,0.00181527,0.00078879,
 -0.00000357,0.00003318,0.00000946,-0.00001450,-0.00005722,-0.00002993,
 0.00000336,-0.00000269,0.00000360,0.00002634,0.00001955,0.00000994,-0.
 00018787,0.00010804,-0.00021479,0.02418994,-0.00149380,0.01674570,-0.0
 0061931,-0.00036897,-0.00049501,-0.00004804,-0.00003902,-0.00008014,0.
 00469572,-0.04751532,0.00269205,-0.00035769,0.00115660,-0.00070875,-0.
 00009254,-0.00470283,0.00333713,-0.02256854,0.00129385,-0.01445080,-0.
 00594381,0.05090280,0.00005734,0.00001701,0.00000620,0.00021839,-0.000
 03306,0.00011729,0.00036314,-0.00107650,0.00053184,-0.00000521,0.00002
 207,-0.00000683,0.00000207,0.00002993,0.00002502,-0.00000075,-0.000003
 60,0.00000386,-0.00000107,0.00001298,-0.00005826,0.00007645,-0.0001966
 2,0.00007651,-0.01613882,0.00063796,-0.01220488,0.00015138,0.00052098,
 0.00061447,0.00007140,0.00006194,0.00003288,-0.12403659,0.00325889,-0.
 13675529,0.00016506,-0.00060364,0.00003930,0.00058115,0.00369119,-0.00
 141022,-0.01519437,0.00128343,-0.01092746,0.13770296,-0.00723364,0.147
 57239,-0.00002519,-0.00005303,0.00005141,0.00027987,-0.00011981,-0.000
 28910,0.00018850,0.00016541,-0.00020756,0.00000173,-0.00002685,-0.0000
 1536,-0.00001195,-0.00000336,-0.00000075,0.00002180,-0.00001450,-0.000
 00207,-0.00001058,0.00016982,-0.00006762,-0.00002467,0.00001816,-0.000
 00917,0.00078350,0.00013544,-0.00068224,-0.00009788,0.00001650,0.00008
 857,0.00011135,-0.00063089,-0.00014453,-0.22200180,-0.00553684,0.12453
 842,0.00160060,0.00027122,-0.00024789,0.00081620,-0.00049550,0.0000912
 6,0.00074642,0.00032430,-0.00138788,-0.02050066,-0.00016388,0.01598746
 ,0.23812275,0.00008591,0.00003978,-0.00009336,0.00014049,-0.00009775,0
 .00010908,-0.00131080,0.00181527,0.00078879,0.00000357,0.00003318,0.00
 000946,-0.00000336,-0.00000269,0.00000360,0.00001450,-0.00005722,-0.00
 002993,0.00018787,0.00010804,-0.00021479,-0.00002634,0.00001955,0.0000
 0994,-0.02418994,-0.00149380,0.01674570,0.00004804,-0.00003902,-0.0000
 8014,0.00061931,-0.00036897,-0.00049501,-0.00469572,-0.04751532,0.0026
 9205,0.00009254,-0.00470283,0.00333713,0.00035769,0.00115660,-0.000708
 75,0.02256854,0.00129385,-0.01445080,0.00016388,-0.00109148,-0.0003893
 1,0.00594381,0.05090280,-0.00005734,0.00001701,0.00000620,-0.00021839,
 -0.00003306,0.00011729,-0.00036314,-0.00107650,0.00053184,0.00000521,0
 .00002207,-0.00000683,0.00000075,-0.00000360,0.00000386,-0.00000207,0.
 00002993,0.00002502,-0.00007645,-0.00019662,0.00007651,0.00000107,0.00
 001298,-0.00005826,0.01613882,0.00063796,-0.01220488,-0.00007140,0.000
 06194,0.00003288,-0.00015138,0.00052098,0.00061447,0.12403659,0.003258
 89,-0.13675529,-0.00058115,0.00369119,-0.00141022,-0.00016506,-0.00060
 364,0.00003930,0.01519437,0.00128343,-0.01092746,-0.01598746,-0.000389
 31,0.01234319,-0.13770296,-0.00723364,0.14757239\\0.,0.00001470,0.0000
 1209,0.,-0.00000618,-0.00001931,0.,0.,0.00001732,0.,-0.00000225,-0.000
 00073,-0.00000030,-0.00000107,-0.00000186,0.00000030,-0.00000107,-0.00
 000186,-0.00000023,0.,0.00000380,0.00000023,0.,0.00000380,0.,0.0000061
 8,-0.00001931,-0.00000043,0.,-0.00000457,0.00000043,0.,-0.00000457,0.,
 -0.00001470,0.00001209,-0.00000023,0.,0.00000380,0.00000023,0.,0.00000
 380,0.,0.00000225,-0.00000073,-0.00000030,0.00000107,-0.00000186,0.000
 00030,0.00000107,-0.00000186\\\@


 SIC AS THE CAWSE OF EWERY THING IS, SIC WILBE THE EFFECT.
 -- PROVERBS AND REASONS OF THE YEAR 1585
           AS REPRINTED IN PAISLEY MAGAZINE 1828.
 Job cpu time:       0 days  0 hours 42 minutes  8.9 seconds.
 File lengths (MBytes):  RWF=     47 Int=      0 D2E=      0 Chk=      5 Scr=      1
 Normal termination of Gaussian 09 at Fri Jul  9 19:33:31 2021.
