 Entering Gaussian System, Link 0=g09
 Initial command:
 /home/minenky/programs//g09/l1.exe "/local/scratch/minenky/m1_00_120835-91-8-C32H16_wB97XD/Gau-22242.inp" -scrdir="/local/scratch/minenky/m1_00_120835-91-8-C32H16_wB97XD/"
 Entering Link 1 = /home/minenky/programs//g09/l1.exe PID=     22243.
  
 Copyright (c) 1988,1990,1992,1993,1995,1998,2003,2009,2013,
            Gaussian, Inc.  All Rights Reserved.
  
 This is part of the Gaussian(R) 09 program.  It is based on
 the Gaussian(R) 03 system (copyright 2003, Gaussian, Inc.),
 the Gaussian(R) 98 system (copyright 1998, Gaussian, Inc.),
 the Gaussian(R) 94 system (copyright 1995, Gaussian, Inc.),
 the Gaussian 92(TM) system (copyright 1992, Gaussian, Inc.),
 the Gaussian 90(TM) system (copyright 1990, Gaussian, Inc.),
 the Gaussian 88(TM) system (copyright 1988, Gaussian, Inc.),
 the Gaussian 86(TM) system (copyright 1986, Carnegie Mellon
 University), and the Gaussian 82(TM) system (copyright 1983,
 Carnegie Mellon University). Gaussian is a federally registered
 trademark of Gaussian, Inc.
  
 This software contains proprietary and confidential information,
 including trade secrets, belonging to Gaussian, Inc.
  
 This software is provided under written license and may be
 used, copied, transmitted, or stored only in accord with that
 written license.
  
 The following legend is applicable only to US Government
 contracts under FAR:
  
                    RESTRICTED RIGHTS LEGEND
  
 Use, reproduction and disclosure by the US Government is
 subject to restrictions as set forth in subparagraphs (a)
 and (c) of the Commercial Computer Software - Restricted
 Rights clause in FAR 52.227-19.
  
 Gaussian, Inc.
 340 Quinnipiac St., Bldg. 40, Wallingford CT 06492
  
  
 ---------------------------------------------------------------
 Warning -- This program may not be used in any manner that
 competes with the business of Gaussian, Inc. or will provide
 assistance to any competitor of Gaussian, Inc.  The licensee
 of this program is prohibited from giving any competitor of
 Gaussian, Inc. access to this program.  By using this program,
 the user acknowledges that Gaussian, Inc. is engaged in the
 business of creating and licensing software in the field of
 computational chemistry and represents and warrants to the
 licensee that it is not a competitor of Gaussian, Inc. and that
 it will not use this program in any manner prohibited above.
 ---------------------------------------------------------------
  

 Cite this work as:
 Gaussian 09, Revision D.01,
 M. J. Frisch, G. W. Trucks, H. B. Schlegel, G. E. Scuseria, 
 M. A. Robb, J. R. Cheeseman, G. Scalmani, V. Barone, B. Mennucci, 
 G. A. Petersson, H. Nakatsuji, M. Caricato, X. Li, H. P. Hratchian, 
 A. F. Izmaylov, J. Bloino, G. Zheng, J. L. Sonnenberg, M. Hada, 
 M. Ehara, K. Toyota, R. Fukuda, J. Hasegawa, M. Ishida, T. Nakajima, 
 Y. Honda, O. Kitao, H. Nakai, T. Vreven, J. A. Montgomery, Jr., 
 J. E. Peralta, F. Ogliaro, M. Bearpark, J. J. Heyd, E. Brothers, 
 K. N. Kudin, V. N. Staroverov, T. Keith, R. Kobayashi, J. Normand, 
 K. Raghavachari, A. Rendell, J. C. Burant, S. S. Iyengar, J. Tomasi, 
 M. Cossi, N. Rega, J. M. Millam, M. Klene, J. E. Knox, J. B. Cross, 
 V. Bakken, C. Adamo, J. Jaramillo, R. Gomperts, R. E. Stratmann, 
 O. Yazyev, A. J. Austin, R. Cammi, C. Pomelli, J. W. Ochterski, 
 R. L. Martin, K. Morokuma, V. G. Zakrzewski, G. A. Voth, 
 P. Salvador, J. J. Dannenberg, S. Dapprich, A. D. Daniels, 
 O. Farkas, J. B. Foresman, J. V. Ortiz, J. Cioslowski, 
 and D. J. Fox, Gaussian, Inc., Wallingford CT, 2013.
 
 ******************************************
 Gaussian 09:  AM64L-G09RevD.01 24-Apr-2013
                27-Jul-2019 
 ******************************************
 %Mem=32000MB
 %NProcShared=16
 Will use up to   16 processors via shared memory.
 %Chk=m1_00_120835-91-8-C32H16_wB97XD
 ----------------------------------------------------------------------
 #P wB97XD/def2tzvp opt=(tight) freq integral(Grid=ultrafine) # SCF(Max
 Cycle=380) 5d 7f GFPrint
 ----------------------------------------------------------------------
 1/7=10,14=-1,18=20,19=15,26=4,38=1/1,3;
 2/9=110,12=2,17=6,18=5,40=1/2;
 3/5=44,7=101,8=11,11=2,16=1,24=100,25=1,30=1,71=1,74=-58,75=-5/1,2,3;
 4//1;
 5/5=2,7=380,38=5/2;
 6/7=2,8=2,9=2,10=2,28=1/1;
 7//1,2,3,16;
 1/7=10,14=-1,18=20,19=15,26=4/3(2);
 2/9=110/2;
 99//99;
 2/9=110/2;
 3/5=44,7=101,8=11,11=2,16=1,25=1,30=1,71=1,74=-58,75=-5/1,2,3;
 4/5=5,16=3,69=1/1;
 5/5=2,7=380,38=5/2;
 7//1,2,3,16;
 1/7=10,14=-1,18=20,19=15,26=4/3(-5);
 2/9=110/2;
 6/7=2,8=2,9=2,10=2,19=2,28=1/1;
 99/9=1/99;
 Leave Link    1 at Sat Jul 27 10:58:49 2019, MaxMem=  4194304000 cpu:         0.9
 (Enter /home/minenky/programs//g09/l101.exe)
 ---------------------------------------
 The PBEPBE optimization and frequencies
 ---------------------------------------
 Symbolic Z-matrix:
 Charge =  0 Multiplicity = 1
 C                     3.14357   2.79061   0. 
 C                     2.33426   3.91957   0. 
 C                     0.95437   3.78697   0. 
 C                     2.58137   1.51208   0. 
 C                    -0.57512  -2.49823   0. 
 C                    -1.40013  -1.37799   0. 
 C                    -3.07283   0.95111   0. 
 C                    -1.92167   3.50071   0. 
 C                    -3.3009    3.36129   0. 
 C                    -3.87336   2.09616   0. 
 C                    -1.66723   1.08709   0. 
 C                    -0.82487  -0.08385   0. 
 C                     0.57352   0.05961   0. 
 C                     1.17527   1.37113   0. 
 C                     0.35805   2.52024   0. 
 C                    -1.09006   2.37494   0. 
 C                    -2.85039  -1.51881   0. 
 C                    -3.66963  -0.37765   0. 
 C                    -5.06623  -0.53677   0. 
 C                    -5.63753  -1.79475   0. 
 C                    -4.82289  -2.92969   0. 
 C                    -3.44824  -2.791     0. 
 C                     3.42969   0.32774   0. 
 C                     5.03623  -1.97639   0. 
 C                     5.61489  -0.7196    0. 
 C                     4.81933   0.42546   0. 
 C                     3.63906  -2.10791   0. 
 C                     2.82952  -0.95288   0. 
 C                     1.39976  -1.08667   0. 
 C                     0.81877  -2.37024   0. 
 C                     1.66944  -3.53104   0. 
 C                     3.01667  -3.40544   0. 
 H                     4.24001   2.89024   0. 
 H                     2.78814   4.91602   0. 
 H                     0.31066   4.67989   0. 
 H                    -1.02937  -3.50226   0. 
 H                    -1.46492   4.50224   0. 
 H                    -3.94072   4.24986   0. 
 H                    -4.96842   1.98457   0. 
 H                    -5.70205   0.36184   0. 
 H                    -6.72681  -1.90453   0. 
 H                    -5.27543  -3.92658   0. 
 H                    -2.80074  -3.6812    0. 
 H                     5.66365  -2.87486   0. 
 H                     6.70528  -0.61854   0. 
 H                     5.28405   1.42347   0. 
 H                     1.1942   -4.51872   0. 
 H                     3.66616  -4.2884    0. 
 
 NAtoms=     48 NQM=       48 NQMF=       0 NMMI=      0 NMMIF=      0
                NMic=       0 NMicF=      0.
                    Isotopes and Nuclear Properties:
 (Nuclear quadrupole moments (NQMom) in fm**2, nuclear magnetic moments (NMagM)
  in nuclear magnetons)

  Atom         1           2           3           4           5           6           7           8           9          10
 IAtWgt=          12          12          12          12          12          12          12          12          12          12
 AtmWgt=  12.0000000  12.0000000  12.0000000  12.0000000  12.0000000  12.0000000  12.0000000  12.0000000  12.0000000  12.0000000
 NucSpn=           0           0           0           0           0           0           0           0           0           0
 AtZEff=   0.0000000   0.0000000   0.0000000   0.0000000   0.0000000   0.0000000   0.0000000   0.0000000   0.0000000   0.0000000
 NQMom=    0.0000000   0.0000000   0.0000000   0.0000000   0.0000000   0.0000000   0.0000000   0.0000000   0.0000000   0.0000000
 NMagM=    0.0000000   0.0000000   0.0000000   0.0000000   0.0000000   0.0000000   0.0000000   0.0000000   0.0000000   0.0000000
 AtZNuc=   6.0000000   6.0000000   6.0000000   6.0000000   6.0000000   6.0000000   6.0000000   6.0000000   6.0000000   6.0000000

  Atom        11          12          13          14          15          16          17          18          19          20
 IAtWgt=          12          12          12          12          12          12          12          12          12          12
 AtmWgt=  12.0000000  12.0000000  12.0000000  12.0000000  12.0000000  12.0000000  12.0000000  12.0000000  12.0000000  12.0000000
 NucSpn=           0           0           0           0           0           0           0           0           0           0
 AtZEff=   0.0000000   0.0000000   0.0000000   0.0000000   0.0000000   0.0000000   0.0000000   0.0000000   0.0000000   0.0000000
 NQMom=    0.0000000   0.0000000   0.0000000   0.0000000   0.0000000   0.0000000   0.0000000   0.0000000   0.0000000   0.0000000
 NMagM=    0.0000000   0.0000000   0.0000000   0.0000000   0.0000000   0.0000000   0.0000000   0.0000000   0.0000000   0.0000000
 AtZNuc=   6.0000000   6.0000000   6.0000000   6.0000000   6.0000000   6.0000000   6.0000000   6.0000000   6.0000000   6.0000000

  Atom        21          22          23          24          25          26          27          28          29          30
 IAtWgt=          12          12          12          12          12          12          12          12          12          12
 AtmWgt=  12.0000000  12.0000000  12.0000000  12.0000000  12.0000000  12.0000000  12.0000000  12.0000000  12.0000000  12.0000000
 NucSpn=           0           0           0           0           0           0           0           0           0           0
 AtZEff=   0.0000000   0.0000000   0.0000000   0.0000000   0.0000000   0.0000000   0.0000000   0.0000000   0.0000000   0.0000000
 NQMom=    0.0000000   0.0000000   0.0000000   0.0000000   0.0000000   0.0000000   0.0000000   0.0000000   0.0000000   0.0000000
 NMagM=    0.0000000   0.0000000   0.0000000   0.0000000   0.0000000   0.0000000   0.0000000   0.0000000   0.0000000   0.0000000
 AtZNuc=   6.0000000   6.0000000   6.0000000   6.0000000   6.0000000   6.0000000   6.0000000   6.0000000   6.0000000   6.0000000

  Atom        31          32          33          34          35          36          37          38          39          40
 IAtWgt=          12          12           1           1           1           1           1           1           1           1
 AtmWgt=  12.0000000  12.0000000   1.0078250   1.0078250   1.0078250   1.0078250   1.0078250   1.0078250   1.0078250   1.0078250
 NucSpn=           0           0           1           1           1           1           1           1           1           1
 AtZEff=   0.0000000   0.0000000   0.0000000   0.0000000   0.0000000   0.0000000   0.0000000   0.0000000   0.0000000   0.0000000
 NQMom=    0.0000000   0.0000000   0.0000000   0.0000000   0.0000000   0.0000000   0.0000000   0.0000000   0.0000000   0.0000000
 NMagM=    0.0000000   0.0000000   2.7928460   2.7928460   2.7928460   2.7928460   2.7928460   2.7928460   2.7928460   2.7928460
 AtZNuc=   6.0000000   6.0000000   1.0000000   1.0000000   1.0000000   1.0000000   1.0000000   1.0000000   1.0000000   1.0000000

  Atom        41          42          43          44          45          46          47          48
 IAtWgt=           1           1           1           1           1           1           1           1
 AtmWgt=   1.0078250   1.0078250   1.0078250   1.0078250   1.0078250   1.0078250   1.0078250   1.0078250
 NucSpn=           1           1           1           1           1           1           1           1
 AtZEff=   0.0000000   0.0000000   0.0000000   0.0000000   0.0000000   0.0000000   0.0000000   0.0000000
 NQMom=    0.0000000   0.0000000   0.0000000   0.0000000   0.0000000   0.0000000   0.0000000   0.0000000
 NMagM=    2.7928460   2.7928460   2.7928460   2.7928460   2.7928460   2.7928460   2.7928460   2.7928460
 AtZNuc=   1.0000000   1.0000000   1.0000000   1.0000000   1.0000000   1.0000000   1.0000000   1.0000000
 Leave Link  101 at Sat Jul 27 10:58:49 2019, MaxMem=  4194304000 cpu:         9.6
 (Enter /home/minenky/programs//g09/l103.exe)

 GradGradGradGradGradGradGradGradGradGradGradGradGradGradGradGradGradGrad
 Berny optimization.
 Initialization pass.
                           ----------------------------
                           !    Initial Parameters    !
                           ! (Angstroms and Degrees)  !
 --------------------------                            --------------------------
 ! Name  Definition              Value          Derivative Info.                !
 --------------------------------------------------------------------------------
 ! R1    R(1,2)                  1.3891         estimate D2E/DX2                !
 ! R2    R(1,4)                  1.3967         estimate D2E/DX2                !
 ! R3    R(1,33)                 1.101          estimate D2E/DX2                !
 ! R4    R(2,3)                  1.3863         estimate D2E/DX2                !
 ! R5    R(2,34)                 1.0949         estimate D2E/DX2                !
 ! R6    R(3,15)                 1.4001         estimate D2E/DX2                !
 ! R7    R(3,35)                 1.1008         estimate D2E/DX2                !
 ! R8    R(4,14)                 1.4131         estimate D2E/DX2                !
 ! R9    R(4,23)                 1.4568         estimate D2E/DX2                !
 ! R10   R(5,6)                  1.3913         estimate D2E/DX2                !
 ! R11   R(5,30)                 1.3998         estimate D2E/DX2                !
 ! R12   R(5,36)                 1.102          estimate D2E/DX2                !
 ! R13   R(6,12)                 1.4162         estimate D2E/DX2                !
 ! R14   R(6,17)                 1.4571         estimate D2E/DX2                !
 ! R15   R(7,10)                 1.3971         estimate D2E/DX2                !
 ! R16   R(7,11)                 1.4122         estimate D2E/DX2                !
 ! R17   R(7,18)                 1.4566         estimate D2E/DX2                !
 ! R18   R(8,9)                  1.3863         estimate D2E/DX2                !
 ! R19   R(8,16)                 1.3996         estimate D2E/DX2                !
 ! R20   R(8,37)                 1.1008         estimate D2E/DX2                !
 ! R21   R(9,10)                 1.3886         estimate D2E/DX2                !
 ! R22   R(9,38)                 1.095          estimate D2E/DX2                !
 ! R23   R(10,39)                1.1007         estimate D2E/DX2                !
 ! R24   R(11,12)                1.4424         estimate D2E/DX2                !
 ! R25   R(11,16)                1.4113         estimate D2E/DX2                !
 ! R26   R(12,13)                1.4057         estimate D2E/DX2                !
 ! R27   R(13,14)                1.443          estimate D2E/DX2                !
 ! R28   R(13,29)                1.413          estimate D2E/DX2                !
 ! R29   R(14,15)                1.4101         estimate D2E/DX2                !
 ! R30   R(15,16)                1.4554         estimate D2E/DX2                !
 ! R31   R(17,18)                1.4048         estimate D2E/DX2                !
 ! R32   R(17,22)                1.4057         estimate D2E/DX2                !
 ! R33   R(18,19)                1.4056         estimate D2E/DX2                !
 ! R34   R(19,20)                1.3816         estimate D2E/DX2                !
 ! R35   R(19,40)                1.1008         estimate D2E/DX2                !
 ! R36   R(20,21)                1.397          estimate D2E/DX2                !
 ! R37   R(20,41)                1.0948         estimate D2E/DX2                !
 ! R38   R(21,22)                1.3816         estimate D2E/DX2                !
 ! R39   R(21,42)                1.0948         estimate D2E/DX2                !
 ! R40   R(22,43)                1.1008         estimate D2E/DX2                !
 ! R41   R(23,26)                1.3931         estimate D2E/DX2                !
 ! R42   R(23,28)                1.4143         estimate D2E/DX2                !
 ! R43   R(24,25)                1.3836         estimate D2E/DX2                !
 ! R44   R(24,27)                1.4034         estimate D2E/DX2                !
 ! R45   R(24,44)                1.0959         estimate D2E/DX2                !
 ! R46   R(25,26)                1.3943         estimate D2E/DX2                !
 ! R47   R(25,45)                1.0951         estimate D2E/DX2                !
 ! R48   R(26,46)                1.1009         estimate D2E/DX2                !
 ! R49   R(27,28)                1.4105         estimate D2E/DX2                !
 ! R50   R(27,32)                1.4391         estimate D2E/DX2                !
 ! R51   R(28,29)                1.436          estimate D2E/DX2                !
 ! R52   R(29,30)                1.4089         estimate D2E/DX2                !
 ! R53   R(30,31)                1.4391         estimate D2E/DX2                !
 ! R54   R(31,32)                1.3531         estimate D2E/DX2                !
 ! R55   R(31,47)                1.0961         estimate D2E/DX2                !
 ! R56   R(32,48)                1.0961         estimate D2E/DX2                !
 ! A1    A(2,1,4)              120.6285         estimate D2E/DX2                !
 ! A2    A(2,1,33)             120.4432         estimate D2E/DX2                !
 ! A3    A(4,1,33)             118.9283         estimate D2E/DX2                !
 ! A4    A(1,2,3)              120.1463         estimate D2E/DX2                !
 ! A5    A(1,2,34)             119.8759         estimate D2E/DX2                !
 ! A6    A(3,2,34)             119.9778         estimate D2E/DX2                !
 ! A7    A(2,3,15)             120.6977         estimate D2E/DX2                !
 ! A8    A(2,3,35)             120.2988         estimate D2E/DX2                !
 ! A9    A(15,3,35)            119.0035         estimate D2E/DX2                !
 ! A10   A(1,4,14)             119.4606         estimate D2E/DX2                !
 ! A11   A(1,4,23)             120.6505         estimate D2E/DX2                !
 ! A12   A(14,4,23)            119.8889         estimate D2E/DX2                !
 ! A13   A(6,5,30)             121.1238         estimate D2E/DX2                !
 ! A14   A(6,5,36)             119.2865         estimate D2E/DX2                !
 ! A15   A(30,5,36)            119.5897         estimate D2E/DX2                !
 ! A16   A(5,6,12)             119.664          estimate D2E/DX2                !
 ! A17   A(5,6,17)             120.8242         estimate D2E/DX2                !
 ! A18   A(12,6,17)            119.5117         estimate D2E/DX2                !
 ! A19   A(10,7,11)            119.4332         estimate D2E/DX2                !
 ! A20   A(10,7,18)            120.8543         estimate D2E/DX2                !
 ! A21   A(11,7,18)            119.7126         estimate D2E/DX2                !
 ! A22   A(9,8,16)             120.6815         estimate D2E/DX2                !
 ! A23   A(9,8,37)             120.2877         estimate D2E/DX2                !
 ! A24   A(16,8,37)            119.0308         estimate D2E/DX2                !
 ! A25   A(8,9,10)             120.1181         estimate D2E/DX2                !
 ! A26   A(8,9,38)             119.984          estimate D2E/DX2                !
 ! A27   A(10,9,38)            119.8978         estimate D2E/DX2                !
 ! A28   A(7,10,9)             120.6953         estimate D2E/DX2                !
 ! A29   A(7,10,39)            119.1405         estimate D2E/DX2                !
 ! A30   A(9,10,39)            120.1642         estimate D2E/DX2                !
 ! A31   A(7,11,12)            120.2054         estimate D2E/DX2                !
 ! A32   A(7,11,16)            119.6658         estimate D2E/DX2                !
 ! A33   A(12,11,16)           120.1288         estimate D2E/DX2                !
 ! A34   A(6,12,11)            120.3034         estimate D2E/DX2                !
 ! A35   A(6,12,13)            119.823          estimate D2E/DX2                !
 ! A36   A(11,12,13)           119.8736         estimate D2E/DX2                !
 ! A37   A(12,13,14)           120.5038         estimate D2E/DX2                !
 ! A38   A(12,13,29)           119.9267         estimate D2E/DX2                !
 ! A39   A(14,13,29)           119.5695         estimate D2E/DX2                !
 ! A40   A(4,14,13)            120.3709         estimate D2E/DX2                !
 ! A41   A(4,14,15)            119.6948         estimate D2E/DX2                !
 ! A42   A(13,14,15)           119.9343         estimate D2E/DX2                !
 ! A43   A(3,15,14)            119.3721         estimate D2E/DX2                !
 ! A44   A(3,15,16)            120.9388         estimate D2E/DX2                !
 ! A45   A(14,15,16)           119.6891         estimate D2E/DX2                !
 ! A46   A(8,16,11)            119.4061         estimate D2E/DX2                !
 ! A47   A(8,16,15)            120.7235         estimate D2E/DX2                !
 ! A48   A(11,16,15)           119.8704         estimate D2E/DX2                !
 ! A49   A(6,17,18)            120.1288         estimate D2E/DX2                !
 ! A50   A(6,17,22)            120.7165         estimate D2E/DX2                !
 ! A51   A(18,17,22)           119.1547         estimate D2E/DX2                !
 ! A52   A(7,18,17)            120.1381         estimate D2E/DX2                !
 ! A53   A(7,18,19)            120.6874         estimate D2E/DX2                !
 ! A54   A(17,18,19)           119.1745         estimate D2E/DX2                !
 ! A55   A(18,19,20)           120.9253         estimate D2E/DX2                !
 ! A56   A(18,19,40)           118.7816         estimate D2E/DX2                !
 ! A57   A(20,19,40)           120.2931         estimate D2E/DX2                !
 ! A58   A(19,20,21)           119.9047         estimate D2E/DX2                !
 ! A59   A(19,20,41)           120.1798         estimate D2E/DX2                !
 ! A60   A(21,20,41)           119.9155         estimate D2E/DX2                !
 ! A61   A(20,21,22)           119.9091         estimate D2E/DX2                !
 ! A62   A(20,21,42)           119.9138         estimate D2E/DX2                !
 ! A63   A(22,21,42)           120.1771         estimate D2E/DX2                !
 ! A64   A(17,22,21)           120.9317         estimate D2E/DX2                !
 ! A65   A(17,22,43)           118.7988         estimate D2E/DX2                !
 ! A66   A(21,22,43)           120.2695         estimate D2E/DX2                !
 ! A67   A(4,23,26)            121.591          estimate D2E/DX2                !
 ! A68   A(4,23,28)            119.2765         estimate D2E/DX2                !
 ! A69   A(26,23,28)           119.1325         estimate D2E/DX2                !
 ! A70   A(25,24,27)           120.0998         estimate D2E/DX2                !
 ! A71   A(25,24,44)           120.3503         estimate D2E/DX2                !
 ! A72   A(27,24,44)           119.5499         estimate D2E/DX2                !
 ! A73   A(24,25,26)           120.4869         estimate D2E/DX2                !
 ! A74   A(24,25,45)           120.0173         estimate D2E/DX2                !
 ! A75   A(26,25,45)           119.4958         estimate D2E/DX2                !
 ! A76   A(23,26,25)           120.7685         estimate D2E/DX2                !
 ! A77   A(23,26,46)           118.9914         estimate D2E/DX2                !
 ! A78   A(25,26,46)           120.2401         estimate D2E/DX2                !
 ! A79   A(24,27,28)           119.6485         estimate D2E/DX2                !
 ! A80   A(24,27,32)           121.0031         estimate D2E/DX2                !
 ! A81   A(28,27,32)           119.3484         estimate D2E/DX2                !
 ! A82   A(23,28,27)           119.8639         estimate D2E/DX2                !
 ! A83   A(23,28,29)           120.4563         estimate D2E/DX2                !
 ! A84   A(27,28,29)           119.6798         estimate D2E/DX2                !
 ! A85   A(13,29,28)           120.4379         estimate D2E/DX2                !
 ! A86   A(13,29,30)           119.8629         estimate D2E/DX2                !
 ! A87   A(28,29,30)           119.6992         estimate D2E/DX2                !
 ! A88   A(5,30,29)            119.5995         estimate D2E/DX2                !
 ! A89   A(5,30,31)            120.9886         estimate D2E/DX2                !
 ! A90   A(29,30,31)           119.4119         estimate D2E/DX2                !
 ! A91   A(30,31,32)           120.9088         estimate D2E/DX2                !
 ! A92   A(30,31,47)           118.0694         estimate D2E/DX2                !
 ! A93   A(32,31,47)           121.0218         estimate D2E/DX2                !
 ! A94   A(27,32,31)           120.9519         estimate D2E/DX2                !
 ! A95   A(27,32,48)           118.0364         estimate D2E/DX2                !
 ! A96   A(31,32,48)           121.0118         estimate D2E/DX2                !
 ! D1    D(4,1,2,3)              0.0            estimate D2E/DX2                !
 ! D2    D(4,1,2,34)           180.0            estimate D2E/DX2                !
 ! D3    D(33,1,2,3)           180.0            estimate D2E/DX2                !
 ! D4    D(33,1,2,34)            0.0            estimate D2E/DX2                !
 ! D5    D(2,1,4,14)             0.0            estimate D2E/DX2                !
 ! D6    D(2,1,4,23)           180.0            estimate D2E/DX2                !
 ! D7    D(33,1,4,14)          180.0            estimate D2E/DX2                !
 ! D8    D(33,1,4,23)            0.0            estimate D2E/DX2                !
 ! D9    D(1,2,3,15)             0.0            estimate D2E/DX2                !
 ! D10   D(1,2,3,35)           180.0            estimate D2E/DX2                !
 ! D11   D(34,2,3,15)          180.0            estimate D2E/DX2                !
 ! D12   D(34,2,3,35)            0.0            estimate D2E/DX2                !
 ! D13   D(2,3,15,14)            0.0            estimate D2E/DX2                !
 ! D14   D(2,3,15,16)          180.0            estimate D2E/DX2                !
 ! D15   D(35,3,15,14)         180.0            estimate D2E/DX2                !
 ! D16   D(35,3,15,16)           0.0            estimate D2E/DX2                !
 ! D17   D(1,4,14,13)          180.0            estimate D2E/DX2                !
 ! D18   D(1,4,14,15)            0.0            estimate D2E/DX2                !
 ! D19   D(23,4,14,13)           0.0            estimate D2E/DX2                !
 ! D20   D(23,4,14,15)         180.0            estimate D2E/DX2                !
 ! D21   D(1,4,23,26)            0.0            estimate D2E/DX2                !
 ! D22   D(1,4,23,28)          180.0            estimate D2E/DX2                !
 ! D23   D(14,4,23,26)         180.0            estimate D2E/DX2                !
 ! D24   D(14,4,23,28)           0.0            estimate D2E/DX2                !
 ! D25   D(30,5,6,12)            0.0            estimate D2E/DX2                !
 ! D26   D(30,5,6,17)          180.0            estimate D2E/DX2                !
 ! D27   D(36,5,6,12)          180.0            estimate D2E/DX2                !
 ! D28   D(36,5,6,17)            0.0            estimate D2E/DX2                !
 ! D29   D(6,5,30,29)            0.0            estimate D2E/DX2                !
 ! D30   D(6,5,30,31)          180.0            estimate D2E/DX2                !
 ! D31   D(36,5,30,29)         180.0            estimate D2E/DX2                !
 ! D32   D(36,5,30,31)           0.0            estimate D2E/DX2                !
 ! D33   D(5,6,12,11)          180.0            estimate D2E/DX2                !
 ! D34   D(5,6,12,13)            0.0            estimate D2E/DX2                !
 ! D35   D(17,6,12,11)           0.0            estimate D2E/DX2                !
 ! D36   D(17,6,12,13)         180.0            estimate D2E/DX2                !
 ! D37   D(5,6,17,18)          180.0            estimate D2E/DX2                !
 ! D38   D(5,6,17,22)            0.0            estimate D2E/DX2                !
 ! D39   D(12,6,17,18)           0.0            estimate D2E/DX2                !
 ! D40   D(12,6,17,22)         180.0            estimate D2E/DX2                !
 ! D41   D(11,7,10,9)            0.0            estimate D2E/DX2                !
 ! D42   D(11,7,10,39)         180.0            estimate D2E/DX2                !
 ! D43   D(18,7,10,9)          180.0            estimate D2E/DX2                !
 ! D44   D(18,7,10,39)           0.0            estimate D2E/DX2                !
 ! D45   D(10,7,11,12)         180.0            estimate D2E/DX2                !
 ! D46   D(10,7,11,16)           0.0            estimate D2E/DX2                !
 ! D47   D(18,7,11,12)           0.0            estimate D2E/DX2                !
 ! D48   D(18,7,11,16)         180.0            estimate D2E/DX2                !
 ! D49   D(10,7,18,17)         180.0            estimate D2E/DX2                !
 ! D50   D(10,7,18,19)           0.0            estimate D2E/DX2                !
 ! D51   D(11,7,18,17)           0.0            estimate D2E/DX2                !
 ! D52   D(11,7,18,19)         180.0            estimate D2E/DX2                !
 ! D53   D(16,8,9,10)            0.0            estimate D2E/DX2                !
 ! D54   D(16,8,9,38)          180.0            estimate D2E/DX2                !
 ! D55   D(37,8,9,10)          180.0            estimate D2E/DX2                !
 ! D56   D(37,8,9,38)            0.0            estimate D2E/DX2                !
 ! D57   D(9,8,16,11)            0.0            estimate D2E/DX2                !
 ! D58   D(9,8,16,15)          180.0            estimate D2E/DX2                !
 ! D59   D(37,8,16,11)         180.0            estimate D2E/DX2                !
 ! D60   D(37,8,16,15)           0.0            estimate D2E/DX2                !
 ! D61   D(8,9,10,7)             0.0            estimate D2E/DX2                !
 ! D62   D(8,9,10,39)          180.0            estimate D2E/DX2                !
 ! D63   D(38,9,10,7)          180.0            estimate D2E/DX2                !
 ! D64   D(38,9,10,39)           0.0            estimate D2E/DX2                !
 ! D65   D(7,11,12,6)            0.0            estimate D2E/DX2                !
 ! D66   D(7,11,12,13)         180.0            estimate D2E/DX2                !
 ! D67   D(16,11,12,6)         180.0            estimate D2E/DX2                !
 ! D68   D(16,11,12,13)          0.0            estimate D2E/DX2                !
 ! D69   D(7,11,16,8)            0.0            estimate D2E/DX2                !
 ! D70   D(7,11,16,15)         180.0            estimate D2E/DX2                !
 ! D71   D(12,11,16,8)         180.0            estimate D2E/DX2                !
 ! D72   D(12,11,16,15)          0.0            estimate D2E/DX2                !
 ! D73   D(6,12,13,14)         180.0            estimate D2E/DX2                !
 ! D74   D(6,12,13,29)           0.0            estimate D2E/DX2                !
 ! D75   D(11,12,13,14)          0.0            estimate D2E/DX2                !
 ! D76   D(11,12,13,29)        180.0            estimate D2E/DX2                !
 ! D77   D(12,13,14,4)         180.0            estimate D2E/DX2                !
 ! D78   D(12,13,14,15)          0.0            estimate D2E/DX2                !
 ! D79   D(29,13,14,4)           0.0            estimate D2E/DX2                !
 ! D80   D(29,13,14,15)        180.0            estimate D2E/DX2                !
 ! D81   D(12,13,29,28)        180.0            estimate D2E/DX2                !
 ! D82   D(12,13,29,30)          0.0            estimate D2E/DX2                !
 ! D83   D(14,13,29,28)          0.0            estimate D2E/DX2                !
 ! D84   D(14,13,29,30)        180.0            estimate D2E/DX2                !
 ! D85   D(4,14,15,3)            0.0            estimate D2E/DX2                !
 ! D86   D(4,14,15,16)         180.0            estimate D2E/DX2                !
 ! D87   D(13,14,15,3)         180.0            estimate D2E/DX2                !
 ! D88   D(13,14,15,16)          0.0            estimate D2E/DX2                !
 ! D89   D(3,15,16,8)            0.0            estimate D2E/DX2                !
 ! D90   D(3,15,16,11)         180.0            estimate D2E/DX2                !
 ! D91   D(14,15,16,8)         180.0            estimate D2E/DX2                !
 ! D92   D(14,15,16,11)          0.0            estimate D2E/DX2                !
 ! D93   D(6,17,18,7)            0.0            estimate D2E/DX2                !
 ! D94   D(6,17,18,19)         180.0            estimate D2E/DX2                !
 ! D95   D(22,17,18,7)         180.0            estimate D2E/DX2                !
 ! D96   D(22,17,18,19)          0.0            estimate D2E/DX2                !
 ! D97   D(6,17,22,21)         180.0            estimate D2E/DX2                !
 ! D98   D(6,17,22,43)           0.0            estimate D2E/DX2                !
 ! D99   D(18,17,22,21)          0.0            estimate D2E/DX2                !
 ! D100  D(18,17,22,43)        180.0            estimate D2E/DX2                !
 ! D101  D(7,18,19,20)         180.0            estimate D2E/DX2                !
 ! D102  D(7,18,19,40)           0.0            estimate D2E/DX2                !
 ! D103  D(17,18,19,20)          0.0            estimate D2E/DX2                !
 ! D104  D(17,18,19,40)        180.0            estimate D2E/DX2                !
 ! D105  D(18,19,20,21)          0.0            estimate D2E/DX2                !
 ! D106  D(18,19,20,41)        180.0            estimate D2E/DX2                !
 ! D107  D(40,19,20,21)        180.0            estimate D2E/DX2                !
 ! D108  D(40,19,20,41)          0.0            estimate D2E/DX2                !
 ! D109  D(19,20,21,22)          0.0            estimate D2E/DX2                !
 ! D110  D(19,20,21,42)        180.0            estimate D2E/DX2                !
 ! D111  D(41,20,21,22)        180.0            estimate D2E/DX2                !
 ! D112  D(41,20,21,42)          0.0            estimate D2E/DX2                !
 ! D113  D(20,21,22,17)          0.0            estimate D2E/DX2                !
 ! D114  D(20,21,22,43)        180.0            estimate D2E/DX2                !
 ! D115  D(42,21,22,17)        180.0            estimate D2E/DX2                !
 ! D116  D(42,21,22,43)          0.0            estimate D2E/DX2                !
 ! D117  D(4,23,26,25)         180.0            estimate D2E/DX2                !
 ! D118  D(4,23,26,46)           0.0            estimate D2E/DX2                !
 ! D119  D(28,23,26,25)          0.0            estimate D2E/DX2                !
 ! D120  D(28,23,26,46)        180.0            estimate D2E/DX2                !
 ! D121  D(4,23,28,27)         180.0            estimate D2E/DX2                !
 ! D122  D(4,23,28,29)           0.0            estimate D2E/DX2                !
 ! D123  D(26,23,28,27)          0.0            estimate D2E/DX2                !
 ! D124  D(26,23,28,29)        180.0            estimate D2E/DX2                !
 ! D125  D(27,24,25,26)          0.0            estimate D2E/DX2                !
 ! D126  D(27,24,25,45)        180.0            estimate D2E/DX2                !
 ! D127  D(44,24,25,26)        180.0            estimate D2E/DX2                !
 ! D128  D(44,24,25,45)          0.0            estimate D2E/DX2                !
 ! D129  D(25,24,27,28)          0.0            estimate D2E/DX2                !
 ! D130  D(25,24,27,32)        180.0            estimate D2E/DX2                !
 ! D131  D(44,24,27,28)        180.0            estimate D2E/DX2                !
 ! D132  D(44,24,27,32)          0.0            estimate D2E/DX2                !
 ! D133  D(24,25,26,23)          0.0            estimate D2E/DX2                !
 ! D134  D(24,25,26,46)        180.0            estimate D2E/DX2                !
 ! D135  D(45,25,26,23)        180.0            estimate D2E/DX2                !
 ! D136  D(45,25,26,46)          0.0            estimate D2E/DX2                !
 ! D137  D(24,27,28,23)          0.0            estimate D2E/DX2                !
 ! D138  D(24,27,28,29)        180.0            estimate D2E/DX2                !
 ! D139  D(32,27,28,23)        180.0            estimate D2E/DX2                !
 ! D140  D(32,27,28,29)          0.0            estimate D2E/DX2                !
 ! D141  D(24,27,32,31)        180.0            estimate D2E/DX2                !
 ! D142  D(24,27,32,48)          0.0            estimate D2E/DX2                !
 ! D143  D(28,27,32,31)          0.0            estimate D2E/DX2                !
 ! D144  D(28,27,32,48)        180.0            estimate D2E/DX2                !
 ! D145  D(23,28,29,13)          0.0            estimate D2E/DX2                !
 ! D146  D(23,28,29,30)        180.0            estimate D2E/DX2                !
 ! D147  D(27,28,29,13)        180.0            estimate D2E/DX2                !
 ! D148  D(27,28,29,30)          0.0            estimate D2E/DX2                !
 ! D149  D(13,29,30,5)           0.0            estimate D2E/DX2                !
 ! D150  D(13,29,30,31)        180.0            estimate D2E/DX2                !
 ! D151  D(28,29,30,5)         180.0            estimate D2E/DX2                !
 ! D152  D(28,29,30,31)          0.0            estimate D2E/DX2                !
 ! D153  D(5,30,31,32)         180.0            estimate D2E/DX2                !
 ! D154  D(5,30,31,47)           0.0            estimate D2E/DX2                !
 ! D155  D(29,30,31,32)          0.0            estimate D2E/DX2                !
 ! D156  D(29,30,31,47)        180.0            estimate D2E/DX2                !
 ! D157  D(30,31,32,27)          0.0            estimate D2E/DX2                !
 ! D158  D(30,31,32,48)        180.0            estimate D2E/DX2                !
 ! D159  D(47,31,32,27)        180.0            estimate D2E/DX2                !
 ! D160  D(47,31,32,48)          0.0            estimate D2E/DX2                !
 --------------------------------------------------------------------------------
 Trust Radius=3.00D-01 FncErr=1.00D-07 GrdErr=1.00D-06
 Number of steps in this run=    288 maximum allowed number of steps=    288.
 GradGradGradGradGradGradGradGradGradGradGradGradGradGradGradGradGradGrad

 Leave Link  103 at Sat Jul 27 10:58:49 2019, MaxMem=  4194304000 cpu:         0.2
 (Enter /home/minenky/programs//g09/l202.exe)
                          Input orientation:                          
 ---------------------------------------------------------------------
 Center     Atomic      Atomic             Coordinates (Angstroms)
 Number     Number       Type             X           Y           Z
 ---------------------------------------------------------------------
      1          6           0        3.143573    2.790608    0.000000
      2          6           0        2.334263    3.919570    0.000000
      3          6           0        0.954365    3.786969    0.000000
      4          6           0        2.581372    1.512077    0.000000
      5          6           0       -0.575117   -2.498231    0.000000
      6          6           0       -1.400132   -1.377989    0.000000
      7          6           0       -3.072825    0.951113    0.000000
      8          6           0       -1.921673    3.500709    0.000000
      9          6           0       -3.300903    3.361291    0.000000
     10          6           0       -3.873359    2.096156    0.000000
     11          6           0       -1.667228    1.087086    0.000000
     12          6           0       -0.824870   -0.083850    0.000000
     13          6           0        0.573520    0.059606    0.000000
     14          6           0        1.175269    1.371126    0.000000
     15          6           0        0.358055    2.520244    0.000000
     16          6           0       -1.090056    2.374936    0.000000
     17          6           0       -2.850390   -1.518807    0.000000
     18          6           0       -3.669635   -0.377645    0.000000
     19          6           0       -5.066225   -0.536772    0.000000
     20          6           0       -5.637532   -1.794750    0.000000
     21          6           0       -4.822888   -2.929691    0.000000
     22          6           0       -3.448239   -2.791001    0.000000
     23          6           0        3.429687    0.327743    0.000000
     24          6           0        5.036233   -1.976393    0.000000
     25          6           0        5.614888   -0.719598    0.000000
     26          6           0        4.819327    0.425459    0.000000
     27          6           0        3.639059   -2.107909    0.000000
     28          6           0        2.829520   -0.952879    0.000000
     29          6           0        1.399756   -1.086674    0.000000
     30          6           0        0.818771   -2.370239    0.000000
     31          6           0        1.669443   -3.531044    0.000000
     32          6           0        3.016669   -3.405444    0.000000
     33          1           0        4.240007    2.890239    0.000000
     34          1           0        2.788137    4.916019    0.000000
     35          1           0        0.310663    4.679885    0.000000
     36          1           0       -1.029367   -3.502257    0.000000
     37          1           0       -1.464919    4.502240    0.000000
     38          1           0       -3.940724    4.249861    0.000000
     39          1           0       -4.968421    1.984575    0.000000
     40          1           0       -5.702051    0.361839    0.000000
     41          1           0       -6.726807   -1.904525    0.000000
     42          1           0       -5.275428   -3.926576    0.000000
     43          1           0       -2.800745   -3.681198    0.000000
     44          1           0        5.663654   -2.874865    0.000000
     45          1           0        6.705284   -0.618541    0.000000
     46          1           0        5.284053    1.423470    0.000000
     47          1           0        1.194201   -4.518718    0.000000
     48          1           0        3.666163   -4.288395    0.000000
 ---------------------------------------------------------------------
                    Distance matrix (angstroms):
                    1          2          3          4          5
     1  C    0.000000
     2  C    1.389077   0.000000
     3  C    2.405278   1.386255   0.000000
     4  C    1.396679   2.420141   2.796834   0.000000
     5  C    6.465329   7.046465   6.468621   5.103528   0.000000
     6  C    6.166235   6.481500   5.676306   4.919843   1.391255
     7  C    6.482850   6.168334   4.925479   5.681956   4.258699
     8  C    5.114778   4.276498   2.890249   4.922608   6.148211
     9  C    6.469694   5.662753   4.276507   6.166097   6.462501
    10  C    7.051213   6.469886   5.115249   6.481103   5.655687
    11  C    5.103508   4.902540   3.763259   4.269803   3.747960
    12  C    4.900107   5.099754   4.260154   3.761578   2.427265
    13  C    3.750140   4.242587   3.746769   2.478133   2.803907
    14  C    2.426756   2.799613   2.425921   1.413149   4.246855
    15  C    2.798608   2.421469   1.400064   2.441217   5.104499
    16  C    4.253985   3.756575   2.484651   3.771459   4.900298
    17  C    7.382320   7.513759   6.528968   6.220152   2.477122
    18  C    7.513829   7.383282   6.222972   6.530401   3.751390
    19  C    8.858456   8.638647   7.412304   7.917293   4.900752
    20  C    9.906226   9.808312   8.637632   8.859204   5.111060
    21  C    9.807462   9.906421   8.859468   8.634371   4.269627
    22  C    8.637496   8.858278   7.915340   7.407610   2.888000
    23  C    2.479429   3.755153   4.253641   1.456807   4.901488
    24  C    5.128983   6.485601   7.062435   4.265650   5.635563
    25  C    4.292895   5.681934   6.483026   3.765979   6.440474
    26  C    2.898634   4.287697   5.122272   2.487807   6.135796
    27  C    4.923513   6.167090   6.477435   3.771340   4.232213
    28  C    3.756638   4.897554   5.097290   2.477415   3.738939
    29  C    4.251378   5.092719   4.893952   2.854772   2.427471
    30  C    5.660305   6.469808   6.158701   4.263700   1.399753
    31  C    6.491252   7.480216   7.352867   5.124909   2.470779
    32  C    6.197352   7.356732   7.482239   4.936750   3.704587
    33  H    1.100952   2.165960   3.405814   2.156479   7.226412
    34  H    2.154926   1.094948   2.153480   3.410216   8.141412
    35  H    3.405106   2.161721   1.100751   3.897579   7.232563
    36  H    7.550734   8.148468   7.554337   6.179076   1.102003
    37  H    4.916083   3.843604   2.522805   5.031256   7.056794
    38  H    7.233027   6.283674   4.916927   7.073415   7.540826
    39  H    8.151941   7.554695   6.190963   7.564564   6.276677
    40  H    9.173002   8.788617   7.485946   8.362902   5.870728
    41  H   10.930173  10.771401   9.559996   9.915411   6.180273
    42  H   10.770336  10.930207   9.915095   9.555535   4.912545
    43  H    8.787445   9.172785   8.359089   7.479124   2.520482
    44  H    6.200677   7.566319   8.158274   5.361504   6.250129
    45  H    4.930323   6.300815   7.244418   4.641787   7.519141
    46  H    2.539827   3.864165   4.932781   2.704133   7.050504
    47  H    7.564807   8.514955   8.309149   6.188274   2.685676
    48  H    7.098267   8.315327   8.518530   5.901039   4.603601
                    6          7          8          9         10
     6  C    0.000000
     7  C    2.867511   0.000000
     8  C    4.906496   2.797426   0.000000
     9  C    5.106243   2.420946   1.386259   0.000000
    10  C    4.264568   1.397132   2.404548   1.388623   0.000000
    11  C    2.479503   1.412159   2.426998   2.800162   2.425951
    12  C    1.416236   2.474762   3.748604   4.242609   3.747761
    13  C    2.441716   3.753747   4.250550   5.090411   4.891040
    14  C    3.767005   4.268808   3.758480   4.898661   5.100424
    15  C    4.276382   3.772679   2.481626   3.754375   4.252613
    16  C    3.765714   2.441034   1.399625   2.420897   2.797231
    17  C    1.457078   2.479916   5.104709   4.900850   3.756917
    18  C    2.480188   1.456633   4.254057   3.757075   2.482176
    19  C    3.761368   2.487458   5.117564   4.279166   2.890543
    20  C    4.257846   3.757324   6.469118   5.660794   4.272172
    21  C    3.758063   4.257153   7.054579   6.472472   5.114757
    22  C    2.488241   3.760897   6.474258   6.154056   4.905612
    23  C    5.122175   6.532324   6.221315   7.382632   7.514105
    24  C    6.464123   8.621318   8.855004   9.899430   9.796249
    25  C    7.045849   8.846900   8.637751   9.805355   9.897238
    26  C    6.475654   7.909638   7.409334   8.634654   8.851781
    27  C    5.091780   7.376110   7.897995   8.836019   8.608751
    28  C    4.250961   6.201844   6.512164   7.496276   7.363777
    29  C    2.815002   4.914932   5.663565   6.471521   6.159233
    30  C    2.430656   5.116239   6.479048   7.058481   6.478023
    31  C    3.749391   6.525246   7.895673   8.497566   7.898610
    32  C    4.859908   7.487425   8.490122   9.257453   8.817034
    33  H    7.073114   7.565562   6.191847   7.555608   8.152134
    34  H    7.560168   7.076112   4.917867   6.284393   7.233752
    35  H    6.294812   5.035050   2.524634   3.844749   4.917489
    36  H    2.156381   4.899819   7.059585   7.229673   6.279373
    37  H    5.880586   3.898187   1.100767   2.161620   3.404383
    38  H    6.174732   3.411010   2.153555   1.094955   2.154759
    39  H    4.903012   2.159011   3.403137   2.162398   1.100732
    40  H    4.640422   2.694452   4.913630   3.842164   2.520311
    41  H    5.352636   4.637484   7.232280   6.282169   4.914022
    42  H    4.638234   5.351945   8.149370   7.550613   6.183777
    43  H    2.695643   4.640295   7.235507   7.060228   5.876081
    44  H    7.220644   9.537514   9.908840  10.920298  10.754797
    45  H    8.140917   9.903294   9.559948  10.768605  10.921414
    46  H    7.247516   8.370217   7.499160   8.800944   9.182086
    47  H    4.073664   6.937331   8.603481   9.071963   8.332870
    48  H    5.842757   8.536182   9.586139  10.346870   9.879620
                   11         12         13         14         15
    11  C    0.000000
    12  C    1.442448   0.000000
    13  C    2.465089   1.405729   0.000000
    14  C    2.856654   2.473361   1.442979   0.000000
    15  C    2.481071   2.860177   2.470054   1.410075   0.000000
    16  C    1.411272   2.473045   2.851007   2.477767   1.455382
    17  C    2.861914   2.482304   3.770218   4.955567   5.158299
    18  C    2.480941   2.859895   4.265624   5.150854   4.961859
    19  C    3.766975   4.265470   5.671190   6.526587   6.226408
    20  C    4.905945   5.107729   6.481960   7.512459   7.386896
    21  C    5.108100   4.907439   6.169044   7.380712   7.519571
    22  C    4.267500   3.769712   4.929554   6.220943   6.534309
    23  C    5.153168   4.274420   2.868726   2.484159   3.773856
    24  C    7.370298   6.159079   4.905212   5.110081   6.488844
    25  C    7.502888   6.471064   5.101231   4.907275   6.175020
    26  C    6.520210   5.667129   4.261540   3.764763   4.928597
    27  C    6.193922   4.901375   3.754417   4.263091   5.673164
    28  C    4.937833   3.756299   2.472784   2.852638   4.262713
    29  C    3.759205   2.440208   1.413019   2.468031   3.754331
    30  C    4.258320   2.815872   2.442190   3.758312   4.912137
    31  C    5.697411   4.254967   3.754173   4.927015   6.191755
    32  C    6.490125   5.078426   4.239758   5.119217   6.494768
    33  H    6.176308   5.873515   4.632020   3.420573   3.899545
    34  H    5.874607   6.168671   5.337535   3.894561   3.412483
    35  H    4.101251   4.897204   4.627751   3.419858   2.160161
    36  H    4.633458   3.424519   3.905907   5.348859   6.180248
    37  H    3.421141   4.630537   4.887968   4.095664   2.692868
    38  H    3.895117   5.337565   6.159273   5.870307   4.633689
    39  H    3.421018   4.631133   5.866738   6.174241   5.353344
    40  H    4.099485   4.897503   6.282844   6.950985   6.433008
    41  H    5.877847   6.176384   7.559933   8.554105   8.353074
    42  H    6.177047   5.879967   7.078124   8.347284   8.561403
    43  H    4.901163   4.104266   5.037785   6.429205   6.959591
    44  H    8.332999   7.063335   5.875421   6.178514   7.566808
    45  H    8.544479   7.549114   6.169151   5.877061   7.080911
    46  H    6.959415   6.292134   4.904003   4.109117   5.046620
    47  H    6.293871   4.872854   4.620205   5.889875   7.088451
    48  H    7.572375   6.152039   5.335687   6.183425   7.569753
                   16         17         18         19         20
    16  C    0.000000
    17  C    4.273174   0.000000
    18  C    3.772391   1.404782   0.000000
    19  C    4.928283   2.423700   1.405627   0.000000
    20  C    6.169751   2.800769   2.425037   1.381629   0.000000
    21  C    6.486378   2.425147   2.800523   2.405259   1.397046
    22  C    5.678727   1.405667   2.423489   2.774784   2.405311
    23  C    4.961761   6.545923   7.134279   8.539784   9.312328
    24  C    7.514352   7.899886   8.851448  10.204518  10.675311
    25  C    7.384607   8.502921   9.290818  10.682678  11.303669
    26  C    6.222641   7.912315   8.526866   9.932272  10.689959
    27  C    6.516166   6.516132   7.510713   8.845928   9.281875
    28  C    5.141734   5.708034   6.524562   7.906702   8.508803
    29  C    4.264025   4.272057   5.118734   6.489322   7.072821
    30  C    5.114715   3.766654   4.910827   6.163991   6.481902
    31  C    6.518852   4.947523   6.200780   7.371220   7.510433
    32  C    7.090697   6.162936   7.339906   8.576856   8.802815
    33  H    5.354914   8.349456   8.558125   9.917175  10.932287
    34  H    4.636538   8.555698   8.350192   9.561587  10.771552
    35  H    2.697184   6.958164   6.435944   7.491625   8.792151
    36  H    5.877507   2.692619   4.090747   5.009025   4.914343
    37  H    2.160079   6.178393   5.354816   6.193630   7.553991
    38  H    3.411987   5.870806   4.635440   4.917175   6.278254
    39  H    3.897962   4.093867   2.695724   2.523243   3.838098
    40  H    5.032202   3.415963   2.162765   1.100807   2.157553
    41  H    7.077200   3.895561   3.417260   2.151344   1.094792
    42  H    7.564814   3.417333   3.895315   3.396253   2.162361
    43  H    6.293109   2.162961   3.415909   3.875541   3.406766
    44  H    8.554122   8.621358   9.661593  10.981665  11.352685
    45  H    8.350343   9.597989  10.377715  11.771794  12.398733
    46  H    6.444730   8.650211   9.133046  10.534268  11.385867
    47  H    7.262252   5.035690   6.387909   7.419490   7.354766
    48  H    8.186673   7.080683   8.313116   9.504172   9.632083
                   21         22         23         24         25
    21  C    0.000000
    22  C    1.381627   0.000000
    23  C    8.872196   7.551982   0.000000
    24  C    9.905102   8.523489   2.808920   0.000000
    25  C   10.669193   9.296827   2.423227   1.383609   0.000000
    26  C   10.209277   8.871204   1.393071   2.411626   1.394301
    27  C    8.501756   7.120141   2.444635   1.403351   2.414811
    28  C    7.903615   6.541326   1.414282   2.432522   2.795120
    29  C    6.489838   5.138850   2.474105   3.743737   4.231086
    30  C    5.669330   4.287706   3.754463   4.235812   5.072214
    31  C    6.520121   5.170912   4.241309   3.708399   4.844664
    32  C    7.853979   6.494042   3.755965   2.474031   3.736912
    33  H   10.770684   9.559582   2.687564   4.931336   3.862799
    34  H   10.930822   9.914159   4.632910   7.249777   6.304815
    35  H    9.179269   8.363222   5.354386   8.163152   7.568965
    36  H    3.836487   2.521275   5.878101   6.254580   7.203424
    37  H    8.155338   7.558102   6.433007   9.178107   8.797230
    38  H    7.233545   7.058065   8.349010  10.924834  10.770574
    39  H    4.916420   5.011694   8.559983  10.760222  10.923323
    40  H    3.406919   3.875573   9.131802  10.989908  11.368492
    41  H    2.162377   3.396299  10.398913  11.763260  12.398448
    42  H    1.094794   2.151314   9.689080  10.494455  11.352696
    43  H    2.157272   1.100773   7.408772   8.020261   8.921545
    44  H   10.486684   9.112278   3.904780   1.095860   2.155819
    45  H   11.757558  10.383334   3.409544   2.151626   1.095069
    46  H   11.004556   9.696117   2.153901   3.408882   2.168453
    47  H    6.223372   4.953509   5.337189   4.607020   5.828876
    48  H    8.597096   7.270276   4.622192   2.687462   4.066183
                   26         27         28         29         30
    26  C    0.000000
    27  C    2.794815   0.000000
    28  C    2.420568   1.410478   0.000000
    29  C    3.738986   2.461178   1.436011   0.000000
    30  C    4.880612   2.832461   2.460085   1.408930   0.000000
    31  C    5.057241   2.429959   2.827139   2.459202   1.439135
    32  C    4.233839   1.439085   2.459695   2.826854   2.429486
    33  H    2.531946   5.034146   4.093779   4.887009   6.275148
    34  H    4.928575   7.075283   5.869044   6.161163   7.547712
    35  H    6.199047   7.559919   6.170306   5.868503   7.068411
    36  H    7.045153   4.872207   4.624969   3.425738   2.167275
    37  H    7.490786   8.351326   6.942660   6.280312   7.241975
    38  H    9.558480   9.893147   8.538426   7.549790   8.153437
    39  H    9.911148   9.530852   8.332858   7.070095   7.242652
    40  H   10.521570   9.662090   8.632276   7.248024   7.070034
    41  H   11.778881  10.367861   9.603594   8.167613   7.559937
    42  H   10.992920   9.098111   8.633253   7.254180   6.289790
    43  H    8.656219   6.629201   6.256485   4.937182   3.849612
    44  H    3.406615   2.164995   3.424375   4.623684   4.871091
    45  H    2.155637   3.408806   3.890158   5.326141   6.141619
    46  H    1.100906   3.895721   3.416396   4.624779   5.859263
    47  H    6.130777   3.433560   3.922943   3.438195   2.181034
    48  H    4.852856   2.180655   3.438843   3.922706   3.433215
                   31         32         33         34         35
    31  C    0.000000
    32  C    1.353069   0.000000
    33  H    6.916695   6.413437   0.000000
    34  H    8.520819   8.324600   2.492330   0.000000
    35  H    8.322598   8.526137   4.317705   2.488702   0.000000
    36  H    2.698963   4.047194   8.284341   9.243415   8.291148
    37  H    8.623101   9.089339   5.928298   4.273137   1.784446
    38  H    9.592521  10.344517   8.292945   6.761756   4.273080
    39  H    8.630370   9.634001   9.252858   8.292018   5.927346
    40  H    8.336273   9.497816  10.258524   9.634513   7.402584
    41  H    8.552343   9.858402  11.969159  11.707006   9.637450
    42  H    6.956125   8.308457  11.705233  11.967146  10.260389
    43  H    4.472709   5.823946   9.630990  10.254158   8.921243
    44  H    4.047751   2.699637   5.938282   8.304605   9.258983
    45  H    5.817420   4.623063   4.288255   6.780516   8.304487
    46  H    6.132912   5.334738   1.800401   4.292726   5.944649
    47  H    1.096064   2.135596   8.010592   9.568433   9.240938
    48  H    2.135527   1.096105   7.201534   9.246198   9.575460
                   36         37         38         39         40
    36  H    0.000000
    37  H    8.016338   0.000000
    38  H    8.280781   2.488636   0.000000
    39  H    6.754367   4.314298   2.487506   0.000000
    40  H    6.063433   5.924205   4.268370   1.780866   0.000000
    41  H    5.917227   8.290604   6.755644   4.268140   2.487274
    42  H    4.267210   9.250131   8.284658   5.919118   4.309584
    43  H    1.780393   8.291748   8.012569   6.066284   4.976317
    44  H    6.722361  10.258568  11.958503  11.689960  11.817592
    45  H    8.254735   9.642334  11.706359  11.960419  12.446008
    46  H    8.007625   7.418048   9.648057  10.267817  11.037279
    47  H    2.444882   9.404711  10.161468   8.959393   8.448558
    48  H    4.760884  10.178569  11.435321  10.672685  10.458877
                   41         42         43         44         45
    41  H    0.000000
    42  H    2.489014   0.000000
    43  H    4.309354   2.486819   0.000000
    44  H   12.428398  10.989523   8.502718   0.000000
    45  H   13.493511  12.429021   9.987215   2.485155   0.000000
    46  H   12.463399  11.837467   9.561464   4.315064   2.487912
    47  H    8.341245   6.496671   4.081793   4.762170   6.751550
    48  H   10.662864   8.948909   6.495351   2.447047   4.764881
                   46         47         48
    46  H    0.000000
    47  H    7.213632   0.000000
    48  H    5.936579   2.482669   0.000000
 Stoichiometry    C32H16
 Framework group  CS[SG(C32H16)]
 Deg. of freedom    93
 Full point group                 CS      NOp   2
 Largest Abelian subgroup         CS      NOp   2
 Largest concise Abelian subgroup C1      NOp   1
                         Standard orientation:                         
 ---------------------------------------------------------------------
 Center     Atomic      Atomic             Coordinates (Angstroms)
 Number     Number       Type             X           Y           Z
 ---------------------------------------------------------------------
      1          6           0        2.449619    3.421090    0.000000
      2          6           0        3.656455    2.733279    0.000000
      3          6           0        3.667735    1.347070    0.000000
      4          6           0        1.236317    2.729274    0.000000
      5          6           0       -2.424861   -0.826253    0.000000
      6          6           0       -1.225068   -1.530589    0.000000
      7          6           0        1.265008   -2.952609    0.000000
      8          6           0        3.681411   -1.543146    0.000000
      9          6           0        3.685843   -2.929398    0.000000
     10          6           0        2.486928   -3.630024    0.000000
     11          6           0        1.254415   -1.540490    0.000000
     12          6           0        0.002403   -0.824164    0.000000
     13          6           0        0.000000    0.581563    0.000000
     14          6           0        1.242011    1.316136    0.000000
     15          6           0        2.469714    0.622554    0.000000
     16          6           0        2.475433   -0.832817    0.000000
     17          6           0       -1.214661   -2.987631    0.000000
     18          6           0        0.005340   -3.684058    0.000000
     19          6           0       -0.008030   -5.089621    0.000000
     20          6           0       -1.199945   -5.788361    0.000000
     21          6           0       -2.413282   -5.095864    0.000000
     22          6           0       -2.417961   -3.714245    0.000000
     23          6           0       -0.029639    3.450136    0.000000
     24          6           0       -2.488021    4.808956    0.000000
     25          6           0       -1.298045    5.514881    0.000000
     26          6           0       -0.076627    4.842414    0.000000
     27          6           0       -2.473870    3.405676    0.000000
     28          6           0       -1.241083    2.720342    0.000000
     29          6           0       -1.225816    1.284412    0.000000
     30          6           0       -2.442177    0.573392    0.000000
     31          6           0       -3.684975    1.299038    0.000000
     32          6           0       -3.699829    2.652025    0.000000
     33          1           0        2.434956    4.521944    0.000000
     34          1           0        4.600436    3.288086    0.000000
     35          1           0        4.622617    0.799483    0.000000
     36          1           0       -3.376340   -1.382220    0.000000
     37          1           0        4.630148   -0.984947    0.000000
     38          1           0        4.635999   -3.473577    0.000000
     39          1           0        2.489562   -4.730753    0.000000
     40          1           0        0.951699   -5.628784    0.000000
     41          1           0       -1.196115   -6.883147    0.000000
     42          1           0       -3.357835   -5.649391    0.000000
     43          1           0       -3.370533   -3.162604    0.000000
     44          1           0       -3.446740    5.339772    0.000000
     45          1           0       -1.310663    6.609878    0.000000
     46          1           0        0.867781    5.408176    0.000000
     47          1           0       -4.618012    0.723889    0.000000
     48          1           0       -4.645401    3.206407    0.000000
 ---------------------------------------------------------------------
 Rotational constants (GHZ):      0.2460723      0.1246150      0.0827228
 Leave Link  202 at Sat Jul 27 10:58:50 2019, MaxMem=  4194304000 cpu:         0.9
 (Enter /home/minenky/programs//g09/l301.exe)
 Standard basis: def2TZVP (5D, 7F)
 ======================================================================================================
                                       Pseudopotential Parameters
 ======================================================================================================
  Center     Atomic      Valence      Angular      Power
  Number     Number     Electrons     Momentum     of R      Exponent        Coefficient   SO-Coeffient
 ======================================================================================================
    1          6
                                   No pseudopotential on this center.
    2          6
                                   No pseudopotential on this center.
    3          6
                                   No pseudopotential on this center.
    4          6
                                   No pseudopotential on this center.
    5          6
                                   No pseudopotential on this center.
    6          6
                                   No pseudopotential on this center.
    7          6
                                   No pseudopotential on this center.
    8          6
                                   No pseudopotential on this center.
    9          6
                                   No pseudopotential on this center.
   10          6
                                   No pseudopotential on this center.
   11          6
                                   No pseudopotential on this center.
   12          6
                                   No pseudopotential on this center.
   13          6
                                   No pseudopotential on this center.
   14          6
                                   No pseudopotential on this center.
   15          6
                                   No pseudopotential on this center.
   16          6
                                   No pseudopotential on this center.
   17          6
                                   No pseudopotential on this center.
   18          6
                                   No pseudopotential on this center.
   19          6
                                   No pseudopotential on this center.
   20          6
                                   No pseudopotential on this center.
   21          6
                                   No pseudopotential on this center.
   22          6
                                   No pseudopotential on this center.
   23          6
                                   No pseudopotential on this center.
   24          6
                                   No pseudopotential on this center.
   25          6
                                   No pseudopotential on this center.
   26          6
                                   No pseudopotential on this center.
   27          6
                                   No pseudopotential on this center.
   28          6
                                   No pseudopotential on this center.
   29          6
                                   No pseudopotential on this center.
   30          6
                                   No pseudopotential on this center.
   31          6
                                   No pseudopotential on this center.
   32          6
                                   No pseudopotential on this center.
   33          1
                                   No pseudopotential on this center.
   34          1
                                   No pseudopotential on this center.
   35          1
                                   No pseudopotential on this center.
   36          1
                                   No pseudopotential on this center.
   37          1
                                   No pseudopotential on this center.
   38          1
                                   No pseudopotential on this center.
   39          1
                                   No pseudopotential on this center.
   40          1
                                   No pseudopotential on this center.
   41          1
                                   No pseudopotential on this center.
   42          1
                                   No pseudopotential on this center.
   43          1
                                   No pseudopotential on this center.
   44          1
                                   No pseudopotential on this center.
   45          1
                                   No pseudopotential on this center.
   46          1
                                   No pseudopotential on this center.
   47          1
                                   No pseudopotential on this center.
   48          1
                                   No pseudopotential on this center.
 ======================================================================================================
 Ernie: Thresh=  0.10000D-02 Tol=  0.10000D-05 Strict=F.
 AO basis set (Overlap normalization):
 Atom C1       Shell     1 S   6     bf    1 -     1          4.629109177133          6.464922871221          0.000000000000
      0.1357534968D+05  0.6064550360D-03
      0.2035233368D+04  0.4697908888D-02
      0.4632256236D+03  0.2433247765D-01
      0.1312001960D+03  0.9739996831D-01
      0.4285301589D+02  0.3019558425D+00
      0.1558418577D+02  0.6623360914D+00
 Atom C1       Shell     2 S   2     bf    2 -     2          4.629109177133          6.464922871221          0.000000000000
      0.6206713851D+01  0.6559530854D+00
      0.2576489653D+01  0.3758563329D+00
 Atom C1       Shell     3 S   1     bf    3 -     3          4.629109177133          6.464922871221          0.000000000000
      0.5769633942D+00  0.1000000000D+01
 Atom C1       Shell     4 S   1     bf    4 -     4          4.629109177133          6.464922871221          0.000000000000
      0.2297283136D+00  0.1000000000D+01
 Atom C1       Shell     5 S   1     bf    5 -     5          4.629109177133          6.464922871221          0.000000000000
      0.9516444003D-01  0.1000000000D+01
 Atom C1       Shell     6 P   4     bf    6 -     8          4.629109177133          6.464922871221          0.000000000000
      0.3469723224D+02  0.1132722000D-01
      0.7958262283D+01  0.7616965920D-01
      0.2378082688D+01  0.3019225220D+00
      0.8143320818D+00  0.7278502735D+00
 Atom C1       Shell     7 P   1     bf    9 -    11          4.629109177133          6.464922871221          0.000000000000
      0.2888754725D+00  0.1000000000D+01
 Atom C1       Shell     8 P   1     bf   12 -    14          4.629109177133          6.464922871221          0.000000000000
      0.1005682367D+00  0.1000000000D+01
 Atom C1       Shell     9 D   1     bf   15 -    19          4.629109177133          6.464922871221          0.000000000000
      0.1097000000D+01  0.1000000000D+01
 Atom C1       Shell    10 D   1     bf   20 -    24          4.629109177133          6.464922871221          0.000000000000
      0.3180000000D+00  0.1000000000D+01
 Atom C1       Shell    11 F   1     bf   25 -    31          4.629109177133          6.464922871221          0.000000000000
      0.7610000000D+00  0.1000000000D+01
 Atom C2       Shell    12 S   6     bf   32 -    32          6.909697868937          5.165148908963          0.000000000000
      0.1357534968D+05  0.6064550360D-03
      0.2035233368D+04  0.4697908888D-02
      0.4632256236D+03  0.2433247765D-01
      0.1312001960D+03  0.9739996831D-01
      0.4285301589D+02  0.3019558425D+00
      0.1558418577D+02  0.6623360914D+00
 Atom C2       Shell    13 S   2     bf   33 -    33          6.909697868937          5.165148908963          0.000000000000
      0.6206713851D+01  0.6559530854D+00
      0.2576489653D+01  0.3758563329D+00
 Atom C2       Shell    14 S   1     bf   34 -    34          6.909697868937          5.165148908963          0.000000000000
      0.5769633942D+00  0.1000000000D+01
 Atom C2       Shell    15 S   1     bf   35 -    35          6.909697868937          5.165148908963          0.000000000000
      0.2297283136D+00  0.1000000000D+01
 Atom C2       Shell    16 S   1     bf   36 -    36          6.909697868937          5.165148908963          0.000000000000
      0.9516444003D-01  0.1000000000D+01
 Atom C2       Shell    17 P   4     bf   37 -    39          6.909697868937          5.165148908963          0.000000000000
      0.3469723224D+02  0.1132722000D-01
      0.7958262283D+01  0.7616965920D-01
      0.2378082688D+01  0.3019225220D+00
      0.8143320818D+00  0.7278502735D+00
 Atom C2       Shell    18 P   1     bf   40 -    42          6.909697868937          5.165148908963          0.000000000000
      0.2888754725D+00  0.1000000000D+01
 Atom C2       Shell    19 P   1     bf   43 -    45          6.909697868937          5.165148908963          0.000000000000
      0.1005682367D+00  0.1000000000D+01
 Atom C2       Shell    20 D   1     bf   46 -    50          6.909697868937          5.165148908963          0.000000000000
      0.1097000000D+01  0.1000000000D+01
 Atom C2       Shell    21 D   1     bf   51 -    55          6.909697868937          5.165148908963          0.000000000000
      0.3180000000D+00  0.1000000000D+01
 Atom C2       Shell    22 F   1     bf   56 -    62          6.909697868937          5.165148908963          0.000000000000
      0.7610000000D+00  0.1000000000D+01
 Atom C3       Shell    23 S   6     bf   63 -    63          6.931014476733          2.545593746915          0.000000000000
      0.1357534968D+05  0.6064550360D-03
      0.2035233368D+04  0.4697908888D-02
      0.4632256236D+03  0.2433247765D-01
      0.1312001960D+03  0.9739996831D-01
      0.4285301589D+02  0.3019558425D+00
      0.1558418577D+02  0.6623360914D+00
 Atom C3       Shell    24 S   2     bf   64 -    64          6.931014476733          2.545593746915          0.000000000000
      0.6206713851D+01  0.6559530854D+00
      0.2576489653D+01  0.3758563329D+00
 Atom C3       Shell    25 S   1     bf   65 -    65          6.931014476733          2.545593746915          0.000000000000
      0.5769633942D+00  0.1000000000D+01
 Atom C3       Shell    26 S   1     bf   66 -    66          6.931014476733          2.545593746915          0.000000000000
      0.2297283136D+00  0.1000000000D+01
 Atom C3       Shell    27 S   1     bf   67 -    67          6.931014476733          2.545593746915          0.000000000000
      0.9516444003D-01  0.1000000000D+01
 Atom C3       Shell    28 P   4     bf   68 -    70          6.931014476733          2.545593746915          0.000000000000
      0.3469723224D+02  0.1132722000D-01
      0.7958262283D+01  0.7616965920D-01
      0.2378082688D+01  0.3019225220D+00
      0.8143320818D+00  0.7278502735D+00
 Atom C3       Shell    29 P   1     bf   71 -    73          6.931014476733          2.545593746915          0.000000000000
      0.2888754725D+00  0.1000000000D+01
 Atom C3       Shell    30 P   1     bf   74 -    76          6.931014476733          2.545593746915          0.000000000000
      0.1005682367D+00  0.1000000000D+01
 Atom C3       Shell    31 D   1     bf   77 -    81          6.931014476733          2.545593746915          0.000000000000
      0.1097000000D+01  0.1000000000D+01
 Atom C3       Shell    32 D   1     bf   82 -    86          6.931014476733          2.545593746915          0.000000000000
      0.3180000000D+00  0.1000000000D+01
 Atom C3       Shell    33 F   1     bf   87 -    93          6.931014476733          2.545593746915          0.000000000000
      0.7610000000D+00  0.1000000000D+01
 Atom C4       Shell    34 S   6     bf   94 -    94          2.336299928664          5.157580658117          0.000000000000
      0.1357534968D+05  0.6064550360D-03
      0.2035233368D+04  0.4697908888D-02
      0.4632256236D+03  0.2433247765D-01
      0.1312001960D+03  0.9739996831D-01
      0.4285301589D+02  0.3019558425D+00
      0.1558418577D+02  0.6623360914D+00
 Atom C4       Shell    35 S   2     bf   95 -    95          2.336299928664          5.157580658117          0.000000000000
      0.6206713851D+01  0.6559530854D+00
      0.2576489653D+01  0.3758563329D+00
 Atom C4       Shell    36 S   1     bf   96 -    96          2.336299928664          5.157580658117          0.000000000000
      0.5769633942D+00  0.1000000000D+01
 Atom C4       Shell    37 S   1     bf   97 -    97          2.336299928664          5.157580658117          0.000000000000
      0.2297283136D+00  0.1000000000D+01
 Atom C4       Shell    38 S   1     bf   98 -    98          2.336299928664          5.157580658117          0.000000000000
      0.9516444003D-01  0.1000000000D+01
 Atom C4       Shell    39 P   4     bf   99 -   101          2.336299928664          5.157580658117          0.000000000000
      0.3469723224D+02  0.1132722000D-01
      0.7958262283D+01  0.7616965920D-01
      0.2378082688D+01  0.3019225220D+00
      0.8143320818D+00  0.7278502735D+00
 Atom C4       Shell    40 P   1     bf  102 -   104          2.336299928664          5.157580658117          0.000000000000
      0.2888754725D+00  0.1000000000D+01
 Atom C4       Shell    41 P   1     bf  105 -   107          2.336299928664          5.157580658117          0.000000000000
      0.1005682367D+00  0.1000000000D+01
 Atom C4       Shell    42 D   1     bf  108 -   112          2.336299928664          5.157580658117          0.000000000000
      0.1097000000D+01  0.1000000000D+01
 Atom C4       Shell    43 D   1     bf  113 -   117          2.336299928664          5.157580658117          0.000000000000
      0.3180000000D+00  0.1000000000D+01
 Atom C4       Shell    44 F   1     bf  118 -   124          2.336299928664          5.157580658117          0.000000000000
      0.7610000000D+00  0.1000000000D+01
 Atom C5       Shell    45 S   6     bf  125 -   125         -4.582322888324         -1.561392663115          0.000000000000
      0.1357534968D+05  0.6064550360D-03
      0.2035233368D+04  0.4697908888D-02
      0.4632256236D+03  0.2433247765D-01
      0.1312001960D+03  0.9739996831D-01
      0.4285301589D+02  0.3019558425D+00
      0.1558418577D+02  0.6623360914D+00
 Atom C5       Shell    46 S   2     bf  126 -   126         -4.582322888324         -1.561392663115          0.000000000000
      0.6206713851D+01  0.6559530854D+00
      0.2576489653D+01  0.3758563329D+00
 Atom C5       Shell    47 S   1     bf  127 -   127         -4.582322888324         -1.561392663115          0.000000000000
      0.5769633942D+00  0.1000000000D+01
 Atom C5       Shell    48 S   1     bf  128 -   128         -4.582322888324         -1.561392663115          0.000000000000
      0.2297283136D+00  0.1000000000D+01
 Atom C5       Shell    49 S   1     bf  129 -   129         -4.582322888324         -1.561392663115          0.000000000000
      0.9516444003D-01  0.1000000000D+01
 Atom C5       Shell    50 P   4     bf  130 -   132         -4.582322888324         -1.561392663115          0.000000000000
      0.3469723224D+02  0.1132722000D-01
      0.7958262283D+01  0.7616965920D-01
      0.2378082688D+01  0.3019225220D+00
      0.8143320818D+00  0.7278502735D+00
 Atom C5       Shell    51 P   1     bf  133 -   135         -4.582322888324         -1.561392663115          0.000000000000
      0.2888754725D+00  0.1000000000D+01
 Atom C5       Shell    52 P   1     bf  136 -   138         -4.582322888324         -1.561392663115          0.000000000000
      0.1005682367D+00  0.1000000000D+01
 Atom C5       Shell    53 D   1     bf  139 -   143         -4.582322888324         -1.561392663115          0.000000000000
      0.1097000000D+01  0.1000000000D+01
 Atom C5       Shell    54 D   1     bf  144 -   148         -4.582322888324         -1.561392663115          0.000000000000
      0.3180000000D+00  0.1000000000D+01
 Atom C5       Shell    55 F   1     bf  149 -   155         -4.582322888324         -1.561392663115          0.000000000000
      0.7610000000D+00  0.1000000000D+01
 Atom C6       Shell    56 S   6     bf  156 -   156         -2.315043888477         -2.892394800353          0.000000000000
      0.1357534968D+05  0.6064550360D-03
      0.2035233368D+04  0.4697908888D-02
      0.4632256236D+03  0.2433247765D-01
      0.1312001960D+03  0.9739996831D-01
      0.4285301589D+02  0.3019558425D+00
      0.1558418577D+02  0.6623360914D+00
[...]
 098,0.00000269,0.,-0.00001107,-0.00001980,0.,0.00000773,0.00000460,0.,
 0.00004083,0.00006750,0.,-0.00077244,0.00127374,0.,0.00083284,-0.00032
 508,0.,0.16456774,-0.00004505,0.00001606,0.,0.00002503,0.00003329,0.,-
 0.00004290,-0.00001530,0.,0.00000981,-0.00000918,0.,0.00062895,-0.0005
 3726,0.,0.00182706,0.00017925,0.,0.00139289,-0.00052056,0.,-0.00005827
 ,-0.00006521,0.,0.00009921,-0.00004986,0.,-0.00042420,-0.00037452,0.,0
 .00016257,-0.00001559,0.,-0.00017997,-0.00009292,0.,0.00010111,0.00002
 092,0.,-0.00007380,-0.00005727,0.,0.00008988,0.00001963,0.,0.00000369,
 0.00005400,0.,0.01826443,-0.01824167,0.,-0.00383092,-0.00335825,0.,-0.
 00099289,-0.00000280,0.,-0.00105797,0.00150654,0.,-0.00411841,0.005978
 72,0.,0.13301998,-0.25563066,0.,0.00002495,-0.00001027,0.,-0.00001164,
 0.00000690,0.,-0.00001126,0.00001687,0.,0.00002402,0.00002597,0.,-0.00
 000424,-0.00001054,0.,0.00000686,0.00012533,0.,0.00018564,0.00003582,0
 .,-0.00017337,0.00086654,0.,-0.00001111,0.00003310,0.,-0.00001180,-0.0
 0005874,0.,0.00000145,-0.00000180,0.,-0.00000332,0.00000052,0.,0.00000
 774,0.00001925,0.,-0.00039653,0.00189265,0.,-0.00000121,-0.00000748,0.
 ,-0.00002047,-0.00005380,0.,0.00001477,0.00003225,0.,0.00013113,-0.000
 02544,0.,-0.00023738,0.00011994,0.,0.00019996,0.00094117,0.,-0.1445158
 0,0.26718484,0.,0.,-0.00006729,0.,0.,0.00004151,0.,0.,-0.00007706,0.,0
 .,0.00007019,0.,0.,-0.00064842,0.,0.,-0.00244454,0.,0.,0.00025075,0.,0
 .,0.00000938,0.,0.,-0.00001317,0.,0.,-0.00002116,0.,0.,-0.00023749,0.,
 0.,-0.00013266,0.,0.,0.00011155,0.,0.,-0.00004486,0.,0.,0.00008039,0.,
 0.,0.00004775,0.,0.,0.00165902,0.,0.,0.00672424,0.,0.,-0.00113743,0.,0
 .,0.00870889,0.,0.,0.00340383,0.,0.,-0.03575235,0.,0.,-0.00001367,0.,0
 .,-0.00000454,0.,0.,-0.00000038,0.,0.,0.00000429,0.,0.,0.00003244,0.,0
 .,0.00001384,0.,0.,0.00012352,0.,0.,-0.00038218,0.,0.,-0.00002224,0.,0
 .,-0.00002816,0.,0.,0.00001754,0.,0.,-0.00000242,0.,0.,0.00002170,0.,0
 .,0.00222177,0.,0.,-0.00001500,0.,0.,-0.00000786,0.,0.,0.00000976,0.,0
 .,-0.00102767,0.,0.,-0.00004021,0.,0.,-0.00446780,0.,0.,0.02299367,-0.
 00003550,0.00004909,0.,0.00009050,0.00001759,0.,-0.00004145,-0.0000446
 2,0.,0.00017859,-0.00008938,0.,0.00013347,-0.00014118,0.,-0.00005016,0
 .00009381,0.,-0.00000334,0.00000346,0.,0.00000663,-0.00000252,0.,-0.00
 000551,-0.00000995,0.,-0.00001339,0.00000901,0.,-0.00005434,-0.0000364
 0,0.,-0.00008144,0.00009344,0.,-0.00037656,-0.00017819,0.,-0.00005603,
 -0.00016401,0.,0.00002177,0.00005071,0.,0.00000120,0.00001056,0.,0.000
 03910,-0.00000890,0.,-0.00000603,0.00000668,0.,0.00000101,-0.00000821,
 0.,-0.00001298,0.00000116,0.,0.00000377,0.00000171,0.,-0.00001927,0.00
 000284,0.,-0.00089229,-0.00077102,0.,-0.14902749,0.12978160,0.,0.01181
 852,-0.01276570,0.,-0.00024636,-0.00303562,0.,-0.01283819,0.02739211,0
 .,-0.00507927,-0.00206368,0.,-0.00015460,0.00166689,0.,0.00004370,0.00
 016088,0.,0.00017918,-0.00044284,0.,0.00114742,0.00200288,0.,0.0000228
 0,0.00003249,0.,-0.00000224,0.00000463,0.,0.00000192,0.00000494,0.,-0.
 00003454,-0.00001369,0.,0.00000068,0.00000137,0.,-0.00000151,0.0000014
 3,0.,-0.00000228,0.00000178,0.,-0.00000079,0.00000116,0.,-0.00000116,-
 0.00000024,0.,-0.00000286,-0.00000225,0.,0.00000117,-0.00000075,0.,0.1
 5455122,-0.00003348,-0.00003678,0.,0.00006895,0.00001264,0.,-0.0000117
 2,-0.00003502,0.,0.00010103,-0.00005692,0.,0.00017179,-0.00007409,0.,-
 0.00003055,0.00014621,0.,0.00000413,-0.00002589,0.,0.00002828,-0.00000
 639,0.,-0.00001365,-0.00000755,0.,0.00000774,0.00001691,0.,0.00000244,
 0.00000512,0.,-0.00011934,-0.00005332,0.,0.00010264,0.00001332,0.,-0.0
 0000884,-0.00009028,0.,0.00001854,0.00004227,0.,-0.00003010,-0.0000038
 6,0.,0.00000068,-0.00000024,0.,0.00001120,0.00001684,0.,-0.00000595,0.
 00000424,0.,0.00001015,0.00000795,0.,0.00000689,-0.00000633,0.,0.00000
 913,-0.00000690,0.,-0.00085840,0.00013847,0.,0.13012387,-0.25063259,0.
 ,0.01894334,-0.01780182,0.,-0.00381831,-0.00350934,0.,-0.00261560,0.00
 407747,0.,-0.00104919,0.00112160,0.,-0.00035271,0.00006096,0.,-0.00023
 689,0.00023336,0.,0.00045308,0.00004146,0.,-0.00177281,0.00099977,0.,0
 .00004433,0.00008202,0.,-0.00000053,-0.00000879,0.,0.00000967,-0.00000
 522,0.,0.00000341,0.00000776,0.,-0.00000455,0.00000082,0.,0.00000322,-
 0.00000330,0.,0.00000344,0.00000045,0.,0.00000047,-0.00000281,0.,0.000
 00343,0.00000030,0.,0.00000258,0.00000355,0.,-0.00000474,-0.00000260,0
 .,-0.14009311,0.26537833,0.,0.,0.00004467,0.,0.,-0.00009094,0.,0.,-0.0
 0001262,0.,0.,-0.00093853,0.,0.,-0.00001282,0.,0.,0.00000486,0.,0.,-0.
 00001499,0.,0.,0.00002099,0.,0.,-0.00000605,0.,0.,0.00001574,0.,0.,-0.
 00006310,0.,0.,0.00000332,0.,0.,-0.00001361,0.,0.,0.00007840,0.,0.,0.0
 0006555,0.,0.,-0.00002830,0.,0.,-0.00000512,0.,0.,0.00000045,0.,0.,0.0
 0000024,0.,0.,-0.00000187,0.,0.,-0.00000328,0.,0.,0.00000187,0.,0.,-0.
 00107753,0.,0.,-0.03599898,0.,0.,0.00276998,0.,0.,0.00778506,0.,0.,0.0
 0302354,0.,0.,0.00655190,0.,0.,0.00009561,0.,0.,0.00011175,0.,0.,-0.00
 012330,0.,0.,-0.00381742,0.,0.,0.00011185,0.,0.,0.00000335,0.,0.,0.000
 02456,0.,0.,0.00002791,0.,0.,-0.00000331,0.,0.,-0.00000055,0.,0.,-0.00
 000038,0.,0.,0.00000113,0.,0.,0.00000113,0.,0.,0.00000211,0.,0.,-0.000
 00008,0.,0.,0.02502042,-0.00005397,0.00002775,0.,0.00001592,-0.0000123
 9,0.,-0.00004171,0.00003570,0.,-0.00060004,-0.00058120,0.,0.00000325,-
 0.00001150,0.,0.00001745,0.00002309,0.,-0.00000249,0.00001412,0.,-0.00
 002187,-0.00001185,0.,-0.00000685,0.00000755,0.,-0.00000746,-0.0000005
 1,0.,0.00000458,-0.00001874,0.,-0.00003420,-0.00000107,0.,0.00002840,0
 .00002049,0.,-0.00005680,0.00030655,0.,-0.00005494,-0.00002930,0.,0.00
 000685,0.00003486,0.,0.00002130,0.00000658,0.,-0.00000239,0.00001052,0
 .,-0.00000224,-0.00000688,0.,-0.00000575,-0.00000043,0.,-0.00000067,0.
 00000019,0.,-0.00001222,-0.00000537,0.,0.00030147,0.00323743,0.,-0.009
 28748,0.00185536,0.,-0.34020700,-0.02361043,0.,-0.01322021,-0.00438265
 ,0.,0.00117302,-0.00253184,0.,0.00069190,0.00016391,0.,-0.00001714,-0.
 00000435,0.,0.00000561,-0.00001725,0.,-0.00002189,-0.00032069,0.,-0.00
 059894,0.00036817,0.,-0.00000371,-0.00001052,0.,-0.00000605,0.00002503
 ,0.,-0.00000367,0.00000704,0.,0.00000353,-0.00000548,0.,0.00000710,-0.
 00000021,0.,-0.00000521,0.00000338,0.,-0.00000515,0.00000016,0.,0.,0.0
 0000324,0.,-0.00000435,-0.00000026,0.,-0.00000207,-0.00000368,0.,0.000
 00616,0.00000472,0.,0.00076769,-0.00032182,0.,0.36044329,0.00000789,-0
 .00005565,0.,-0.00011604,0.00002578,0.,0.00008136,0.00004338,0.,0.0010
 0636,0.00085666,0.,-0.00023757,0.00013158,0.,0.00006473,-0.00021373,0.
 ,-0.00000507,0.00002956,0.,-0.00000443,0.00002037,0.,0.00001784,0.0000
 1606,0.,0.00001198,-0.00002254,0.,0.00000669,0.00000465,0.,0.00016968,
 0.00013964,0.,-0.00026312,-0.00008485,0.,0.00016011,-0.00030178,0.,0.0
 0009140,-0.00001092,0.,0.00001433,-0.00005219,0.,-0.00002672,0.0000035
 5,0.,-0.00001003,-0.00002949,0.,0.00000900,0.00000633,0.,-0.00000204,-
 0.00000981,0.,-0.00000862,0.00000747,0.,0.00000575,0.00000683,0.,0.002
 85373,-0.00419979,0.,-0.02986345,0.00304662,0.,-0.02379112,-0.06277271
 ,0.,0.02721444,0.00632042,0.,-0.00198247,-0.00526081,0.,0.00001243,-0.
 00128826,0.,0.00010511,0.00010937,0.,0.00035702,-0.00019014,0.,-0.0003
 8801,-0.00036707,0.,-0.00103672,0.00073643,0.,-0.00000942,-0.00002149,
 0.,0.00000824,-0.00001758,0.,-0.00000043,-0.00000431,0.,0.00000814,0.0
 0000213,0.,-0.00000334,0.00000212,0.,0.00000266,0.00000041,0.,-0.00000
 013,-0.00000031,0.,-0.00000141,0.00000030,0.,-0.00000058,0.00000022,0.
 ,-0.00000038,-0.00000044,0.,0.00000224,0.00000263,0.,0.00046322,0.0008
 3884,0.,0.02543519,0.06170743,0.,0.,0.00019842,0.,0.,-0.00008593,0.,0.
 ,0.00003763,0.,0.,0.00016863,0.,0.,0.00004702,0.,0.,-0.00000691,0.,0.,
 -0.00000079,0.,0.,-0.00000306,0.,0.,0.00000353,0.,0.,-0.00000153,0.,0.
 ,-0.00000845,0.,0.,0.00007131,0.,0.,0.00008580,0.,0.,-0.00035651,0.,0.
 ,-0.00001730,0.,0.,-0.00001577,0.,0.,-0.00000139,0.,0.,0.00000104,0.,0
 .,-0.00000108,0.,0.,0.00000058,0.,0.,-0.00000258,0.,0.,-0.00000013,0.,
 0.,0.00757788,0.,0.,0.00262298,0.,0.,-0.03696284,0.,0.,0.00213218,0.,0
 .,0.00818669,0.,0.,-0.00095789,0.,0.,-0.00087440,0.,0.,0.00009071,0.,0
 .,-0.00041225,0.,0.,0.00018660,0.,0.,-0.00002710,0.,0.,0.00001823,0.,0
 .,0.00000179,0.,0.,-0.00000541,0.,0.,0.00000051,0.,0.,0.00000156,0.,0.
 ,-0.00000013,0.,0.,0.00000079,0.,0.,0.00000050,0.,0.,0.00000093,0.,0.,
 0.00000220,0.,0.,-0.00402203,0.,0.,0.02604844,-0.00179714,-0.00001769,
 0.,0.00059780,0.00049210,0.,0.00017715,-0.00004336,0.,0.00124152,-0.00
 056210,0.,-0.00013212,-0.00007664,0.,0.00000599,-0.00012544,0.,-0.0000
 0825,-0.00000307,0.,0.00004554,0.00001302,0.,-0.00001021,0.00003988,0.
 ,0.00005461,0.00000822,0.,0.00003690,-0.00003469,0.,0.00016208,0.00011
 943,0.,0.00000505,-0.00011886,0.,-0.00009749,0.00007018,0.,0.00008385,
 -0.00008448,0.,-0.00009717,0.00001013,0.,0.00001058,0.00001711,0.,-0.0
 0003128,-0.00004435,0.,0.00001632,0.00001163,0.,-0.00001959,-0.0000084
 9,0.,-0.00000304,0.00002204,0.,-0.00000703,0.00000003,0.,-0.00769397,-
 0.02934147,0.,-0.00130329,0.00336697,0.,0.01153341,0.01777643,0.,-0.12
 188882,-0.11797512,0.,-0.00104457,0.00049522,0.,-0.00575993,0.00127976
 ,0.,0.00027854,-0.00169921,0.,-0.00037060,0.00003982,0.,-0.00021783,0.
 00012341,0.,0.00033390,0.00013296,0.,-0.00048452,0.00334601,0.,-0.0000
 2850,0.00000282,0.,0.00008991,-0.00000041,0.,-0.00005630,-0.00001132,0
 .,-0.00001440,0.00001867,0.,0.00000530,-0.00000156,0.,0.00000142,-0.00
 000028,0.,-0.00000994,-0.00000135,0.,0.00000046,0.00000115,0.,-0.00000
 094,-0.00000007,0.,0.00000314,0.00000872,0.,0.00033324,0.00083468,0.,0
 .00085155,-0.00023665,0.,0.12523005,0.00264998,-0.00188807,0.,0.000350
 28,0.00021744,0.,0.00001440,-0.00010416,0.,-0.00013890,-0.00191221,0.,
 0.00012232,-0.00004486,0.,-0.00005500,0.00011493,0.,-0.00000697,-0.000
 00582,0.,0.00000204,-0.00001258,0.,-0.00001052,-0.00000140,0.,-0.00000
 767,0.00001094,0.,0.00000940,-0.00003442,0.,-0.00010407,-0.00006346,0.
 ,0.00011098,-0.00002671,0.,-0.00022315,0.00012976,0.,-0.00006037,-0.00
 004335,0.,-0.00001857,0.00004462,0.,0.00003575,0.00000890,0.,-0.000006
 24,0.00001447,0.,-0.00000274,-0.00000840,0.,-0.00001121,0.00000341,0.,
 0.00000448,0.00000296,0.,-0.00001471,-0.00000705,0.,-0.00157961,0.0017
 5830,0.,0.00409758,-0.00270598,0.,-0.01462745,-0.01959616,0.,-0.117498
 78,-0.28219881,0.,0.00076418,0.00041905,0.,0.00047992,0.00145858,0.,0.
 00007126,-0.00000007,0.,-0.00019267,0.00009733,0.,0.00010105,-0.000023
 91,0.,-0.00013970,-0.00011151,0.,0.00394415,-0.00336245,0.,-0.00000327
 ,-0.00000406,0.,0.00002156,0.00000446,0.,-0.00000462,-0.00000584,0.,0.
 00000207,0.00000514,0.,-0.00000390,0.00000252,0.,-0.00000290,-0.000000
 02,0.,-0.00000147,0.00000204,0.,-0.00000276,-0.00000009,0.,-0.00000164
 ,-0.00000286,0.,0.00000347,0.00000227,0.,-0.00065377,-0.00101682,0.,0.
 00032930,0.00089222,0.,0.12224897,0.30797085,0.,0.,-0.00082892,0.,0.,-
 0.00026714,0.,0.,0.00001597,0.,0.,-0.00271260,0.,0.,-0.00005783,0.,0.,
 0.00013791,0.,0.,-0.00003194,0.,0.,-0.00008214,0.,0.,0.00000941,0.,0.,
 0.00002360,0.,0.,-0.00008017,0.,0.,0.00000896,0.,0.,-0.00002652,0.,0.,
 -0.00021180,0.,0.,0.00002782,0.,0.,0.00017350,0.,0.,-0.00008755,0.,0.,
 0.00006295,0.,0.,-0.00002051,0.,0.,-0.00000063,0.,0.,-0.00000056,0.,0.
 ,0.00002987,0.,0.,0.00189007,0.,0.,0.00764146,0.,0.,0.00288840,0.,0.,-
 0.03557634,0.,0.,-0.00122497,0.,0.,0.00763550,0.,0.,0.00017794,0.,0.,-
 0.00022470,0.,0.,0.00014146,0.,0.,-0.00096215,0.,0.,0.00217320,0.,0.,-
 0.00002488,0.,0.,0.00006996,0.,0.,-0.00007361,0.,0.,0.00004195,0.,0.,-
 0.00000072,0.,0.,-0.00001127,0.,0.,0.00000683,0.,0.,0.00000187,0.,0.,-
 0.00000084,0.,0.,-0.00000925,0.,0.,-0.00000499,0.,0.,-0.00377959,0.,0.
 ,0.02300476,0.00002858,-0.00002673,0.,0.00000556,0.00000562,0.,-0.0000
 1149,-0.00000012,0.,-0.00006409,-0.00000891,0.,0.00140243,0.00164604,0
 .,0.00004390,-0.00041028,0.,-0.00000089,0.00003410,0.,-0.00000652,-0.0
 0000863,0.,0.00000170,0.00001248,0.,0.00000164,-0.00001952,0.,-0.00002
 219,-0.00005844,0.,0.00021777,0.00013501,0.,0.00052921,0.00080181,0.,-
 0.00023103,0.00012175,0.,0.00004014,0.00006246,0.,0.00001977,-0.000000
 16,0.,-0.00003707,-0.00002134,0.,0.00001929,0.00000606,0.,0.00000904,-
 0.00001070,0.,0.00001232,-0.00000222,0.,-0.00000011,-0.00003369,0.,0.0
 0000549,0.00006926,0.,0.00026741,0.00007679,0.,0.00024612,-0.00145944,
 0.,-0.00050719,-0.00012712,0.,-0.00014868,0.00013478,0.,-0.00541848,0.
 00158240,0.,-0.00057071,0.00016272,0.,-0.00232223,0.00259732,0.,0.0099
 2389,0.01655110,0.,-0.11117370,-0.10856628,0.,-0.00900740,-0.03108500,
 0.,0.00000273,0.00001457,0.,0.00000099,-0.00000564,0.,0.00000540,0.000
 00761,0.,-0.00047701,-0.00043539,0.,-0.00000193,0.00000005,0.,0.000001
 46,-0.00000276,0.,0.00000011,0.00000308,0.,0.00000485,-0.00000245,0.,0
 .00000616,-0.00000379,0.,-0.00000016,0.00000361,0.,-0.00002529,-0.0000
 2735,0.,-0.00002962,0.00005396,0.,-0.00007206,-0.00014656,0.,-0.000001
 47,-0.00001531,0.,0.11657382,-0.00000255,-0.00003986,0.,-0.00003316,0.
 00001221,0.,0.00006955,-0.00001367,0.,0.00000232,0.00006801,0.,-0.0020
 5285,0.00114298,0.,0.00043435,0.00003430,0.,-0.00000161,-0.00002580,0.
 ,-0.00000993,0.00004412,0.,0.00005061,-0.00000813,0.,0.00000899,-0.000
 02436,0.,0.00005766,0.00011380,0.,0.00006178,0.00022889,0.,-0.00128012
 ,-0.00071793,0.,0.00039091,-0.00020753,0.,-0.00013844,-0.00011630,0.,0
 .00001864,-0.00001625,0.,-0.00008452,-0.00004854,0.,-0.00001153,-0.000
 06415,0.,0.00000594,0.00003449,0.,0.00001296,-0.00001292,0.,-0.0000120
 7,0.00005276,0.,0.00006375,-0.00007483,0.,-0.00008594,-0.00007228,0.,-
 0.00001373,-0.00016922,0.,-0.00013957,0.00011352,0.,0.00009185,0.00000
 120,0.,0.00030089,0.00165007,0.,0.00062797,0.00037634,0.,0.00410897,-0
 .00196016,0.,-0.01344409,-0.01902297,0.,-0.10942210,-0.28698213,0.,0.0
 0131597,0.00158267,0.,-0.00000874,-0.00000864,0.,-0.00000301,-0.000006
 27,0.,-0.00000482,-0.00001894,0.,0.00131543,0.00032265,0.,-0.00000453,
 -0.00000244,0.,0.00000397,-0.00000126,0.,0.00000966,-0.00000772,0.,-0.
 00000328,-0.00000177,0.,-0.00000055,0.00000514,0.,0.00001079,0.0000039
 9,0.,0.00002589,0.00002608,0.,-0.00001465,0.00000703,0.,-0.00000171,-0
 .00001118,0.,-0.00001630,-0.00001202,0.,0.11810924,0.30292985,0.,0.,-0
 .00000936,0.,0.,-0.00000603,0.,0.,-0.00000802,0.,0.,0.00006864,0.,0.,-
 0.00196008,0.,0.,-0.00013454,0.,0.,0.00001187,0.,0.,-0.00001013,0.,0.,
 -0.00000070,0.,0.,-0.00000707,0.,0.,0.00004203,0.,0.,-0.00005724,0.,0.
 ,0.00019774,0.,0.,-0.00000098,0.,0.,-0.00000206,0.,0.,-0.00000271,0.,0
 .,0.00005713,0.,0.,0.00000505,0.,0.,-0.00001099,0.,0.,-0.00000152,0.,0
 .,-0.00000731,0.,0.,-0.00003193,0.,0.,-0.00076658,0.,0.,0.00004382,0.,
 0.,-0.00081001,0.,0.,0.00013247,0.,0.,0.01058914,0.,0.,-0.00075329,0.,
 0.,0.00361528,0.,0.,0.00265049,0.,0.,-0.03704531,0.,0.,0.00429616,0.,0
 .,0.00000722,0.,0.,0.00000090,0.,0.,0.00000396,0.,0.,0.00024746,0.,0.,
 0.00000246,0.,0.,0.00000223,0.,0.,0.00000273,0.,0.,0.00000243,0.,0.,0.
 00000309,0.,0.,0.00000710,0.,0.,0.00004644,0.,0.,0.00023992,0.,0.,-0.0
 0002403,0.,0.,0.00009996,0.,0.,0.02516602,0.00005479,-0.00003463,0.,0.
 00000225,-0.00000844,0.,-0.00000701,-0.00000645,0.,-0.00015478,-0.0001
 3088,0.,-0.00005257,0.00145887,0.,-0.00050522,-0.00002057,0.,-0.000002
 81,-0.00002810,0.,0.00002105,-0.00000886,0.,-0.00002452,-0.00000877,0.
 ,-0.00000238,0.00003059,0.,0.00002063,-0.00001700,0.,-0.00010707,-0.00
 016343,0.,0.00024671,-0.00003099,0.,-0.00004094,0.00002252,0.,0.000036
 66,0.00002880,0.,-0.00002738,0.00002047,0.,0.00004771,0.00016009,0.,-0
 .00005025,-0.00000431,0.,-0.00001244,0.00000371,0.,-0.00002254,0.00000
 760,0.,0.00001045,0.00000687,0.,-0.00003394,-0.00001714,0.,0.00040239,
 -0.00057644,0.,0.00129618,-0.00148212,0.,0.00004797,0.00042205,0.,0.00
 023681,-0.00013073,0.,0.00980339,-0.01177624,0.,-0.00117530,-0.0024868
 4,0.,-0.00041491,-0.00030124,0.,-0.00490675,-0.00265894,0.,-0.01359543
 ,0.02843377,0.,-0.15236037,0.13172473,0.,0.00000519,0.00000159,0.,0.00
 000520,-0.00000182,0.,-0.00000135,0.00000399,0.,-0.00000424,-0.0000500
 5,0.,0.00000130,0.00000420,0.,-0.00000261,0.00000354,0.,-0.00000401,0.
 00000002,0.,-0.00000869,0.00000235,0.,-0.00000552,0.00000079,0.,-0.000
 00816,-0.00000623,0.,0.00001214,0.00001604,0.,-0.00027437,0.00035923,0
 .,0.00000947,0.00002473,0.,-0.00001988,0.00002486,0.,0.00075954,-0.000
 30826,0.,0.16080561,0.00015021,-0.00009724,0.,-0.00004610,-0.00003699,
 0.,0.00002618,0.00000070,0.,-0.00039658,-0.00022944,0.,0.00007029,0.00
 008538,0.,-0.00003112,0.00012590,0.,0.00000566,-0.00001693,0.,0.000023
 36,-0.00000909,0.,-0.00001821,0.00000296,0.,0.00001507,0.00001669,0.,0
 .00002637,0.00000663,0.,-0.00008670,-0.00006521,0.,0.00014860,-0.00005
 556,0.,0.00000679,0.00005666,0.,-0.00000554,-0.00000485,0.,-0.00003876
 ,-0.00000639,0.,-0.00000702,0.00001754,0.,0.00001173,0.00001970,0.,-0.
 00000867,0.00000301,0.,0.00001087,0.00000845,0.,0.00000698,-0.00000722
 ,0.,0.00000748,-0.00000908,0.,0.00149071,-0.00059695,0.,0.00189598,0.0
 0121073,0.,-0.00031869,0.00001104,0.,-0.00014333,0.00014886,0.,0.01829
 442,-0.01864627,0.,-0.00395225,-0.00310334,0.,-0.00076313,0.00018983,0
 .,-0.00144187,0.00114518,0.,-0.00393574,0.00623751,0.,0.13262904,-0.24
 626460,0.,-0.00001040,0.00001280,0.,0.00000897,-0.00001880,0.,0.000003
 01,-0.00000628,0.,0.00000975,-0.00000026,0.,-0.00000467,0.00000289,0.,
 0.00000274,-0.00000236,0.,0.00000168,0.00000038,0.,-0.00000010,-0.0000
 0184,0.,0.00000175,0.00000032,0.,0.00000168,0.00000245,0.,-0.00000218,
 0.00000119,0.,-0.00131477,0.00012917,0.,-0.00003022,-0.00003595,0.,-0.
 00007642,0.00003292,0.,0.00028605,0.00089718,0.,-0.14250292,0.25884862
 ,0.,0.,-0.00001471,0.,0.,-0.00003853,0.,0.,0.00000358,0.,0.,0.00005333
 ,0.,0.,0.00009761,0.,0.,-0.00084867,0.,0.,-0.00002074,0.,0.,-0.0000066
 1,0.,0.,-0.00000430,0.,0.,-0.00000087,0.,0.,0.00008160,0.,0.,0.0001201
 1,0.,0.,-0.00072916,0.,0.,0.00006092,0.,0.,0.00001456,0.,0.,-0.0000086
 7,0.,0.,-0.00002332,0.,0.,0.00005016,0.,0.,-0.00000138,0.,0.,-0.000004
 26,0.,0.,0.00000054,0.,0.,-0.00002352,0.,0.,0.00004850,0.,0.,-0.001912
 37,0.,0.,-0.00018007,0.,0.,-0.00000353,0.,0.,0.00265559,0.,0.,0.003733
 82,0.,0.,-0.00081898,0.,0.,0.01058509,0.,0.,0.00431072,0.,0.,-0.037136
 95,0.,0.,0.00001949,0.,0.,0.00000317,0.,0.,0.00000712,0.,0.,0.00025847
 ,0.,0.,0.00000144,0.,0.,0.00000320,0.,0.,-0.00000136,0.,0.,0.00000626,
 0.,0.,0.00000131,0.,0.,0.00000261,0.,0.,0.00000326,0.,0.,0.00023349,0.
 ,0.,0.00008112,0.,0.,0.00003826,0.,0.,-0.00589185,0.,0.,0.02519451\\0.
 00000142,-0.00000504,0.,-0.00000052,0.00000114,0.,-0.00000219,-0.00000
 129,0.,0.00000093,0.00000504,0.,-0.00000248,0.00000251,0.,0.00000095,-
 0.00000338,0.,-0.00000232,0.00000380,0.,0.00000426,-0.00000103,0.,-0.0
 0000026,0.00000026,0.,0.00000056,-0.00000377,0.,0.00000046,-0.00000047
 ,0.,0.00000054,0.00000217,0.,0.00000088,-0.00000234,0.,-0.00000230,0.0
 0000307,0.,0.00000550,-0.00000097,0.,-0.00000405,0.00000144,0.,-0.0000
 0254,0.00000617,0.,0.00000539,-0.00000427,0.,-0.00000395,-0.00000038,0
 .,-0.00000015,0.00000457,0.,0.00000351,-0.00000065,0.,-0.00000333,-0.0
 0000306,0.,0.00000192,-0.00000408,0.,-0.00000024,0.00000164,0.,0.00000
 060,-0.00000353,0.,-0.00000320,0.00000269,0.,0.00000335,-0.00000540,0.
 ,-0.00000448,0.00000001,0.,0.00000493,0.00000203,0.,-0.00000127,-0.000
 00525,0.,-0.00000211,0.00000354,0.,0.,0.00000255,0.,-0.00000099,0.0000
 0151,0.,0.00000027,-0.00000064,0.,0.00000164,0.00000062,0.,0.00000134,
 0.00000039,0.,-0.00000104,0.00000045,0.,0.00000069,0.00000007,0.,-0.00
 000050,0.00000134,0.,0.00000023,0.00000096,0.,0.00000015,0.00000059,0.
 ,-0.00000044,0.00000075,0.,-0.00000104,0.00000076,0.,-0.00000059,-0.00
 000044,0.,-0.00000049,-0.00000047,0.,0.00000119,-0.00000228,0.,0.00000
 056,-0.00000055,0.,-0.00000077,-0.00000078,0.\\\@


 SILVERMAN'S PARADOX - IF MURPHY'S LAW CAN GO WRONG, IT WILL.
 Job cpu time:       5 days 21 hours 20 minutes  2.5 seconds.
 File lengths (MBytes):  RWF=   4428 Int=      0 D2E=      0 Chk=     85 Scr=      1
 Normal termination of Gaussian 09 at Sun Jul 28 01:10:57 2019.
