 Entering Gaussian System, Link 0=g09
 Initial command:
 /home/minenky/programs//g09/l1.exe "/local/scratch/minenky/m1_00_129-00-0-C16H10_wB97XD/Gau-100645.inp" -scrdir="/local/scratch/minenky/m1_00_129-00-0-C16H10_wB97XD/"
 Entering Link 1 = /home/minenky/programs//g09/l1.exe PID=    100646.
  
 Copyright (c) 1988,1990,1992,1993,1995,1998,2003,2009,2013,
            Gaussian, Inc.  All Rights Reserved.
  
 This is part of the Gaussian(R) 09 program.  It is based on
 the Gaussian(R) 03 system (copyright 2003, Gaussian, Inc.),
 the Gaussian(R) 98 system (copyright 1998, Gaussian, Inc.),
 the Gaussian(R) 94 system (copyright 1995, Gaussian, Inc.),
 the Gaussian 92(TM) system (copyright 1992, Gaussian, Inc.),
 the Gaussian 90(TM) system (copyright 1990, Gaussian, Inc.),
 the Gaussian 88(TM) system (copyright 1988, Gaussian, Inc.),
 the Gaussian 86(TM) system (copyright 1986, Carnegie Mellon
 University), and the Gaussian 82(TM) system (copyright 1983,
 Carnegie Mellon University). Gaussian is a federally registered
 trademark of Gaussian, Inc.
  
 This software contains proprietary and confidential information,
 including trade secrets, belonging to Gaussian, Inc.
  
 This software is provided under written license and may be
 used, copied, transmitted, or stored only in accord with that
 written license.
  
 The following legend is applicable only to US Government
 contracts under FAR:
  
                    RESTRICTED RIGHTS LEGEND
  
 Use, reproduction and disclosure by the US Government is
 subject to restrictions as set forth in subparagraphs (a)
 and (c) of the Commercial Computer Software - Restricted
 Rights clause in FAR 52.227-19.
  
 Gaussian, Inc.
 340 Quinnipiac St., Bldg. 40, Wallingford CT 06492
  
  
 ---------------------------------------------------------------
 Warning -- This program may not be used in any manner that
 competes with the business of Gaussian, Inc. or will provide
 assistance to any competitor of Gaussian, Inc.  The licensee
 of this program is prohibited from giving any competitor of
 Gaussian, Inc. access to this program.  By using this program,
 the user acknowledges that Gaussian, Inc. is engaged in the
 business of creating and licensing software in the field of
 computational chemistry and represents and warrants to the
 licensee that it is not a competitor of Gaussian, Inc. and that
 it will not use this program in any manner prohibited above.
 ---------------------------------------------------------------
  

 Cite this work as:
 Gaussian 09, Revision D.01,
 M. J. Frisch, G. W. Trucks, H. B. Schlegel, G. E. Scuseria, 
 M. A. Robb, J. R. Cheeseman, G. Scalmani, V. Barone, B. Mennucci, 
 G. A. Petersson, H. Nakatsuji, M. Caricato, X. Li, H. P. Hratchian, 
 A. F. Izmaylov, J. Bloino, G. Zheng, J. L. Sonnenberg, M. Hada, 
 M. Ehara, K. Toyota, R. Fukuda, J. Hasegawa, M. Ishida, T. Nakajima, 
 Y. Honda, O. Kitao, H. Nakai, T. Vreven, J. A. Montgomery, Jr., 
 J. E. Peralta, F. Ogliaro, M. Bearpark, J. J. Heyd, E. Brothers, 
 K. N. Kudin, V. N. Staroverov, T. Keith, R. Kobayashi, J. Normand, 
 K. Raghavachari, A. Rendell, J. C. Burant, S. S. Iyengar, J. Tomasi, 
 M. Cossi, N. Rega, J. M. Millam, M. Klene, J. E. Knox, J. B. Cross, 
 V. Bakken, C. Adamo, J. Jaramillo, R. Gomperts, R. E. Stratmann, 
 O. Yazyev, A. J. Austin, R. Cammi, C. Pomelli, J. W. Ochterski, 
 R. L. Martin, K. Morokuma, V. G. Zakrzewski, G. A. Voth, 
 P. Salvador, J. J. Dannenberg, S. Dapprich, A. D. Daniels, 
 O. Farkas, J. B. Foresman, J. V. Ortiz, J. Cioslowski, 
 and D. J. Fox, Gaussian, Inc., Wallingford CT, 2013.
 
 ******************************************
 Gaussian 09:  AM64L-G09RevD.01 24-Apr-2013
                 9-Jul-2021 
 ******************************************
 %Mem=32000MB
 %NProcShared=16
 Will use up to   16 processors via shared memory.
 %Chk=m1_00_129-00-0-C16H10_wB97XD
 ----------------------------------------------------------------------
 #P wB97XD/def2tzvp opt=(tight) freq integral(Grid=ultrafine) # SCF(Max
 Cycle=380) 5d 7f GFPrint
 ----------------------------------------------------------------------
 1/7=10,14=-1,18=20,19=15,26=4,38=1/1,3;
 2/9=110,12=2,17=6,18=5,40=1/2;
 3/5=44,7=101,8=11,11=2,16=1,24=100,25=1,30=1,71=1,74=-58,75=-5/1,2,3;
 4//1;
 5/5=2,7=380,38=5/2;
 6/7=2,8=2,9=2,10=2,28=1/1;
 7//1,2,3,16;
 1/7=10,14=-1,18=20,19=15,26=4/3(2);
 2/9=110/2;
 99//99;
 2/9=110/2;
 3/5=44,7=101,8=11,11=2,16=1,25=1,30=1,71=1,74=-58,75=-5/1,2,3;
 4/5=5,16=3,69=1/1;
 5/5=2,7=380,38=5/2;
 7//1,2,3,16;
 1/7=10,14=-1,18=20,19=15,26=4/3(-5);
 2/9=110/2;
 6/7=2,8=2,9=2,10=2,19=2,28=1/1;
 99/9=1/99;
 Leave Link    1 at Fri Jul  9 19:19:35 2021, MaxMem=  4194304000 cpu:         0.6
 (Enter /home/minenky/programs//g09/l101.exe)
 ---------------------------------------
 The PBEPBE optimization and frequencies
 ---------------------------------------
 Symbolic Z-matrix:
 Charge =  0 Multiplicity = 1
 C                    -0.7102    0.        0. 
 C                     0.7102   0.         0. 
 C                     1.42274   1.23094  0. 
 C                     1.42274  -1.23094   0. 
 C                    -1.42274  -1.23095   0. 
 C                    -1.42274   1.23094   0. 
 C                     0.67756   2.45406   0. 
 C                     2.82072   1.20566   0. 
 C                     0.67757  -2.45406   0. 
 C                     2.82072  -1.20566  0. 
 C                    -0.67756  -2.45406   0. 
 C                    -2.82072  -1.20566  0. 
 C                    -0.67757   2.45405   0. 
 C                    -2.82073   1.20566   0. 
 C                     3.50839   0.        0. 
 C                    -3.50839   0.       0. 
 H                     1.22532   3.38859  0. 
 H                     3.36495   2.14205  0. 
 H                     1.22533  -3.38858   0. 
 H                     3.36495  -2.14205  -0.00001 
 H                    -1.22532  -3.38859   0. 
 H                    -3.36495  -2.14205   0. 
 H                    -1.22533   3.38858   0. 
 H                    -3.36494   2.14206   0.00001 
 H                     4.59081   0.        0. 
 H                    -4.59081  0.        0. 
 
 NAtoms=     26 NQM=       26 NQMF=       0 NMMI=      0 NMMIF=      0
                NMic=       0 NMicF=      0.
                    Isotopes and Nuclear Properties:
 (Nuclear quadrupole moments (NQMom) in fm**2, nuclear magnetic moments (NMagM)
  in nuclear magnetons)

  Atom         1           2           3           4           5           6           7           8           9          10
 IAtWgt=          12          12          12          12          12          12          12          12          12          12
 AtmWgt=  12.0000000  12.0000000  12.0000000  12.0000000  12.0000000  12.0000000  12.0000000  12.0000000  12.0000000  12.0000000
 NucSpn=           0           0           0           0           0           0           0           0           0           0
 AtZEff=   0.0000000   0.0000000   0.0000000   0.0000000   0.0000000   0.0000000   0.0000000   0.0000000   0.0000000   0.0000000
 NQMom=    0.0000000   0.0000000   0.0000000   0.0000000   0.0000000   0.0000000   0.0000000   0.0000000   0.0000000   0.0000000
 NMagM=    0.0000000   0.0000000   0.0000000   0.0000000   0.0000000   0.0000000   0.0000000   0.0000000   0.0000000   0.0000000
 AtZNuc=   6.0000000   6.0000000   6.0000000   6.0000000   6.0000000   6.0000000   6.0000000   6.0000000   6.0000000   6.0000000

  Atom        11          12          13          14          15          16          17          18          19          20
 IAtWgt=          12          12          12          12          12          12           1           1           1           1
 AtmWgt=  12.0000000  12.0000000  12.0000000  12.0000000  12.0000000  12.0000000   1.0078250   1.0078250   1.0078250   1.0078250
 NucSpn=           0           0           0           0           0           0           1           1           1           1
 AtZEff=   0.0000000   0.0000000   0.0000000   0.0000000   0.0000000   0.0000000   0.0000000   0.0000000   0.0000000   0.0000000
 NQMom=    0.0000000   0.0000000   0.0000000   0.0000000   0.0000000   0.0000000   0.0000000   0.0000000   0.0000000   0.0000000
 NMagM=    0.0000000   0.0000000   0.0000000   0.0000000   0.0000000   0.0000000   2.7928460   2.7928460   2.7928460   2.7928460
 AtZNuc=   6.0000000   6.0000000   6.0000000   6.0000000   6.0000000   6.0000000   1.0000000   1.0000000   1.0000000   1.0000000

  Atom        21          22          23          24          25          26
 IAtWgt=           1           1           1           1           1           1
 AtmWgt=   1.0078250   1.0078250   1.0078250   1.0078250   1.0078250   1.0078250
 NucSpn=           1           1           1           1           1           1
 AtZEff=   0.0000000   0.0000000   0.0000000   0.0000000   0.0000000   0.0000000
 NQMom=    0.0000000   0.0000000   0.0000000   0.0000000   0.0000000   0.0000000
 NMagM=    2.7928460   2.7928460   2.7928460   2.7928460   2.7928460   2.7928460
 AtZNuc=   1.0000000   1.0000000   1.0000000   1.0000000   1.0000000   1.0000000
 Leave Link  101 at Fri Jul  9 19:19:36 2021, MaxMem=  4194304000 cpu:         0.8
 (Enter /home/minenky/programs//g09/l103.exe)

 GradGradGradGradGradGradGradGradGradGradGradGradGradGradGradGradGradGrad
 Berny optimization.
 Initialization pass.
                           ----------------------------
                           !    Initial Parameters    !
                           ! (Angstroms and Degrees)  !
 --------------------------                            --------------------------
 ! Name  Definition              Value          Derivative Info.                !
 --------------------------------------------------------------------------------
 ! R1    R(1,2)                  1.4204         estimate D2E/DX2                !
 ! R2    R(1,5)                  1.4223         estimate D2E/DX2                !
 ! R3    R(1,6)                  1.4223         estimate D2E/DX2                !
 ! R4    R(2,3)                  1.4223         estimate D2E/DX2                !
 ! R5    R(2,4)                  1.4223         estimate D2E/DX2                !
 ! R6    R(3,7)                  1.4322         estimate D2E/DX2                !
 ! R7    R(3,8)                  1.3982         estimate D2E/DX2                !
 ! R8    R(4,9)                  1.4322         estimate D2E/DX2                !
 ! R9    R(4,10)                 1.3982         estimate D2E/DX2                !
 ! R10   R(5,11)                 1.4322         estimate D2E/DX2                !
 ! R11   R(5,12)                 1.3982         estimate D2E/DX2                !
 ! R12   R(6,13)                 1.4322         estimate D2E/DX2                !
 ! R13   R(6,14)                 1.3982         estimate D2E/DX2                !
 ! R14   R(7,13)                 1.3551         estimate D2E/DX2                !
 ! R15   R(7,17)                 1.0832         estimate D2E/DX2                !
 ! R16   R(8,15)                 1.388          estimate D2E/DX2                !
 ! R17   R(8,18)                 1.0831         estimate D2E/DX2                !
 ! R18   R(9,11)                 1.3551         estimate D2E/DX2                !
 ! R19   R(9,19)                 1.0832         estimate D2E/DX2                !
 ! R20   R(10,15)                1.388          estimate D2E/DX2                !
 ! R21   R(10,20)                1.0831         estimate D2E/DX2                !
 ! R22   R(11,21)                1.0832         estimate D2E/DX2                !
 ! R23   R(12,16)                1.388          estimate D2E/DX2                !
 ! R24   R(12,22)                1.0831         estimate D2E/DX2                !
 ! R25   R(13,23)                1.0832         estimate D2E/DX2                !
 ! R26   R(14,16)                1.388          estimate D2E/DX2                !
 ! R27   R(14,24)                1.0831         estimate D2E/DX2                !
 ! R28   R(15,25)                1.0824         estimate D2E/DX2                !
 ! R29   R(16,26)                1.0824         estimate D2E/DX2                !
 ! A1    A(2,1,5)              120.0644         estimate D2E/DX2                !
 ! A2    A(2,1,6)              120.0646         estimate D2E/DX2                !
 ! A3    A(5,1,6)              119.8711         estimate D2E/DX2                !
 ! A4    A(1,2,3)              120.0643         estimate D2E/DX2                !
 ! A5    A(1,2,4)              120.0646         estimate D2E/DX2                !
 ! A6    A(3,2,4)              119.8711         estimate D2E/DX2                !
 ! A7    A(2,3,7)              118.584          estimate D2E/DX2                !
 ! A8    A(2,3,8)              119.0285         estimate D2E/DX2                !
 ! A9    A(7,3,8)              122.3875         estimate D2E/DX2                !
 ! A10   A(2,4,9)              118.5839         estimate D2E/DX2                !
 ! A11   A(2,4,10)             119.0287         estimate D2E/DX2                !
 ! A12   A(9,4,10)             122.3874         estimate D2E/DX2                !
 ! A13   A(1,5,11)             118.5839         estimate D2E/DX2                !
 ! A14   A(1,5,12)             119.0285         estimate D2E/DX2                !
 ! A15   A(11,5,12)            122.3876         estimate D2E/DX2                !
 ! A16   A(1,6,13)             118.584          estimate D2E/DX2                !
 ! A17   A(1,6,14)             119.0287         estimate D2E/DX2                !
 ! A18   A(13,6,14)            122.3873         estimate D2E/DX2                !
 ! A19   A(3,7,13)             121.3515         estimate D2E/DX2                !
 ! A20   A(3,7,17)             118.2723         estimate D2E/DX2                !
 ! A21   A(13,7,17)            120.3761         estimate D2E/DX2                !
 ! A22   A(3,8,15)             120.735          estimate D2E/DX2                !
 ! A23   A(3,8,18)             119.129          estimate D2E/DX2                !
 ! A24   A(15,8,18)            120.136          estimate D2E/DX2                !
 ! A25   A(4,9,11)             121.3515         estimate D2E/DX2                !
 ! A26   A(4,9,19)             118.2724         estimate D2E/DX2                !
 ! A27   A(11,9,19)            120.3761         estimate D2E/DX2                !
 ! A28   A(4,10,15)            120.7348         estimate D2E/DX2                !
 ! A29   A(4,10,20)            119.129          estimate D2E/DX2                !
 ! A30   A(15,10,20)           120.1362         estimate D2E/DX2                !
 ! A31   A(5,11,9)             121.3517         estimate D2E/DX2                !
 ! A32   A(5,11,21)            118.2724         estimate D2E/DX2                !
 ! A33   A(9,11,21)            120.376          estimate D2E/DX2                !
 ! A34   A(5,12,16)            120.735          estimate D2E/DX2                !
 ! A35   A(5,12,22)            119.1293         estimate D2E/DX2                !
 ! A36   A(16,12,22)           120.1357         estimate D2E/DX2                !
 ! A37   A(6,13,7)             121.3515         estimate D2E/DX2                !
 ! A38   A(6,13,23)            118.2723         estimate D2E/DX2                !
 ! A39   A(7,13,23)            120.3762         estimate D2E/DX2                !
 ! A40   A(6,14,16)            120.7348         estimate D2E/DX2                !
 ! A41   A(6,14,24)            119.1288         estimate D2E/DX2                !
 ! A42   A(16,14,24)           120.1364         estimate D2E/DX2                !
 ! A43   A(8,15,10)            120.602          estimate D2E/DX2                !
 ! A44   A(8,15,25)            119.6991         estimate D2E/DX2                !
 ! A45   A(10,15,25)           119.6989         estimate D2E/DX2                !
 ! A46   A(12,16,14)           120.602          estimate D2E/DX2                !
 ! A47   A(12,16,26)           119.6989         estimate D2E/DX2                !
 ! A48   A(14,16,26)           119.6991         estimate D2E/DX2                !
 ! D1    D(5,1,2,3)            180.0            estimate D2E/DX2                !
 ! D2    D(5,1,2,4)              0.0            estimate D2E/DX2                !
 ! D3    D(6,1,2,3)              0.0            estimate D2E/DX2                !
 ! D4    D(6,1,2,4)            180.0            estimate D2E/DX2                !
 ! D5    D(2,1,5,11)             0.0            estimate D2E/DX2                !
 ! D6    D(2,1,5,12)          -179.9999         estimate D2E/DX2                !
 ! D7    D(6,1,5,11)          -180.0            estimate D2E/DX2                !
 ! D8    D(6,1,5,12)             0.0001         estimate D2E/DX2                !
 ! D9    D(2,1,6,13)             0.0            estimate D2E/DX2                !
 ! D10   D(2,1,6,14)          -180.0            estimate D2E/DX2                !
 ! D11   D(5,1,6,13)           180.0            estimate D2E/DX2                !
 ! D12   D(5,1,6,14)             0.0            estimate D2E/DX2                !
 ! D13   D(1,2,3,7)              0.0001         estimate D2E/DX2                !
 ! D14   D(1,2,3,8)            180.0            estimate D2E/DX2                !
 ! D15   D(4,2,3,7)           -179.9999         estimate D2E/DX2                !
 ! D16   D(4,2,3,8)              0.0            estimate D2E/DX2                !
 ! D17   D(1,2,4,9)              0.0001         estimate D2E/DX2                !
 ! D18   D(1,2,4,10)           179.9999         estimate D2E/DX2                !
 ! D19   D(3,2,4,9)           -179.9999         estimate D2E/DX2                !
 ! D20   D(3,2,4,10)            -0.0001         estimate D2E/DX2                !
 ! D21   D(2,3,7,13)             0.0            estimate D2E/DX2                !
 ! D22   D(2,3,7,17)          -179.9999         estimate D2E/DX2                !
 ! D23   D(8,3,7,13)          -179.9999         estimate D2E/DX2                !
 ! D24   D(8,3,7,17)             0.0003         estimate D2E/DX2                !
 ! D25   D(2,3,8,15)             0.0001         estimate D2E/DX2                !
 ! D26   D(2,3,8,18)           180.0            estimate D2E/DX2                !
 ! D27   D(7,3,8,15)           180.0            estimate D2E/DX2                !
 ! D28   D(7,3,8,18)            -0.0002         estimate D2E/DX2                !
 ! D29   D(2,4,9,11)            -0.0001         estimate D2E/DX2                !
 ! D30   D(2,4,9,19)           180.0            estimate D2E/DX2                !
 ! D31   D(10,4,9,11)         -180.0            estimate D2E/DX2                !
 ! D32   D(10,4,9,19)            0.0001         estimate D2E/DX2                !
 ! D33   D(2,4,10,15)            0.0002         estimate D2E/DX2                !
 ! D34   D(2,4,10,20)         -179.9997         estimate D2E/DX2                !
 ! D35   D(9,4,10,15)          180.0            estimate D2E/DX2                !
 ! D36   D(9,4,10,20)            0.0001         estimate D2E/DX2                !
 ! D37   D(1,5,11,9)            -0.0001         estimate D2E/DX2                !
 ! D38   D(1,5,11,21)          179.9998         estimate D2E/DX2                !
 ! D39   D(12,5,11,9)          179.9999         estimate D2E/DX2                !
 ! D40   D(12,5,11,21)          -0.0002         estimate D2E/DX2                !
 ! D41   D(1,5,12,16)           -0.0001         estimate D2E/DX2                !
 ! D42   D(1,5,12,22)         -179.9999         estimate D2E/DX2                !
 ! D43   D(11,5,12,16)         179.9999         estimate D2E/DX2                !
 ! D44   D(11,5,12,22)           0.0002         estimate D2E/DX2                !
 ! D45   D(1,6,13,7)             0.0001         estimate D2E/DX2                !
 ! D46   D(1,6,13,23)         -179.9999         estimate D2E/DX2                !
 ! D47   D(14,6,13,7)          180.0            estimate D2E/DX2                !
 ! D48   D(14,6,13,23)           0.0            estimate D2E/DX2                !
 ! D49   D(1,6,14,16)           -0.0001         estimate D2E/DX2                !
 ! D50   D(1,6,14,24)          179.9998         estimate D2E/DX2                !
 ! D51   D(13,6,14,16)         180.0            estimate D2E/DX2                !
 ! D52   D(13,6,14,24)          -0.0001         estimate D2E/DX2                !
 ! D53   D(3,7,13,6)            -0.0001         estimate D2E/DX2                !
 ! D54   D(3,7,13,23)          179.9999         estimate D2E/DX2                !
 ! D55   D(17,7,13,6)          179.9998         estimate D2E/DX2                !
 ! D56   D(17,7,13,23)          -0.0003         estimate D2E/DX2                !
 ! D57   D(3,8,15,10)            0.0            estimate D2E/DX2                !
 ! D58   D(3,8,15,25)         -180.0            estimate D2E/DX2                !
 ! D59   D(18,8,15,10)        -179.9999         estimate D2E/DX2                !
 ! D60   D(18,8,15,25)           0.0001         estimate D2E/DX2                !
 ! D61   D(4,9,11,5)             0.0001         estimate D2E/DX2                !
 ! D62   D(4,9,11,21)         -179.9998         estimate D2E/DX2                !
 ! D63   D(19,9,11,5)         -180.0            estimate D2E/DX2                !
 ! D64   D(19,9,11,21)           0.0001         estimate D2E/DX2                !
 ! D65   D(4,10,15,8)           -0.0001         estimate D2E/DX2                !
 ! D66   D(4,10,15,25)         179.9998         estimate D2E/DX2                !
 ! D67   D(20,10,15,8)         179.9998         estimate D2E/DX2                !
 ! D68   D(20,10,15,25)         -0.0003         estimate D2E/DX2                !
 ! D69   D(5,12,16,14)           0.0            estimate D2E/DX2                !
 ! D70   D(5,12,16,26)         180.0            estimate D2E/DX2                !
 ! D71   D(22,12,16,14)        179.9998         estimate D2E/DX2                !
 ! D72   D(22,12,16,26)         -0.0003         estimate D2E/DX2                !
 ! D73   D(6,14,16,12)           0.0001         estimate D2E/DX2                !
 ! D74   D(6,14,16,26)        -179.9998         estimate D2E/DX2                !
 ! D75   D(24,14,16,12)       -179.9998         estimate D2E/DX2                !
 ! D76   D(24,14,16,26)          0.0003         estimate D2E/DX2                !
 --------------------------------------------------------------------------------
 Trust Radius=3.00D-01 FncErr=1.00D-07 GrdErr=1.00D-06
 Number of steps in this run=    156 maximum allowed number of steps=    156.
 GradGradGradGradGradGradGradGradGradGradGradGradGradGradGradGradGradGrad

 Leave Link  103 at Fri Jul  9 19:19:36 2021, MaxMem=  4194304000 cpu:         0.0
 (Enter /home/minenky/programs//g09/l202.exe)
                          Input orientation:                          
 ---------------------------------------------------------------------
 Center     Atomic      Atomic             Coordinates (Angstroms)
 Number     Number       Type             X           Y           Z
 ---------------------------------------------------------------------
      1          6           0       -0.710203    0.000001    0.000000
      2          6           0        0.710203   -0.000001    0.000000
      3          6           0        1.422735    1.230944   -0.000001
      4          6           0        1.422737   -1.230941    0.000001
      5          6           0       -1.422737   -1.230945    0.000000
      6          6           0       -1.422735    1.230940    0.000000
      7          6           0        0.677563    2.454055    0.000000
      8          6           0        2.820723    1.205665    0.000000
      9          6           0        0.677565   -2.454055    0.000000
     10          6           0        2.820724   -1.205664   -0.000001
     11          6           0       -0.677563   -2.454055    0.000001
     12          6           0       -2.820721   -1.205665   -0.000002
     13          6           0       -0.677565    2.454054    0.000001
     14          6           0       -2.820725    1.205664    0.000001
     15          6           0        3.508394    0.000002    0.000000
     16          6           0       -3.508394    0.000001   -0.000001
     17          1           0        1.225325    3.388586   -0.000003
     18          1           0        3.364947    2.142053   -0.000001
     19          1           0        1.225327   -3.388585    0.000000
     20          1           0        3.364947   -2.142052   -0.000005
     21          1           0       -1.225323   -3.388587    0.000004
     22          1           0       -3.364951   -2.142050    0.000000
     23          1           0       -1.225330    3.388583    0.000003
     24          1           0       -3.364944    2.142055    0.000005
     25          1           0        4.590805    0.000001    0.000001
     26          1           0       -4.590805   -0.000001   -0.000003
 ---------------------------------------------------------------------
                    Distance matrix (angstroms):
                    1          2          3          4          5
     1  C    0.000000
     2  C    1.420406   0.000000
     3  C    2.462650   1.422297   0.000000
     4  C    2.462651   1.422293   2.461885   0.000000
     5  C    1.422298   2.462652   3.762660   2.845474   0.000000
     6  C    1.422291   2.462649   2.845470   3.762655   2.461885
     7  C    2.819269   2.454273   1.432230   3.759585   4.241519
     8  C    3.731094   2.430622   1.398217   2.809166   4.893263
     9  C    2.819271   2.454271   3.759587   1.432232   2.430487
    10  C    3.731095   2.430622   2.809169   1.398215   4.243536
    11  C    2.454273   2.819269   4.241517   2.430487   1.432230
    12  C    2.430621   3.731092   4.893259   4.243533   1.398213
    13  C    2.454270   2.819270   2.430485   4.241516   3.759588
    14  C    2.430623   3.731096   4.243535   4.893262   2.809170
    15  C    4.218597   2.798191   2.421816   2.421815   5.082449
    16  C    2.798191   4.218597   5.082446   5.082447   2.421816
    17  H    3.902407   3.427517   2.166654   4.623743   5.324688
    18  H    4.603828   3.411167   2.145299   3.892206   5.856538
    19  H    3.902408   3.427514   4.623745   2.166656   3.415795
    20  H    4.603829   3.411165   3.892209   2.145298   4.873606
    21  H    3.427518   3.902406   5.324686   3.415795   2.166654
    22  H    3.411168   4.603830   5.856537   4.873610   2.145299
    23  H    3.427513   3.902408   3.415795   5.324684   4.623744
    24  H    3.411165   4.603827   4.873602   5.856534   3.892210
    25  H    5.301008   3.880602   3.398807   3.398805   6.138234
    26  H    3.880602   5.301008   6.138232   6.138233   3.398805
                    6          7          8          9         10
     6  C    0.000000
     7  C    2.430486   0.000000
     8  C    4.243533   2.480244   0.000000
     9  C    4.241515   4.908110   4.241070   0.000000
    10  C    4.893259   4.241071   2.411329   2.480244   0.000000
    11  C    3.759584   5.091749   5.062762   1.355128   3.714363
    12  C    2.809165   5.062760   6.135177   3.714362   5.641445
    13  C    1.432231   1.355128   3.714363   5.091749   5.062762
    14  C    1.398218   3.714364   5.641448   5.062764   6.135181
    15  C    5.082444   3.746462   1.387989   3.746463   1.387992
    16  C    2.421814   4.852280   6.442930   4.852282   6.442931
    17  H    3.415795   1.083232   2.703782   5.868262   4.863377
    18  H    4.873605   2.705435   1.083052   5.324118   3.391664
    19  H    5.324682   5.868261   4.863376   1.083231   2.703782
    20  H    5.856533   5.324118   3.391665   2.705433   1.083052
    21  H    4.623743   6.144708   6.121898   2.119984   4.597352
    22  H    3.892206   6.120956   7.033474   4.054539   6.256148
    23  H    2.166655   2.119987   4.597355   6.144707   6.121900
    24  H    2.145299   4.054529   6.256141   6.120956   7.033471
    25  H    6.138231   4.619074   2.141685   4.619073   2.141685
    26  H    3.398806   5.811892   7.508953   5.811893   7.508954
                   11         12         13         14         15
    11  C    0.000000
    12  C    2.480243   0.000000
    13  C    4.908109   4.241068   0.000000
    14  C    4.241071   2.411329   2.480244   0.000000
    15  C    4.852281   6.442929   4.852280   6.442932   0.000000
    16  C    3.746464   1.387993   3.746461   1.387988   7.016788
    17  H    6.144708   6.121898   2.119986   4.597355   4.085940
    18  H    6.120955   7.033470   4.054534   6.256146   2.146849
    19  H    2.119985   4.597352   6.144707   6.121900   4.085941
    20  H    4.054532   6.256142   6.120955   7.033473   2.146852
    21  H    1.083232   2.703783   5.868261   4.863378   5.821564
    22  H    2.705439   1.083053   5.324116   3.391662   7.199393
    23  H    5.868259   4.863372   1.083232   2.703779   5.821565
    24  H    5.324119   3.391667   2.705430   1.083052   7.199387
    25  H    5.811892   7.508951   5.811893   7.508955   1.082411
    26  H    4.619074   2.141687   4.619073   2.141684   8.099199
                   16         17         18         19         20
    16  C    0.000000
    17  H    5.821564   0.000000
    18  H    7.199389   2.476253   0.000000
    19  H    5.821566   6.777171   5.930087   0.000000
    20  H    7.199389   5.930088   4.284105   2.476251   0.000000
    21  H    4.085944   7.206646   7.187389   2.450650   4.756514
    22  H    2.146848   7.187390   7.977786   4.756522   6.729898
    23  H    4.085936   2.450655   4.756520   7.206645   7.187389
    24  H    2.146852   4.756512   6.729891   7.187389   7.977782
    25  H    8.099199   4.775873   2.468018   4.775872   2.468019
    26  H    1.082411   6.731262   8.239077   6.731262   8.239076
                   21         22         23         24         25
    21  H    0.000000
    22  H    2.476260   0.000000
    23  H    6.777170   5.930083   0.000000
    24  H    5.930091   4.284105   2.476243   0.000000
    25  H    6.731261   8.239080   6.731264   8.239074   0.000000
    26  H    4.775875   2.468014   4.775869   2.468023   9.181610
                   26
    26  H    0.000000
 Stoichiometry    C16H10
 Framework group  C1[X(C16H10)]
 Deg. of freedom    72
 Full point group                 C1      NOp   1
 Largest Abelian subgroup         C1      NOp   1
 Largest concise Abelian subgroup C1      NOp   1
                         Standard orientation:                         
 ---------------------------------------------------------------------
 Center     Atomic      Atomic             Coordinates (Angstroms)
 Number     Number       Type             X           Y           Z
 ---------------------------------------------------------------------
      1          6           0        0.710203   -0.000001    0.000000
      2          6           0       -0.710203    0.000001    0.000000
      3          6           0       -1.422735   -1.230944   -0.000001
      4          6           0       -1.422737    1.230941    0.000001
      5          6           0        1.422737    1.230945    0.000000
      6          6           0        1.422735   -1.230940    0.000000
      7          6           0       -0.677563   -2.454055    0.000000
      8          6           0       -2.820723   -1.205665    0.000000
      9          6           0       -0.677565    2.454055    0.000000
     10          6           0       -2.820724    1.205664   -0.000001
     11          6           0        0.677563    2.454055    0.000001
     12          6           0        2.820721    1.205665   -0.000002
     13          6           0        0.677565   -2.454054    0.000001
     14          6           0        2.820725   -1.205664    0.000001
     15          6           0       -3.508394   -0.000002    0.000000
     16          6           0        3.508394   -0.000001   -0.000001
     17          1           0       -1.225325   -3.388586   -0.000003
     18          1           0       -3.364947   -2.142053   -0.000001
     19          1           0       -1.225327    3.388585    0.000000
     20          1           0       -3.364947    2.142052   -0.000005
     21          1           0        1.225323    3.388587    0.000004
     22          1           0        3.364951    2.142050    0.000000
     23          1           0        1.225330   -3.388583    0.000003
     24          1           0        3.364944   -2.142055    0.000005
     25          1           0       -4.590805   -0.000001    0.000001
     26          1           0        4.590805    0.000001   -0.000003
 ---------------------------------------------------------------------
 Rotational constants (GHZ):      1.0181586      0.5597878      0.3611991
 Leave Link  202 at Fri Jul  9 19:19:36 2021, MaxMem=  4194304000 cpu:         0.7
 (Enter /home/minenky/programs//g09/l301.exe)
 Standard basis: def2TZVP (5D, 7F)
 ======================================================================================================
                                       Pseudopotential Parameters
 ======================================================================================================
  Center     Atomic      Valence      Angular      Power
  Number     Number     Electrons     Momentum     of R      Exponent        Coefficient   SO-Coeffient
 ======================================================================================================
    1          6
                                   No pseudopotential on this center.
    2          6
                                   No pseudopotential on this center.
    3          6
                                   No pseudopotential on this center.
    4          6
                                   No pseudopotential on this center.
    5          6
                                   No pseudopotential on this center.
    6          6
                                   No pseudopotential on this center.
    7          6
                                   No pseudopotential on this center.
    8          6
                                   No pseudopotential on this center.
    9          6
                                   No pseudopotential on this center.
   10          6
                                   No pseudopotential on this center.
   11          6
                                   No pseudopotential on this center.
   12          6
                                   No pseudopotential on this center.
   13          6
                                   No pseudopotential on this center.
   14          6
                                   No pseudopotential on this center.
   15          6
                                   No pseudopotential on this center.
   16          6
                                   No pseudopotential on this center.
   17          1
                                   No pseudopotential on this center.
   18          1
                                   No pseudopotential on this center.
   19          1
                                   No pseudopotential on this center.
   20          1
                                   No pseudopotential on this center.
   21          1
                                   No pseudopotential on this center.
   22          1
                                   No pseudopotential on this center.
   23          1
                                   No pseudopotential on this center.
   24          1
                                   No pseudopotential on this center.
   25          1
                                   No pseudopotential on this center.
   26          1
                                   No pseudopotential on this center.
 ======================================================================================================
 Ernie: Thresh=  0.10000D-02 Tol=  0.10000D-05 Strict=F.
 AO basis set (Overlap normalization):
 Atom C1       Shell     1 S   6     bf    1 -     1          1.342089240064         -0.000001897967          0.000000089138
      0.1357534968D+05  0.6064550360D-03
      0.2035233368D+04  0.4697908888D-02
      0.4632256236D+03  0.2433247765D-01
      0.1312001960D+03  0.9739996831D-01
      0.4285301589D+02  0.3019558425D+00
      0.1558418577D+02  0.6623360914D+00
 Atom C1       Shell     2 S   2     bf    2 -     2          1.342089240064         -0.000001897967          0.000000089138
      0.6206713851D+01  0.6559530854D+00
      0.2576489653D+01  0.3758563329D+00
 Atom C1       Shell     3 S   1     bf    3 -     3          1.342089240064         -0.000001897967          0.000000089138
      0.5769633942D+00  0.1000000000D+01
 Atom C1       Shell     4 S   1     bf    4 -     4          1.342089240064         -0.000001897967          0.000000089138
      0.2297283136D+00  0.1000000000D+01
 Atom C1       Shell     5 S   1     bf    5 -     5          1.342089240064         -0.000001897967          0.000000089138
      0.9516444003D-01  0.1000000000D+01
 Atom C1       Shell     6 P   4     bf    6 -     8          1.342089240064         -0.000001897967          0.000000089138
      0.3469723224D+02  0.1132722000D-01
      0.7958262283D+01  0.7616965920D-01
      0.2378082688D+01  0.3019225220D+00
      0.8143320818D+00  0.7278502735D+00
 Atom C1       Shell     7 P   1     bf    9 -    11          1.342089240064         -0.000001897967          0.000000089138
      0.2888754725D+00  0.1000000000D+01
 Atom C1       Shell     8 P   1     bf   12 -    14          1.342089240064         -0.000001897967          0.000000089138
      0.1005682367D+00  0.1000000000D+01
 Atom C1       Shell     9 D   1     bf   15 -    19          1.342089240064         -0.000001897967          0.000000089138
      0.1097000000D+01  0.1000000000D+01
 Atom C1       Shell    10 D   1     bf   20 -    24          1.342089240064         -0.000001897967          0.000000089138
      0.3180000000D+00  0.1000000000D+01
 Atom C1       Shell    11 F   1     bf   25 -    31          1.342089240064         -0.000001897967          0.000000089138
      0.7610000000D+00  0.1000000000D+01
 Atom C2       Shell    12 S   6     bf   32 -    32         -1.342089097443          0.000002004933          0.000000089138
      0.1357534968D+05  0.6064550360D-03
      0.2035233368D+04  0.4697908888D-02
      0.4632256236D+03  0.2433247765D-01
      0.1312001960D+03  0.9739996831D-01
      0.4285301589D+02  0.3019558425D+00
      0.1558418577D+02  0.6623360914D+00
 Atom C2       Shell    13 S   2     bf   33 -    33         -1.342089097443          0.000002004933          0.000000089138
      0.6206713851D+01  0.6559530854D+00
      0.2576489653D+01  0.3758563329D+00
 Atom C2       Shell    14 S   1     bf   34 -    34         -1.342089097443          0.000002004933          0.000000089138
      0.5769633942D+00  0.1000000000D+01
 Atom C2       Shell    15 S   1     bf   35 -    35         -1.342089097443          0.000002004933          0.000000089138
      0.2297283136D+00  0.1000000000D+01
 Atom C2       Shell    16 S   1     bf   36 -    36         -1.342089097443          0.000002004933          0.000000089138
      0.9516444003D-01  0.1000000000D+01
 Atom C2       Shell    17 P   4     bf   37 -    39         -1.342089097443          0.000002004933          0.000000089138
      0.3469723224D+02  0.1132722000D-01
      0.7958262283D+01  0.7616965920D-01
      0.2378082688D+01  0.3019225220D+00
      0.8143320818D+00  0.7278502735D+00
 Atom C2       Shell    18 P   1     bf   40 -    42         -1.342089097443          0.000002004933          0.000000089138
      0.2888754725D+00  0.1000000000D+01
 Atom C2       Shell    19 P   1     bf   43 -    45         -1.342089097443          0.000002004933          0.000000089138
      0.1005682367D+00  0.1000000000D+01
 Atom C2       Shell    20 D   1     bf   46 -    50         -1.342089097443          0.000002004933          0.000000089138
      0.1097000000D+01  0.1000000000D+01
 Atom C2       Shell    21 D   1     bf   51 -    55         -1.342089097443          0.000002004933          0.000000089138
      0.3180000000D+00  0.1000000000D+01
 Atom C2       Shell    22 F   1     bf   56 -    62         -1.342089097443          0.000002004933          0.000000089138
      0.7610000000D+00  0.1000000000D+01
 Atom C3       Shell    23 S   6     bf   63 -    63         -2.688579545342         -2.326146867786         -0.000001800588
      0.1357534968D+05  0.6064550360D-03
      0.2035233368D+04  0.4697908888D-02
      0.4632256236D+03  0.2433247765D-01
      0.1312001960D+03  0.9739996831D-01
      0.4285301589D+02  0.3019558425D+00
      0.1558418577D+02  0.6623360914D+00
 Atom C3       Shell    24 S   2     bf   64 -    64         -2.688579545342         -2.326146867786         -0.000001800588
      0.6206713851D+01  0.6559530854D+00
      0.2576489653D+01  0.3758563329D+00
 Atom C3       Shell    25 S   1     bf   65 -    65         -2.688579545342         -2.326146867786         -0.000001800588
      0.5769633942D+00  0.1000000000D+01
 Atom C3       Shell    26 S   1     bf   66 -    66         -2.688579545342         -2.326146867786         -0.000001800588
      0.2297283136D+00  0.1000000000D+01
 Atom C3       Shell    27 S   1     bf   67 -    67         -2.688579545342         -2.326146867786         -0.000001800588
      0.9516444003D-01  0.1000000000D+01
 Atom C3       Shell    28 P   4     bf   68 -    70         -2.688579545342         -2.326146867786         -0.000001800588
      0.3469723224D+02  0.1132722000D-01
      0.7958262283D+01  0.7616965920D-01
      0.2378082688D+01  0.3019225220D+00
      0.8143320818D+00  0.7278502735D+00
 Atom C3       Shell    29 P   1     bf   71 -    73         -2.688579545342         -2.326146867786         -0.000001800588
      0.2888754725D+00  0.1000000000D+01
 Atom C3       Shell    30 P   1     bf   74 -    76         -2.688579545342         -2.326146867786         -0.000001800588
      0.1005682367D+00  0.1000000000D+01
 Atom C3       Shell    31 D   1     bf   77 -    81         -2.688579545342         -2.326146867786         -0.000001800588
      0.1097000000D+01  0.1000000000D+01
 Atom C3       Shell    32 D   1     bf   82 -    86         -2.688579545342         -2.326146867786         -0.000001800588
      0.3180000000D+00  0.1000000000D+01
 Atom C3       Shell    33 F   1     bf   87 -    93         -2.688579545342         -2.326146867786         -0.000001800588
      0.7610000000D+00  0.1000000000D+01
 Atom C4       Shell    34 S   6     bf   94 -    94         -2.688583110832          2.326141552873          0.000001978864
      0.1357534968D+05  0.6064550360D-03
      0.2035233368D+04  0.4697908888D-02
      0.4632256236D+03  0.2433247765D-01
      0.1312001960D+03  0.9739996831D-01
      0.4285301589D+02  0.3019558425D+00
      0.1558418577D+02  0.6623360914D+00
 Atom C4       Shell    35 S   2     bf   95 -    95         -2.688583110832          2.326141552873          0.000001978864
      0.6206713851D+01  0.6559530854D+00
      0.2576489653D+01  0.3758563329D+00
 Atom C4       Shell    36 S   1     bf   96 -    96         -2.688583110832          2.326141552873          0.000001978864
      0.5769633942D+00  0.1000000000D+01
 Atom C4       Shell    37 S   1     bf   97 -    97         -2.688583110832          2.326141552873          0.000001978864
      0.2297283136D+00  0.1000000000D+01
 Atom C4       Shell    38 S   1     bf   98 -    98         -2.688583110832          2.326141552873          0.000001978864
      0.9516444003D-01  0.1000000000D+01
 Atom C4       Shell    39 P   4     bf   99 -   101         -2.688583110832          2.326141552873          0.000001978864
      0.3469723224D+02  0.1132722000D-01
      0.7958262283D+01  0.7616965920D-01
      0.2378082688D+01  0.3019225220D+00
      0.8143320818D+00  0.7278502735D+00
 Atom C4       Shell    40 P   1     bf  102 -   104         -2.688583110832          2.326141552873          0.000001978864
      0.2888754725D+00  0.1000000000D+01
 Atom C4       Shell    41 P   1     bf  105 -   107         -2.688583110832          2.326141552873          0.000001978864
      0.1005682367D+00  0.1000000000D+01
 Atom C4       Shell    42 D   1     bf  108 -   112         -2.688583110832          2.326141552873          0.000001978864
      0.1097000000D+01  0.1000000000D+01
 Atom C4       Shell    43 D   1     bf  113 -   117         -2.688583110832          2.326141552873          0.000001978864
      0.3180000000D+00  0.1000000000D+01
 Atom C4       Shell    44 F   1     bf  118 -   124         -2.688583110832          2.326141552873          0.000001978864
      0.7610000000D+00  0.1000000000D+01
 Atom C5       Shell    45 S   6     bf  125 -   125          2.688583467415          2.326148864478          0.000000089138
      0.1357534968D+05  0.6064550360D-03
      0.2035233368D+04  0.4697908888D-02
      0.4632256236D+03  0.2433247765D-01
      0.1312001960D+03  0.9739996831D-01
      0.4285301589D+02  0.3019558425D+00
      0.1558418577D+02  0.6623360914D+00
 Atom C5       Shell    46 S   2     bf  126 -   126          2.688583467415          2.326148864478          0.000000089138
      0.6206713851D+01  0.6559530854D+00
      0.2576489653D+01  0.3758563329D+00
 Atom C5       Shell    47 S   1     bf  127 -   127          2.688583467415          2.326148864478          0.000000089138
      0.5769633942D+00  0.1000000000D+01
 Atom C5       Shell    48 S   1     bf  128 -   128          2.688583467415          2.326148864478          0.000000089138
      0.2297283136D+00  0.1000000000D+01
 Atom C5       Shell    49 S   1     bf  129 -   129          2.688583467415          2.326148864478          0.000000089138
      0.9516444003D-01  0.1000000000D+01
 Atom C5       Shell    50 P   4     bf  130 -   132          2.688583467415          2.326148864478          0.000000089138
      0.3469723224D+02  0.1132722000D-01
      0.7958262283D+01  0.7616965920D-01
      0.2378082688D+01  0.3019225220D+00
      0.8143320818D+00  0.7278502735D+00
 Atom C5       Shell    51 P   1     bf  133 -   135          2.688583467415          2.326148864478          0.000000089138
      0.2888754725D+00  0.1000000000D+01
 Atom C5       Shell    52 P   1     bf  136 -   138          2.688583467415          2.326148864478          0.000000089138
      0.1005682367D+00  0.1000000000D+01
 Atom C5       Shell    53 D   1     bf  139 -   143          2.688583467415          2.326148864478          0.000000089138
      0.1097000000D+01  0.1000000000D+01
 Atom C5       Shell    54 D   1     bf  144 -   148          2.688583467415          2.326148864478          0.000000089138
      0.3180000000D+00  0.1000000000D+01
 Atom C5       Shell    55 F   1     bf  149 -   155          2.688583467415          2.326148864478          0.000000089138
      0.7610000000D+00  0.1000000000D+01
 Atom C6       Shell    56 S   6     bf  156 -   156          2.688579474001         -2.326139556181          0.000000089138
      0.1357534968D+05  0.6064550360D-03
      0.2035233368D+04  0.4697908888D-02
      0.4632256236D+03  0.2433247765D-01
      0.1312001960D+03  0.9739996831D-01
      0.4285301589D+02  0.3019558425D+00
      0.1558418577D+02  0.6623360914D+00
 Atom C6       Shell    57 S   2     bf  157 -   157          2.688579474001         -2.326139556181          0.000000089138
      0.6206713851D+01  0.6559530854D+00
      0.2576489653D+01  0.3758563329D+00
 Atom C6       Shell    58 S   1     bf  158 -   158          2.688579474001         -2.326139556181          0.000000089138
      0.5769633942D+00  0.1000000000D+01
 Atom C6       Shell    59 S   1     bf  159 -   159          2.688579474001         -2.326139556181          0.000000089138
      0.2297283136D+00  0.1000000000D+01
 Atom C6       Shell    60 S   1     bf  160 -   160          2.688579474001         -2.326139556181          0.000000089138
      0.9516444003D-01  0.1000000000D+01
 Atom C6       Shell    61 P   4     bf  161 -   163          2.688579474001         -2.326139556181          0.000000089138
      0.3469723224D+02  0.1132722000D-01
      0.7958262283D+01  0.7616965920D-01
      0.2378082688D+01  0.3019225220D+00
      0.8143320818D+00  0.7278502735D+00
 Atom C6       Shell    62 P   1     bf  164 -   166          2.688579474001         -2.326139556181          0.000000089138
      0.2888754725D+00  0.1000000000D+01
 Atom C6       Shell    63 P   1     bf  167 -   169          2.688579474001         -2.326139556181          0.000000089138
      0.1005682367D+00  0.1000000000D+01
 Atom C6       Shell    64 D   1     bf  170 -   174          2.688579474001         -2.326139556181          0.000000089138
      0.1097000000D+01  0.1000000000D+01
 Atom C6       Shell    65 D   1     bf  175 -   179          2.688579474001         -2.326139556181          0.000000089138
      0.3180000000D+00  0.1000000000D+01
 Atom C6       Shell    66 F   1     bf  180 -   186          2.688579474001         -2.326139556181          0.000000089138
      0.7610000000D+00  0.1000000000D+01
 Atom C7       Shell    67 S   6     bf  187 -   187         -1.280408649748         -4.637491752669          0.000000089138
      0.1357534968D+05  0.6064550360D-03
      0.2035233368D+04  0.4697908888D-02
      0.4632256236D+03  0.2433247765D-01
      0.1312001960D+03  0.9739996831D-01
      0.4285301589D+02  0.3019558425D+00
      0.1558418577D+02  0.6623360914D+00
 Atom C7       Shell    68 S   2     bf  188 -   188         -1.280408649748         -4.637491752669          0.000000089138
      0.6206713851D+01  0.6559530854D+00
      0.2576489653D+01  0.3758563329D+00
 Atom C7       Shell    69 S   1     bf  189 -   189         -1.280408649748         -4.637491752669          0.000000089138
      0.5769633942D+00  0.1000000000D+01
 Atom C7       Shell    70 S   1     bf  190 -   190         -1.280408649748         -4.637491752669          0.000000089138
      0.2297283136D+00  0.1000000000D+01
 Atom C7       Shell    71 S   1     bf  191 -   191         -1.280408649748         -4.637491752669          0.000000089138
      0.9516444003D-01  0.1000000000D+01
 Atom C7       Shell    72 P   4     bf  192 -   194         -1.280408649748         -4.637491752669          0.000000089138
      0.3469723224D+02  0.1132722000D-01
      0.7958262283D+01  0.7616965920D-01
      0.2378082688D+01  0.3019225220D+00
      0.8143320818D+00  0.7278502735D+00
 Atom C7       Shell    73 P   1     bf  195 -   197         -1.280408649748         -4.637491752669          0.000000089138
      0.2888754725D+00  0.1000000000D+01
 Atom C7       Shell    74 P   1     bf  198 -   200         -1.280408649748         -4.637491752669          0.000000089138
      0.1005682367D+00  0.1000000000D+01
 Atom C7       Shell    75 D   1     bf  201 -   205         -1.280408649748         -4.637491752669          0.000000089138
      0.1097000000D+01  0.1000000000D+01
 Atom C7       Shell    76 D   1     bf  206 -   210         -1.280408649748         -4.637491752669          0.000000089138
      0.3180000000D+00  0.1000000000D+01
 Atom C7       Shell    77 F   1     bf  211 -   217         -1.280408649748         -4.637491752669          0.000000089138
      0.7610000000D+00  0.1000000000D+01
 Atom C8       Shell    78 S   6     bf  218 -   218         -5.330394000205         -2.278376359374          0.000000089138
      0.1357534968D+05  0.6064550360D-03
      0.2035233368D+04  0.4697908888D-02
      0.4632256236D+03  0.2433247765D-01
      0.1312001960D+03  0.9739996831D-01
      0.4285301589D+02  0.3019558425D+00
      0.1558418577D+02  0.6623360914D+00
 Atom C8       Shell    79 S   2     bf  219 -   219         -5.330394000205         -2.278376359374          0.000000089138
      0.6206713851D+01  0.6559530854D+00
      0.2576489653D+01  0.3758563329D+00
 Atom C8       Shell    80 S   1     bf  220 -   220         -5.330394000205         -2.278376359374          0.000000089138
      0.5769633942D+00  0.1000000000D+01
 Atom C8       Shell    81 S   1     bf  221 -   221         -5.330394000205         -2.278376359374          0.000000089138
      0.2297283136D+00  0.1000000000D+01
 Atom C8       Shell    82 S   1     bf  222 -   222         -5.330394000205         -2.278376359374          0.000000089138
      0.9516444003D-01  0.1000000000D+01
 Atom C8       Shell    83 P   4     bf  223 -   225         -5.330394000205         -2.278376359374          0.000000089138
      0.3469723224D+02  0.1132722000D-01
      0.7958262283D+01  0.7616965920D-01
      0.2378082688D+01  0.3019225220D+00
      0.8143320818D+00  0.7278502735D+00
 Atom C8       Shell    84 P   1     bf  226 -   228         -5.330394000205         -2.278376359374          0.000000089138
      0.2888754725D+00  0.1000000000D+01
 Atom C8       Shell    85 P   1     bf  229 -   231         -5.330394000205         -2.278376359374          0.000000089138
      0.1005682367D+00  0.1000000000D+01
 Atom C8       Shell    86 D   1     bf  232 -   236         -5.330394000205         -2.278376359374          0.000000089138
      0.1097000000D+01  0.1000000000D+01
 Atom C8       Shell    87 D   1     bf  237 -   241         -5.330394000205         -2.278376359374          0.000000089138
      0.3180000000D+00  0.1000000000D+01
 Atom C8       Shell    88 F   1     bf  242 -   248         -5.330394000205         -2.278376359374          0.000000089138
      0.7610000000D+00  0.1000000000D+01
 Atom C9       Shell    89 S   6     bf  249 -   249         -1.280412002636          4.637491977409          0.000000089138
      0.1357534968D+05  0.6064550360D-03
      0.2035233368D+04  0.4697908888D-02
      0.4632256236D+03  0.2433247765D-01
      0.1312001960D+03  0.9739996831D-01
      0.4285301589D+02  0.3019558425D+00
      0.1558418577D+02  0.6623360914D+00
 Atom C9       Shell    90 S   2     bf  250 -   250         -1.280412002636          4.637491977409          0.000000089138
      0.6206713851D+01  0.6559530854D+00
      0.2576489653D+01  0.3758563329D+00
 Atom C9       Shell    91 S   1     bf  251 -   251         -1.280412002636          4.637491977409          0.000000089138
      0.5769633942D+00  0.1000000000D+01
 Atom C9       Shell    92 S   1     bf  252 -   252         -1.280412002636          4.637491977409          0.000000089138
      0.2297283136D+00  0.1000000000D+01
 Atom C9       Shell    93 S   1     bf  253 -   253         -1.280412002636          4.637491977409          0.000000089138
      0.9516444003D-01  0.1000000000D+01
 Atom C9       Shell    94 P   4     bf  254 -   256         -1.280412002636          4.637491977409          0.000000089138
      0.3469723224D+02  0.1132722000D-01
      0.7958262283D+01  0.7616965920D-01
      0.2378082688D+01  0.3019225220D+00
      0.8143320818D+00  0.7278502735D+00
 Atom C9       Shell    95 P   1     bf  257 -   259         -1.280412002636          4.637491977409          0.000000089138
      0.2888754725D+00  0.1000000000D+01
 Atom C9       Shell    96 P   1     bf  260 -   262         -1.280412002636          4.637491977409          0.000000089138
      0.1005682367D+00  0.1000000000D+01
 Atom C9       Shell    97 D   1     bf  263 -   267         -1.280412002636          4.637491977409          0.000000089138
      0.1097000000D+01  0.1000000000D+01
 Atom C9       Shell    98 D   1     bf  268 -   272         -1.280412002636          4.637491977409          0.000000089138
      0.3180000000D+00  0.1000000000D+01
 Atom C9       Shell    99 F   1     bf  273 -   279         -1.280412002636          4.637491977409          0.000000089138
      0.7610000000D+00  0.1000000000D+01
 Atom C10      Shell   100 S   6     bf  280 -   280         -5.330395680363          2.278375066911         -0.000001800588
      0.1357534968D+05  0.6064550360D-03
      0.2035233368D+04  0.4697908888D-02
      0.4632256236D+03  0.2433247765D-01
      0.1312001960D+03  0.9739996831D-01
      0.4285301589D+02  0.3019558425D+00
      0.1558418577D+02  0.6623360914D+00
 Atom C10      Shell   101 S   2     bf  281 -   281         -5.330395680363          2.278375066911         -0.000001800588
      0.6206713851D+01  0.6559530854D+00
      0.2576489653D+01  0.3758563329D+00
 Atom C10      Shell   102 S   1     bf  282 -   282         -5.330395680363          2.278375066911         -0.000001800588
      0.5769633942D+00  0.1000000000D+01
 Atom C10      Shell   103 S   1     bf  283 -   283         -5.330395680363          2.278375066911         -0.000001800588
      0.2297283136D+00  0.1000000000D+01
 Atom C10      Shell   104 S   1     bf  284 -   284         -5.330395680363          2.278375066911         -0.000001800588
      0.9516444003D-01  0.1000000000D+01
 Atom C10      Shell   105 P   4     bf  285 -   287         -5.330395680363          2.278375066911         -0.000001800588
      0.3469723224D+02  0.1132722000D-01
      0.7958262283D+01  0.7616965920D-01
      0.2378082688D+01  0.3019225220D+00
      0.8143320818D+00  0.7278502735D+00
 Atom C10      Shell   106 P   1     bf  288 -   290         -5.330395680363          2.278375066911         -0.000001800588
      0.2888754725D+00  0.1000000000D+01
 Atom C10      Shell   107 P   1     bf  291 -   293         -5.330395680363          2.278375066911         -0.000001800588
      0.1005682367D+00  0.1000000000D+01
 Atom C10      Shell   108 D   1     bf  294 -   298         -5.330395680363          2.278375066911         -0.000001800588
      0.1097000000D+01  0.1000000000D+01
 Atom C10      Shell   109 D   1     bf  299 -   303         -5.330395680363          2.278375066911         -0.000001800588
      0.3180000000D+00  0.1000000000D+01
 Atom C10      Shell   110 F   1     bf  304 -   310         -5.330395680363          2.278375066911         -0.000001800588
      0.7610000000D+00  0.1000000000D+01
 Atom C11      Shell   111 S   6     bf  311 -   311          1.280408792369          4.637491859635          0.000001978864
      0.1357534968D+05  0.6064550360D-03
      0.2035233368D+04  0.4697908888D-02
      0.4632256236D+03  0.2433247765D-01
      0.1312001960D+03  0.9739996831D-01
      0.4285301589D+02  0.3019558425D+00
      0.1558418577D+02  0.6623360914D+00
 Atom C11      Shell   112 S   2     bf  312 -   312          1.280408792369          4.637491859635          0.000001978864
      0.6206713851D+01  0.6559530854D+00
      0.2576489653D+01  0.3758563329D+00
 Atom C11      Shell   113 S   1     bf  313 -   313          1.280408792369          4.637491859635          0.000001978864
      0.5769633942D+00  0.1000000000D+01
 Atom C11      Shell   114 S   1     bf  314 -   314          1.280408792369          4.637491859635          0.000001978864
      0.2297283136D+00  0.1000000000D+01
 Atom C11      Shell   115 S   1     bf  315 -   315          1.280408792369          4.637491859635          0.000001978864
      0.9516444003D-01  0.1000000000D+01
 Atom C11      Shell   116 P   4     bf  316 -   318          1.280408792369          4.637491859635          0.000001978864
      0.3469723224D+02  0.1132722000D-01
      0.7958262283D+01  0.7616965920D-01
      0.2378082688D+01  0.3019225220D+00
      0.8143320818D+00  0.7278502735D+00
 Atom C11      Shell   117 P   1     bf  319 -   321          1.280408792369          4.637491859635          0.000001978864
      0.2888754725D+00  0.1000000000D+01
 Atom C11      Shell   118 P   1     bf  322 -   324          1.280408792369          4.637491859635          0.000001978864
      0.1005682367D+00  0.1000000000D+01
 Atom C11      Shell   119 D   1     bf  325 -   329          1.280408792369          4.637491859635          0.000001978864
      0.1097000000D+01  0.1000000000D+01
 Atom C11      Shell   120 D   1     bf  330 -   334          1.280408792369          4.637491859635          0.000001978864
      0.3180000000D+00  0.1000000000D+01
 Atom C11      Shell   121 F   1     bf  335 -   341          1.280408792369          4.637491859635          0.000001978864
      0.7610000000D+00  0.1000000000D+01
 Atom C12      Shell   122 S   6     bf  342 -   342          5.330390363374          2.278376466340         -0.000003690314
      0.1357534968D+05  0.6064550360D-03
      0.2035233368D+04  0.4697908888D-02
      0.4632256236D+03  0.2433247765D-01
      0.1312001960D+03  0.9739996831D-01
      0.4285301589D+02  0.3019558425D+00
      0.1558418577D+02  0.6623360914D+00
 Atom C12      Shell   123 S   2     bf  343 -   343          5.330390363374          2.278376466340         -0.000003690314
      0.6206713851D+01  0.6559530854D+00
      0.2576489653D+01  0.3758563329D+00
 Atom C12      Shell   124 S   1     bf  344 -   344          5.330390363374          2.278376466340         -0.000003690314
      0.5769633942D+00  0.1000000000D+01
 Atom C12      Shell   125 S   1     bf  345 -   345          5.330390363374          2.278376466340         -0.000003690314
      0.2297283136D+00  0.1000000000D+01
 Atom C12      Shell   126 S   1     bf  346 -   346          5.330390363374          2.278376466340         -0.000003690314
      0.9516444003D-01  0.1000000000D+01
 Atom C12      Shell   127 P   4     bf  347 -   349          5.330390363374          2.278376466340         -0.000003690314
      0.3469723224D+02  0.1132722000D-01
      0.7958262283D+01  0.7616965920D-01
      0.2378082688D+01  0.3019225220D+00
      0.8143320818D+00  0.7278502735D+00
 Atom C12      Shell   128 P   1     bf  350 -   352          5.330390363374          2.278376466340         -0.000003690314
      0.2888754725D+00  0.1000000000D+01
 Atom C12      Shell   129 P   1     bf  353 -   355          5.330390363374          2.278376466340         -0.000003690314
      0.1005682367D+00  0.1000000000D+01
 Atom C12      Shell   130 D   1     bf  356 -   360          5.330390363374          2.278376466340         -0.000003690314
      0.1097000000D+01  0.1000000000D+01
 Atom C12      Shell   131 D   1     bf  361 -   365          5.330390363374          2.278376466340         -0.000003690314
      0.3180000000D+00  0.1000000000D+01
 Atom C12      Shell   132 F   1     bf  366 -   372          5.330390363374          2.278376466340         -0.000003690314
      0.7610000000D+00  0.1000000000D+01
 Atom C13      Shell   133 S   6     bf  373 -   373          1.280412145257         -4.637489980717          0.000001978864
      0.1357534968D+05  0.6064550360D-03
      0.2035233368D+04  0.4697908888D-02
      0.4632256236D+03  0.2433247765D-01
      0.1312001960D+03  0.9739996831D-01
      0.4285301589D+02  0.3019558425D+00
      0.1558418577D+02  0.6623360914D+00
 Atom C13      Shell   134 S   2     bf  374 -   374          1.280412145257         -4.637489980717          0.000001978864
      0.6206713851D+01  0.6559530854D+00
      0.2576489653D+01  0.3758563329D+00
 Atom C13      Shell   135 S   1     bf  375 -   375          1.280412145257         -4.637489980717          0.000001978864
      0.5769633942D+00  0.1000000000D+01
 Atom C13      Shell   136 S   1     bf  376 -   376          1.280412145257         -4.637489980717          0.000001978864
      0.2297283136D+00  0.1000000000D+01
 Atom C13      Shell   137 S   1     bf  377 -   377          1.280412145257         -4.637489980717          0.000001978864
      0.9516444003D-01  0.1000000000D+01
 Atom C13      Shell   138 P   4     bf  378 -   380          1.280412145257         -4.637489980717          0.000001978864
      0.3469723224D+02  0.1132722000D-01
      0.7958262283D+01  0.7616965920D-01
      0.2378082688D+01  0.3019225220D+00
      0.8143320818D+00  0.7278502735D+00
 Atom C13      Shell   139 P   1     bf  381 -   383          1.280412145257         -4.637489980717          0.000001978864
      0.2888754725D+00  0.1000000000D+01
 Atom C13      Shell   140 P   1     bf  384 -   386          1.280412145257         -4.637489980717          0.000001978864
      0.1005682367D+00  0.1000000000D+01
 Atom C13      Shell   141 D   1     bf  387 -   391          1.280412145257         -4.637489980717          0.000001978864
      0.1097000000D+01  0.1000000000D+01
 Atom C13      Shell   142 D   1     bf  392 -   396          1.280412145257         -4.637489980717          0.000001978864
      0.3180000000D+00  0.1000000000D+01
 Atom C13      Shell   143 F   1     bf  397 -   403          1.280412145257         -4.637489980717          0.000001978864
      0.7610000000D+00  0.1000000000D+01
 Atom C14      Shell   144 S   6     bf  404 -   404          5.330397712710         -2.278374959946          0.000001978864
      0.1357534968D+05  0.6064550360D-03
      0.2035233368D+04  0.4697908888D-02
      0.4632256236D+03  0.2433247765D-01
      0.1312001960D+03  0.9739996831D-01
      0.4285301589D+02  0.3019558425D+00
      0.1558418577D+02  0.6623360914D+00
 Atom C14      Shell   145 S   2     bf  405 -   405          5.330397712710         -2.278374959946          0.000001978864
      0.6206713851D+01  0.6559530854D+00
      0.2576489653D+01  0.3758563329D+00
 Atom C14      Shell   146 S   1     bf  406 -   406          5.330397712710         -2.278374959946          0.000001978864
      0.5769633942D+00  0.1000000000D+01
 Atom C14      Shell   147 S   1     bf  407 -   407          5.330397712710         -2.278374959946          0.000001978864
      0.2297283136D+00  0.1000000000D+01
 Atom C14      Shell   148 S   1     bf  408 -   408          5.330397712710         -2.278374959946          0.000001978864
      0.9516444003D-01  0.1000000000D+01
 Atom C14      Shell   149 P   4     bf  409 -   411          5.330397712710         -2.278374959946          0.000001978864
      0.3469723224D+02  0.1132722000D-01
      0.7958262283D+01  0.7616965920D-01
      0.2378082688D+01  0.3019225220D+00
      0.8143320818D+00  0.7278502735D+00
 Atom C14      Shell   150 P   1     bf  412 -   414          5.330397712710         -2.278374959946          0.000001978864
      0.2888754725D+00  0.1000000000D+01
 Atom C14      Shell   151 P   1     bf  415 -   417          5.330397712710         -2.278374959946          0.000001978864
      0.1005682367D+00  0.1000000000D+01
 Atom C14      Shell   152 D   1     bf  418 -   422          5.330397712710         -2.278374959946          0.000001978864
      0.1097000000D+01  0.1000000000D+01
 Atom C14      Shell   153 D   1     bf  423 -   427          5.330397712710         -2.278374959946          0.000001978864
      0.3180000000D+00  0.1000000000D+01
 Atom C14      Shell   154 F   1     bf  428 -   434          5.330397712710         -2.278374959946          0.000001978864
      0.7610000000D+00  0.1000000000D+01
 Atom C15      Shell   155 S   6     bf  435 -   435         -6.629903754949         -0.000003421055          0.000000089138
      0.1357534968D+05  0.6064550360D-03
      0.2035233368D+04  0.4697908888D-02
      0.4632256236D+03  0.2433247765D-01
      0.1312001960D+03  0.9739996831D-01
      0.4285301589D+02  0.3019558425D+00
      0.1558418577D+02  0.6623360914D+00
 Atom C15      Shell   156 S   2     bf  436 -   436         -6.629903754949         -0.000003421055          0.000000089138
      0.6206713851D+01  0.6559530854D+00
      0.2576489653D+01  0.3758563329D+00
 Atom C15      Shell   157 S   1     bf  437 -   437         -6.629903754949         -0.000003421055          0.000000089138
      0.5769633942D+00  0.1000000000D+01
 Atom C15      Shell   158 S   1     bf  438 -   438         -6.629903754949         -0.000003421055          0.000000089138
      0.2297283136D+00  0.1000000000D+01
 Atom C15      Shell   159 S   1     bf  439 -   439         -6.629903754949         -0.000003421055          0.000000089138
      0.9516444003D-01  0.1000000000D+01
 Atom C15      Shell   160 P   4     bf  440 -   442         -6.629903754949         -0.000003421055          0.000000089138
      0.3469723224D+02  0.1132722000D-01
      0.7958262283D+01  0.7616965920D-01
      0.2378082688D+01  0.3019225220D+00
      0.8143320818D+00  0.7278502735D+00
 Atom C15      Shell   161 P   1     bf  443 -   445         -6.629903754949         -0.000003421055          0.000000089138
      0.2888754725D+00  0.1000000000D+01
 Atom C15      Shell   162 P   1     bf  446 -   448         -6.629903754949         -0.000003421055          0.000000089138
      0.1005682367D+00  0.1000000000D+01
 Atom C15      Shell   163 D   1     bf  449 -   453         -6.629903754949         -0.000003421055          0.000000089138
      0.1097000000D+01  0.1000000000D+01
 Atom C15      Shell   164 D   1     bf  454 -   458         -6.629903754949         -0.000003421055          0.000000089138
      0.3180000000D+00  0.1000000000D+01
 Atom C15      Shell   165 F   1     bf  459 -   465         -6.629903754949         -0.000003421055          0.000000089138
      0.7610000000D+00  0.1000000000D+01
 Atom C16      Shell   166 S   6     bf  466 -   466          6.629903897570         -0.000002141158         -0.000001800588
      0.1357534968D+05  0.6064550360D-03
      0.2035233368D+04  0.4697908888D-02
      0.4632256236D+03  0.2433247765D-01
      0.1312001960D+03  0.9739996831D-01
      0.4285301589D+02  0.3019558425D+00
      0.1558418577D+02  0.6623360914D+00
 Atom C16      Shell   167 S   2     bf  467 -   467          6.629903897570         -0.000002141158         -0.000001800588
      0.6206713851D+01  0.6559530854D+00
      0.2576489653D+01  0.3758563329D+00
 Atom C16      Shell   168 S   1     bf  468 -   468          6.629903897570         -0.000002141158         -0.000001800588
      0.5769633942D+00  0.1000000000D+01
 Atom C16      Shell   169 S   1     bf  469 -   469          6.629903897570         -0.000002141158         -0.000001800588
      0.2297283136D+00  0.1000000000D+01
 Atom C16      Shell   170 S   1     bf  470 -   470          6.629903897570         -0.000002141158         -0.000001800588
      0.9516444003D-01  0.1000000000D+01
 Atom C16      Shell   171 P   4     bf  471 -   473          6.629903897570         -0.000002141158         -0.000001800588
      0.3469723224D+02  0.1132722000D-01
      0.7958262283D+01  0.7616965920D-01
      0.2378082688D+01  0.3019225220D+00
      0.8143320818D+00  0.7278502735D+00
 Atom C16      Shell   172 P   1     bf  474 -   476          6.629903897570         -0.000002141158         -0.000001800588
      0.2888754725D+00  0.1000000000D+01
 Atom C16      Shell   173 P   1     bf  477 -   479          6.629903897570         -0.000002141158         -0.000001800588
      0.1005682367D+00  0.1000000000D+01
 Atom C16      Shell   174 D   1     bf  480 -   484          6.629903897570         -0.000002141158         -0.000001800588
      0.1097000000D+01  0.1000000000D+01
 Atom C16      Shell   175 D   1     bf  485 -   489          6.629903897570         -0.000002141158         -0.000001800588
      0.3180000000D+00  0.1000000000D+01
 Atom C16      Shell   176 F   1     bf  490 -   496          6.629903897570         -0.000002141158         -0.000001800588
      0.7610000000D+00  0.1000000000D+01
 Atom H17      Shell   177 S   3     bf  497 -   497         -2.315528896970         -6.403499357755         -0.000005580040
      0.3406134100D+02  0.2543930721D-01
      0.5123574600D+01  0.1900859489D+00
      0.1164662600D+01  0.8524411301D+00
 Atom H17      Shell   178 S   1     bf  498 -   498         -2.315528896970         -6.403499357755         -0.000005580040
      0.3272304100D+00  0.1000000000D+01
 Atom H17      Shell   179 S   1     bf  499 -   499         -2.315528896970         -6.403499357755         -0.000005580040
      0.1030724100D+00  0.1000000000D+01
 Atom H17      Shell   180 P   1     bf  500 -   502         -2.315528896970         -6.403499357755         -0.000005580040
      0.8000000000D+00  0.1000000000D+01
 Atom H18      Shell   181 S   3     bf  503 -   503         -6.358828396530         -4.047893186196         -0.000001800588
      0.3406134100D+02  0.2543930721D-01
      0.5123574600D+01  0.1900859489D+00
      0.1164662600D+01  0.8524411301D+00
 Atom H18      Shell   182 S   1     bf  504 -   504         -6.358828396530         -4.047893186196         -0.000001800588
      0.3272304100D+00  0.1000000000D+01
 Atom H18      Shell   183 S   1     bf  505 -   505         -6.358828396530         -4.047893186196         -0.000001800588
      0.1030724100D+00  0.1000000000D+01
 Atom H18      Shell   184 P   1     bf  506 -   508         -6.358828396530         -4.047893186196         -0.000001800588
      0.8000000000D+00  0.1000000000D+01
 Atom H19      Shell   185 S   3     bf  509 -   509         -2.315532087418          6.403497787980          0.000000089138
      0.3406134100D+02  0.2543930721D-01
      0.5123574600D+01  0.1900859489D+00
      0.1164662600D+01  0.8524411301D+00
 Atom H19      Shell   186 S   1     bf  510 -   510         -2.315532087418          6.403497787980          0.000000089138
      0.3272304100D+00  0.1000000000D+01
 Atom H19      Shell   187 S   1     bf  511 -   511         -2.315532087418          6.403497787980          0.000000089138
      0.1030724100D+00  0.1000000000D+01
 Atom H19      Shell   188 P   1     bf  512 -   514         -2.315532087418          6.403497787980          0.000000089138
      0.8000000000D+00  0.1000000000D+01
 Atom H20      Shell   189 S   3     bf  515 -   515         -6.358828024199          4.047891988330         -0.000009359493
      0.3406134100D+02  0.2543930721D-01
      0.5123574600D+01  0.1900859489D+00
      0.1164662600D+01  0.8524411301D+00
 Atom H20      Shell   190 S   1     bf  516 -   516         -6.358828024199          4.047891988330         -0.000009359493
      0.3272304100D+00  0.1000000000D+01
 Atom H20      Shell   191 S   1     bf  517 -   517         -6.358828024199          4.047891988330         -0.000009359493
      0.1030724100D+00  0.1000000000D+01
 Atom H20      Shell   192 P   1     bf  518 -   520         -6.358828024199          4.047891988330         -0.000009359493
      0.8000000000D+00  0.1000000000D+01
 Atom H21      Shell   193 S   3     bf  521 -   521          2.315525260138          6.403501354447          0.000007648043
      0.3406134100D+02  0.2543930721D-01
      0.5123574600D+01  0.1900859489D+00
      0.1164662600D+01  0.8524411301D+00
 Atom H21      Shell   194 S   1     bf  522 -   522          2.315525260138          6.403501354447          0.000007648043
      0.3272304100D+00  0.1000000000D+01
 Atom H21      Shell   195 S   1     bf  523 -   523          2.315525260138          6.403501354447          0.000007648043
      0.1030724100D+00  0.1000000000D+01
 Atom H21      Shell   196 P   1     bf  524 -   526          2.315525260138          6.403501354447          0.000007648043
      0.8000000000D+00  0.1000000000D+01
 Atom H22      Shell   197 S   3     bf  527 -   527          6.358836098056          4.047887623983          0.000000089138
      0.3406134100D+02  0.2543930721D-01
      0.5123574600D+01  0.1900859489D+00
      0.1164662600D+01  0.8524411301D+00
 Atom H22      Shell   198 S   1     bf  528 -   528          6.358836098056          4.047887623983          0.000000089138
      0.3272304100D+00  0.1000000000D+01
 Atom H22      Shell   199 S   1     bf  529 -   529          6.358836098056          4.047887623983          0.000000089138
      0.1030724100D+00  0.1000000000D+01
 Atom H22      Shell   200 P   1     bf  530 -   532          6.358836098056          4.047887623983          0.000000089138
      0.8000000000D+00  0.1000000000D+01
 Atom H23      Shell   201 S   3     bf  533 -   533          2.315537899218         -6.403493901563          0.000005758316
      0.3406134100D+02  0.2543930721D-01
      0.5123574600D+01  0.1900859489D+00
      0.1164662600D+01  0.8524411301D+00
 Atom H23      Shell   202 S   1     bf  534 -   534          2.315537899218         -6.403493901563          0.000005758316
      0.3272304100D+00  0.1000000000D+01
 Atom H23      Shell   203 S   1     bf  535 -   535          2.315537899218         -6.403493901563          0.000005758316
      0.1030724100D+00  0.1000000000D+01
 Atom H23      Shell   204 P   1     bf  536 -   538          2.315537899218         -6.403493901563          0.000005758316
      0.8000000000D+00  0.1000000000D+01
 Atom H24      Shell   205 S   3     bf  539 -   539          6.358822497641         -4.047897550543          0.000009537769
      0.3406134100D+02  0.2543930721D-01
      0.5123574600D+01  0.1900859489D+00
      0.1164662600D+01  0.8524411301D+00
 Atom H24      Shell   206 S   1     bf  540 -   540          6.358822497641         -4.047897550543          0.000009537769
      0.3272304100D+00  0.1000000000D+01
 Atom H24      Shell   207 S   1     bf  541 -   541          6.358822497641         -4.047897550543          0.000009537769
      0.1030724100D+00  0.1000000000D+01
 Atom H24      Shell   208 P   1     bf  542 -   544          6.358822497641         -4.047897550543          0.000009537769
      0.8000000000D+00  0.1000000000D+01
 Atom H25      Shell   209 S   3     bf  545 -   545         -8.675364108172         -0.000001437257          0.000001978864
      0.3406134100D+02  0.2543930721D-01
      0.5123574600D+01  0.1900859489D+00
      0.1164662600D+01  0.8524411301D+00
 Atom H25      Shell   210 S   1     bf  546 -   546         -8.675364108172         -0.000001437257          0.000001978864
      0.3272304100D+00  0.1000000000D+01
 Atom H25      Shell   211 S   1     bf  547 -   547         -8.675364108172         -0.000001437257          0.000001978864
      0.1030724100D+00  0.1000000000D+01
 Atom H25      Shell   212 P   1     bf  548 -   550         -8.675364108172         -0.000001437257          0.000001978864
      0.8000000000D+00  0.1000000000D+01
 Atom H26      Shell   213 S   3     bf  551 -   551          8.675364250793          0.000001544222         -0.000005580040
      0.3406134100D+02  0.2543930721D-01
      0.5123574600D+01  0.1900859489D+00
      0.1164662600D+01  0.8524411301D+00
 Atom H26      Shell   214 S   1     bf  552 -   552          8.675364250793          0.000001544222         -0.000005580040
      0.3272304100D+00  0.1000000000D+01
 Atom H26      Shell   215 S   1     bf  553 -   553          8.675364250793          0.000001544222         -0.000005580040
      0.1030724100D+00  0.1000000000D+01
 Atom H26      Shell   216 P   1     bf  554 -   556          8.675364250793          0.000001544222         -0.000005580040
      0.8000000000D+00  0.1000000000D+01
 There are   636 symmetry adapted cartesian basis functions of A   symmetry.
 There are   556 symmetry adapted basis functions of A   symmetry.
   556 basis functions,   896 primitive gaussians,   636 cartesian basis functions
    53 alpha electrons       53 beta electrons
       nuclear repulsion energy       969.4631749806 Hartrees.
 IExCor= 4639 DFT=T Ex+Corr=wB97XD ExCW=0 ScaHFX=  1.000000
 ScaDFX=  1.000000  1.000000  1.000000  1.000000 ScalE2=  1.000000  1.000000
 IRadAn=      5 IRanWt=     -1 IRanGd=            0 ICorTp=0 IEmpDi=121
  HFx wShort=  0.000000 wLong=  0.200000 cFull=  0.222036 cShort=  0.000000 cLong=  0.777964
  DFx wShort=  0.000000 wLong=  0.200000 cFull=  0.000000 cShort=  0.000000 cLong=  1.000000
 NAtoms=   26 NActive=   26 NUniq=   26 SFac= 1.00D+00 NAtFMM=   60 NAOKFM=F Big=F
 Integral buffers will be    131072 words long.
 Raffenetti 2 integral format.
 Two-electron integral symmetry is turned on.
 R6Disp:  Grimme-D2 Dispersion energy=       -0.0173518204 Hartrees.
 Nuclear repulsion after empirical dispersion term =      969.4458231602 Hartrees.
 Leave Link  301 at Fri Jul  9 19:19:36 2021, MaxMem=  4194304000 cpu:         0.2
 (Enter /home/minenky/programs//g09/l302.exe)
 NPDir=0 NMtPBC=     1 NCelOv=     1 NCel=       1 NClECP=     1 NCelD=      1
         NCelK=      1 NCelE2=     1 NClLst=     1 CellRange=     0.0.
 One-electron integrals computed using PRISM.
   1 Symmetry operations used in ECPInt.
[...]
 ,0.,-0.00372543,0.00000001,0.,0.00650072,0.,0.,-0.00059228,0.,0.,0.005
 37971,0.,0.,-0.06737915,0.00000007,0.,-0.05822975,0.,0.,0.00412632,0.,
 0.,-0.00033956,0.,0.,0.00018998,0.,0.,0.00012758,0.,0.,-0.00091721,-0.
 00000012,0.00000006,0.13462768,-0.02633956,0.05993148,0.,0.00324604,0.
 00533949,0.,-0.01819471,0.00825144,0.,0.01367025,0.00687857,0.,-0.0556
 4809,-0.01590027,0.00000001,-0.32016343,-0.00938964,0.00000005,0.02209
 780,-0.01080709,0.,0.01609674,-0.00806603,0.,-0.01238543,-0.00664637,0
 .,-0.01424000,-0.00730480,0.,0.01100913,-0.00897503,0.,0.07167816,-0.0
 2943356,-0.00000002,-0.04514744,-0.02330039,0.,0.68311230,0.02966121,0
 .03083435,0.,0.00332216,-0.00440230,0.,-0.00825058,0.00248243,0.,0.008
 50546,0.00441943,0.,-0.03657533,-0.00878008,0.,0.03885252,-0.12255737,
 -0.00000001,0.00677905,-0.01043881,0.,0.00806603,-0.00309116,0.,-0.008
 19357,-0.00524665,0.,-0.00730480,-0.00402682,0.,0.00881226,-0.00585540
 ,0.,0.02943362,-0.06484965,-0.00000001,-0.04557767,-0.00370565,0.,-0.0
 2334666,0.74180143,0.00000001,0.,0.00743259,0.,0.,0.00579373,0.,0.,-0.
 00061691,0.,0.,-0.00002515,0.,0.,-0.00551476,0.00000005,0.,-0.06765393
 ,0.,0.,0.00412632,0.,0.,-0.00042183,0.,0.,0.00018998,0.,0.,-0.00045216
 ,0.,0.,-0.00091721,-0.00000001,0.,0.00737477,0.,0.,0.00424031,-0.00000
 011,0.00000005,0.13532875,0.00005444,0.,0.,0.00060969,0.00000001,0.,-0
 .02601539,0.03314535,0.,-0.02601534,-0.03314537,0.,0.00048559,-0.00005
 636,0.,0.00048559,0.00005637,0.,-0.00378626,-0.00312026,0.,-0.18693197
 ,0.12891806,0.00000003,-0.00378627,0.00312025,0.,-0.18693184,-0.128917
 93,0.00000001,-0.00144042,-0.00041400,0.,0.00012446,0.00047150,0.,-0.0
 0144043,0.00041400,0.,0.00012445,-0.00047151,0.,0.75421566,-0.00000001
 ,-0.00436219,0.,0.00000002,-0.05662613,0.,0.08651249,0.01637327,-0.000
 00001,-0.08651251,0.01637324,0.00000002,0.01716537,-0.00813571,0.,-0.0
 1716537,-0.00813573,0.,-0.02059972,0.01472800,0.,0.05234129,-0.2904085
 0,-0.00000003,0.02059970,0.01472800,0.,-0.05234115,-0.29040842,-0.0000
 0001,-0.01774462,0.00936937,0.,-0.01648060,0.00839039,0.,0.01774462,0.
 00936939,0.,0.01648060,0.00839040,0.,-0.00000008,0.67512906,0.,0.,-0.0
 0083894,0.,0.,-0.00579986,0.00000001,0.,0.00674298,0.,0.,0.00674298,0.
 ,0.,0.00005729,0.,0.,0.00005729,0.,0.,0.00739869,0.00000003,-0.0000000
 4,-0.06126378,0.,0.,0.00739869,0.00000002,0.,-0.06126380,0.,0.,-0.0000
 4529,0.,0.,0.00005061,0.,0.,-0.00004529,0.,0.,0.00005061,-0.00000012,0
 .00000005,0.13468032,0.00060969,0.00000001,0.,0.00005444,0.,0.,0.00048
 559,-0.00005636,0.,0.00048560,0.00005637,0.,-0.02601539,0.03314535,0.,
 -0.02601534,-0.03314537,0.,-0.00144042,-0.00041400,0.,0.00012446,0.000
 47150,0.,-0.00144043,0.00041400,0.,0.00012445,-0.00047151,0.,-0.003786
 26,-0.00312026,0.,-0.18693191,0.12891795,0.00000004,-0.00378627,0.0031
 2025,0.,-0.18693190,-0.12891804,0.00000002,-0.00078503,0.,0.,0.7542156
 6,0.,-0.05662613,0.,0.00000001,-0.00436219,0.,0.01716537,-0.00813572,0
 .,-0.01716537,-0.00813571,0.,0.08651249,0.01637329,-0.00000002,-0.0865
 1251,0.01637323,0.00000002,-0.01774463,0.00936938,0.,-0.01648060,0.008
 39039,0.,0.01774461,0.00936938,0.,0.01648060,0.00839040,0.,-0.02059971
 ,0.01472799,0.,0.05234117,-0.29040831,-0.00000003,0.02059971,0.0147280
 1,0.,-0.05234127,-0.29040862,0.,0.,-0.01798667,0.,0.00000018,0.6751290
 7,0.,0.,-0.00579986,0.,0.,-0.00083894,0.,0.,0.00005729,0.,0.,0.0000572
 9,0.00000001,0.,0.00674298,0.,0.,0.00674298,0.,0.,-0.00004529,0.,0.,0.
 00005061,0.,0.,-0.00004529,0.,0.,0.00005061,0.,0.,0.00739869,0.0000000
 3,-0.00000004,-0.06126380,0.,0.,0.00739869,0.00000003,0.,-0.06126378,0
 .,0.,0.00004084,-0.00000013,0.00000004,0.13468032,-0.00048924,0.000278
 34,0.,-0.00175391,0.00266319,0.,0.01035940,0.01434930,0.,0.00049255,0.
 00066500,0.,0.00023881,0.00003459,0.,-0.00519589,0.00212596,0.,-0.1294
 5359,-0.12088634,0.,0.00140491,0.00126934,0.,-0.00018191,0.00015256,0.
 ,0.00023829,0.00013457,0.,-0.00002365,-0.00000341,0.,-0.00013490,0.000
 14752,0.,-0.01156918,-0.02992519,0.,0.00013500,-0.00147254,0.,0.000032
 84,-0.00043376,0.,-0.00051233,-0.00007566,0.,0.13604350,0.00071988,0.0
 0031734,0.,0.00411271,-0.00262436,0.,-0.01586061,-0.01900844,0.,-0.001
 42512,-0.00068206,0.,-0.00009628,-0.00009520,0.,0.00088877,0.00143169,
 0.,-0.12210093,-0.26880733,0.,-0.00173834,0.00123397,0.,0.00041966,-0.
 00023259,0.,0.00014670,0.00017789,0.,-0.00005823,0.00004483,0.,0.00010
 428,-0.00000699,0.,0.00243958,0.00389540,0.,-0.00002893,-0.00002217,0.
 ,0.00031540,-0.00002100,0.,-0.00008554,0.00012335,0.,0.13130129,0.2833
 1556,0.,0.,-0.00079572,0.,0.,0.00378413,0.,0.,0.00271676,0.,0.,0.00008
 382,0.,0.,-0.00075671,0.,0.,0.01056093,0.,0.,-0.03720070,0.,0.,-0.0019
 0631,0.,0.,0.00002886,0.,0.,-0.00001622,0.,0.,0.00004151,0.,0.,0.00011
 502,0.,0.,0.00429815,0.,0.,0.00007325,0.,0.,-0.00018704,0.,0.,-0.00082
 053,0.,0.,0.02528013,0.00005901,-0.00169350,0.,-0.00547695,0.00165070,
 0.,-0.01103017,-0.02872697,0.,-0.00099897,0.00061368,0.,-0.00031377,0.
 00005512,0.,0.00000596,-0.00015598,0.,0.00126183,-0.00184107,0.,-0.131
 44871,-0.12144770,0.,0.00036216,0.00007456,0.,-0.00080868,0.00326340,0
 .,-0.00022446,0.00019148,0.,-0.00013779,-0.00005563,0.,0.00016660,0.00
 044838,0.,0.00019640,0.00018797,0.,0.01190175,0.01507335,0.,-0.0000552
 6,-0.00016857,0.,-0.00031037,0.00123868,0.,0.13582995,0.00028401,-0.00
 001849,0.,0.00061659,0.00131149,0.,0.00143776,0.00232297,0.,0.00076593
 ,0.00032571,0.,-0.00019881,0.00006813,0.,0.00024544,0.00021821,0.,0.00
 160889,0.00102249,0.,-0.12161630,-0.26793708,0.,-0.00017641,-0.0000602
 0,0.,0.00400784,-0.00300226,0.,0.00009042,-0.00006028,0.,0.00017440,-0
 .00007605,0.,-0.00045951,0.00000825,0.,-0.00018222,-0.00009338,0.,-0.0
 1658763,-0.01822213,0.,-0.00003737,0.00019368,0.,-0.00049336,0.0001748
 5,0.,0.13102576,0.28400007,0.,0.,0.00011015,0.,0.,0.00671505,0.,0.,0.0
 0314391,0.,0.,-0.00101300,0.,0.,-0.00003083,0.,0.,0.00013004,0.,0.,-0.
 00391494,0.,0.,-0.03596565,0.,0.,-0.00101522,0.,0.,0.00742859,0.,0.,0.
 00009525,0.,0.,0.00000043,0.,0.,-0.00013915,0.,0.,-0.00000221,0.,0.,0.
 00271958,0.,0.,0.00001783,0.,0.,0.00022787,0.,0.,0.02498342,-0.0004892
 4,-0.00027834,0.,-0.00175391,-0.00266319,0.,0.00049255,-0.00066500,0.,
 0.01035940,-0.01434929,0.,-0.00519589,-0.00212597,0.,0.00023881,-0.000
 03459,0.,-0.00018191,-0.00015256,0.,0.00023829,-0.00013457,0.,-0.12945
 370,0.12088640,0.00000003,0.00140491,-0.00126934,0.,-0.01156920,0.0299
 2519,0.,0.00013500,0.00147254,0.,-0.00002365,0.00000341,0.,-0.00013490
 ,-0.00014752,0.,0.00003284,0.00043376,0.,-0.00051233,0.00007566,0.,0.0
 0005278,-0.00006698,0.,-0.00002419,0.00003354,0.,0.13604361,-0.0007198
 8,0.00031734,0.,-0.00411271,-0.00262436,0.,0.00142512,-0.00068206,0.,0
 .01586062,-0.01900844,0.,-0.00088877,0.00143169,0.,0.00009628,-0.00009
 520,0.,-0.00041966,-0.00023259,0.,-0.00014670,0.00017789,0.,0.12210099
 ,-0.26880722,-0.00000004,0.00173834,0.00123397,0.,-0.00243958,0.003895
 41,0.,0.00002893,-0.00002217,0.,0.00005823,0.00004483,0.,-0.00010428,-
 0.00000699,0.,-0.00031540,-0.00002100,0.,0.00008554,0.00012335,0.,0.00
 006698,-0.00013444,0.,-0.00006837,0.00002935,0.,-0.13130135,0.28331544
 ,0.,0.,-0.00079572,0.,0.,0.00378413,0.,0.,0.00008382,0.,0.,0.00271676,
 0.,0.,0.01056093,0.,0.,-0.00075671,0.,0.,0.00002886,0.,0.,-0.00001622,
 0.00000003,-0.00000004,-0.03720071,0.,0.,-0.00190630,0.,0.,0.00429815,
 0.,0.,0.00007325,0.,0.,0.00004151,0.,0.,0.00011502,0.,0.,-0.00018704,0
 .,0.,-0.00082053,0.,0.,-0.00001999,0.,0.,0.00004290,-0.00000003,0.0000
 0004,0.02528013,0.00005901,0.00169350,0.,-0.00547694,-0.00165071,0.,-0
 .00099897,-0.00061368,0.,-0.01103018,0.02872697,0.,0.00000596,0.000155
 98,0.,-0.00031377,-0.00005512,0.,0.00036216,-0.00007456,0.,-0.00080867
 ,-0.00326340,0.,0.00126183,0.00184107,0.,-0.13144883,0.12144776,0.0000
 0003,0.00016660,-0.00044838,0.,0.00019640,-0.00018797,0.,-0.00022446,-
 0.00019148,0.,-0.00013779,0.00005563,0.,0.01190175,-0.01507333,0.,-0.0
 0005526,0.00016857,0.,-0.00002419,0.00006837,0.,0.00037108,-0.00076587
 ,0.,-0.00031037,-0.00123868,0.,0.13583007,-0.00028401,-0.00001849,0.,-
 0.00061659,0.00131149,0.,-0.00076593,0.00032571,0.,-0.00143776,0.00232
 298,0.,-0.00024544,0.00021821,0.,0.00019881,0.00006813,0.,0.00017641,-
 0.00006020,0.,-0.00400783,-0.00300226,0.,-0.00160889,0.00102249,0.,0.1
 2161636,-0.26793696,-0.00000004,0.00045951,0.00000825,0.,0.00018222,-0
 .00009338,0.,-0.00009042,-0.00006028,0.,-0.00017440,-0.00007605,0.,0.0
 1658765,-0.01822213,0.,0.00003737,0.00019368,0.,-0.00003354,0.00002935
 ,0.,0.00076587,-0.00102784,0.,0.00049336,0.00017485,0.,-0.13102582,0.2
 8399994,0.,0.,0.00011015,0.,0.,0.00671506,0.,0.,-0.00101300,0.,0.,0.00
 314391,0.,0.,0.00013004,0.,0.,-0.00003083,0.,0.,-0.00101522,0.,0.,0.00
 742859,0.,0.,-0.00391494,0.00000003,-0.00000004,-0.03596565,0.,0.,-0.0
 0013915,0.,0.,-0.00000221,0.,0.,0.00009525,0.,0.,0.00000043,0.,0.,0.00
 271958,0.,0.,0.00001783,0.,0.,0.00004290,0.,0.,0.00013217,0.,0.,0.0002
 2787,-0.00000003,0.00000004,0.02498342,-0.00175391,0.00266319,0.,-0.00
 048924,0.00027834,0.,0.00023881,0.00003459,0.,-0.00519589,0.00212596,0
 .,0.01035940,0.01434930,0.,0.00049255,0.00066500,0.,-0.00002365,-0.000
 00341,0.,-0.00013490,0.00014752,0.,-0.01156919,-0.02992519,0.,0.000135
 00,-0.00147254,0.,-0.12945360,-0.12088635,0.,0.00140491,0.00126934,0.,
 -0.00018191,0.00015256,0.,0.00023829,0.00013457,0.,-0.00051233,-0.0000
 7566,0.,0.00003284,-0.00043376,0.,0.00000911,-0.00002145,0.,-0.0000011
 0,-0.00002074,0.,0.00074231,0.00027875,0.,-0.00002722,0.00005549,0.,0.
 13604351,0.00411271,-0.00262436,0.,0.00071988,0.00031734,0.,-0.0000962
 8,-0.00009520,0.,0.00088877,0.00143169,0.,-0.01586061,-0.01900844,0.,-
 0.00142512,-0.00068206,0.,-0.00005823,0.00004483,0.,0.00010428,-0.0000
 0699,0.,0.00243958,0.00389540,0.,-0.00002893,-0.00002217,0.,-0.1221009
 4,-0.26880732,0.,-0.00173834,0.00123397,0.,0.00041966,-0.00023259,0.,0
 .00014670,0.00017789,0.,-0.00008554,0.00012335,0.,0.00031540,-0.000021
 00,0.,-0.00002145,-0.00001028,0.,-0.00001817,-0.00001096,0.,-0.0002787
 5,0.00093793,0.,-0.00001481,0.00000539,0.,0.13130130,0.28331555,0.,0.,
 0.00378413,0.,0.,-0.00079572,0.,0.,-0.00075671,0.,0.,0.01056093,0.,0.,
 0.00271676,0.,0.,0.00008382,0.,0.,0.00004151,0.,0.,0.00011502,0.,0.,0.
 00429815,0.,0.,0.00007325,0.,0.,-0.03720071,0.,0.,-0.00190630,0.,0.,0.
 00002886,0.,0.,-0.00001622,0.,0.,-0.00082053,0.,0.,-0.00018704,0.,0.,0
 .00001109,0.,0.,0.00011279,0.,0.,-0.00597478,0.,0.,0.00024777,0.,0.,0.
 02528013,-0.00547694,0.00165070,0.,0.00005901,-0.00169350,0.,-0.000313
 77,0.00005512,0.,0.00000596,-0.00015598,0.,-0.01103017,-0.02872697,0.,
 -0.00099897,0.00061368,0.,-0.00022446,0.00019148,0.,-0.00013779,-0.000
 05563,0.,0.00016660,0.00044838,0.,0.00019640,0.00018797,0.,0.00126183,
 -0.00184107,0.,-0.13144873,-0.12144771,0.,0.00036216,0.00007456,0.,-0.
 00080868,0.00326340,0.,-0.00005526,-0.00016857,0.,0.01190175,0.0150733
 5,0.,-0.00000110,-0.00001817,0.,-0.00006160,-0.00000533,0.,-0.00002722
 ,0.00001481,0.,-0.00003422,0.00001079,0.,-0.00031037,0.00123868,0.,0.1
 3582997,0.00061659,0.00131149,0.,0.00028401,-0.00001849,0.,-0.00019881
 ,0.00006813,0.,0.00024544,0.00021821,0.,0.00143776,0.00232297,0.,0.000
 76593,0.00032571,0.,0.00009042,-0.00006028,0.,0.00017440,-0.00007605,0
 .,-0.00045951,0.00000825,0.,-0.00018222,-0.00009338,0.,0.00160889,0.00
 102249,0.,-0.12161631,-0.26793706,0.,-0.00017641,-0.00006020,0.,0.0040
 0784,-0.00300226,0.,-0.00003737,0.00019368,0.,-0.01658763,-0.01822213,
 0.,-0.00002074,-0.00001096,0.,-0.00000533,-0.00000850,0.,-0.00005549,0
 .00000539,0.,-0.00001079,0.00000795,0.,-0.00049336,0.00017485,0.,0.131
 02577,0.28400005,0.,0.,0.00671506,0.,0.,0.00011015,0.,0.,-0.00003083,0
 .,0.,0.00013004,0.,0.,0.00314391,0.,0.,-0.00101300,0.,0.,0.00009525,0.
 ,0.,0.00000043,0.,0.,-0.00013915,0.,0.,-0.00000221,0.,0.,-0.00391494,0
 .,0.,-0.03596564,0.,0.,-0.00101522,0.,0.,0.00742858,0.,0.,0.00001783,0
 .,0.,0.00271958,0.,0.,0.00011279,0.,0.,-0.00012057,0.,0.,0.00024777,0.
 ,0.,0.00002855,0.,0.,0.00022787,-0.00000001,0.,0.02498342,-0.00175391,
 -0.00266319,0.,-0.00048924,-0.00027834,0.,-0.00519589,-0.00212596,0.,0
 .00023881,-0.00003459,0.,0.00049255,-0.00066500,0.,0.01035940,-0.01434
 929,0.,-0.01156920,0.02992519,0.,0.00013500,0.00147254,0.,-0.00002365,
 0.00000341,0.,-0.00013490,-0.00014752,0.,-0.00018191,-0.00015256,0.,0.
 00023829,-0.00013457,0.,-0.12945369,0.12088640,0.00000003,0.00140491,-
 0.00126935,0.,-0.00051233,0.00007566,0.,0.00003284,0.00043376,0.,0.000
 74231,-0.00027875,0.,-0.00002722,-0.00005549,0.,0.00000911,0.00002145,
 0.,-0.00000110,0.00002074,0.,0.00005278,-0.00006698,0.,-0.00002419,0.0
 0003354,0.,0.13604361,-0.00411271,-0.00262436,0.,-0.00071988,0.0003173
 4,0.,-0.00088877,0.00143169,0.,0.00009628,-0.00009520,0.,0.00142512,-0
 .00068206,0.,0.01586062,-0.01900844,0.,-0.00243958,0.00389541,0.,0.000
 02893,-0.00002217,0.,0.00005823,0.00004483,0.,-0.00010428,-0.00000699,
 0.,-0.00041966,-0.00023259,0.,-0.00014670,0.00017789,0.,0.12210099,-0.
 26880723,-0.00000004,0.00173834,0.00123397,0.,0.00008554,0.00012335,0.
 ,-0.00031540,-0.00002100,0.,0.00027875,0.00093793,0.,0.00001481,0.0000
 0539,0.,0.00002145,-0.00001028,0.,0.00001817,-0.00001096,0.,0.00006698
 ,-0.00013444,0.,-0.00006837,0.00002935,0.,-0.13130135,0.28331545,0.,0.
 ,0.00378413,0.,0.,-0.00079572,0.,0.,0.01056093,0.,0.,-0.00075671,0.,0.
 ,0.00008382,0.,0.,0.00271676,0.,0.,0.00429815,0.,0.,0.00007325,0.,0.,0
 .00004151,0.,0.,0.00011502,0.,0.,0.00002886,0.,0.,-0.00001622,0.000000
 03,-0.00000004,-0.03720070,0.,0.,-0.00190631,0.,0.,-0.00082053,0.,0.,-
 0.00018704,0.,0.,-0.00597478,0.,0.,0.00024777,0.,0.,0.00001109,0.,0.,0
 .00011279,0.,0.,-0.00001999,0.,0.,0.00004290,-0.00000003,0.00000005,0.
 02528013,-0.00547694,-0.00165071,0.,0.00005901,0.00169350,0.,0.0000059
 6,0.00015598,0.,-0.00031377,-0.00005512,0.,-0.00099897,-0.00061368,0.,
 -0.01103018,0.02872697,0.,0.00016660,-0.00044838,0.,0.00019640,-0.0001
 8797,0.,-0.00022446,-0.00019148,0.,-0.00013779,0.00005563,0.,0.0003621
 6,-0.00007456,0.,-0.00080867,-0.00326340,0.,0.00126183,0.00184107,0.,-
 0.13144880,0.12144775,0.00000003,-0.00005526,0.00016857,0.,0.01190175,
 -0.01507334,0.,-0.00002722,-0.00001481,0.,-0.00003422,-0.00001079,0.,-
 0.00000110,0.00001817,0.,-0.00006160,0.00000533,0.,-0.00002419,0.00006
 837,0.,0.00037108,-0.00076587,0.,-0.00031037,-0.00123868,0.,0.13583004
 ,-0.00061659,0.00131149,0.,-0.00028401,-0.00001849,0.,-0.00024544,0.00
 021821,0.,0.00019881,0.00006813,0.,-0.00076593,0.00032570,0.,-0.001437
 76,0.00232298,0.,0.00045951,0.00000825,0.,0.00018222,-0.00009338,0.,-0
 .00009042,-0.00006028,0.,-0.00017440,-0.00007605,0.,0.00017641,-0.0000
 6020,0.,-0.00400783,-0.00300226,0.,-0.00160889,0.00102249,0.,0.1216163
 5,-0.26793699,-0.00000004,0.00003737,0.00019368,0.,0.01658764,-0.01822
 213,0.,0.00005549,0.00000539,0.,0.00001079,0.00000795,0.,0.00002074,-0
 .00001096,0.,0.00000533,-0.00000850,0.,-0.00003354,0.00002935,0.,0.000
 76587,-0.00102784,0.,0.00049336,0.00017485,0.,-0.13102581,0.28399997,0
 .,0.,0.00671505,0.,0.,0.00011015,0.,0.,0.00013004,0.,0.,-0.00003083,0.
 ,0.,-0.00101300,0.,0.,0.00314391,0.,0.,-0.00013915,0.,0.,-0.00000221,0
 .,0.,0.00009525,0.,0.,0.00000043,0.,0.,-0.00101522,0.,0.,0.00742859,0.
 ,0.,-0.00391493,0.00000003,-0.00000004,-0.03596565,0.,0.,0.00001783,0.
 ,0.,0.00271958,0.,0.,0.00024777,0.,0.,0.00002855,0.,0.,0.00011279,0.,0
 .,-0.00012057,0.,0.,0.00004290,0.,0.,0.00013217,0.,0.,0.00022787,-0.00
 000003,0.00000004,0.02498342,-0.00002475,0.,0.,0.00069233,0.,0.,0.0007
 7394,0.00294059,0.,0.00077395,-0.00294059,0.,0.00002507,-0.00002920,0.
 ,0.00002507,0.00002920,0.,-0.00061234,-0.00047152,0.,-0.01139926,-0.00
 299209,0.,-0.00061233,0.00047152,0.,-0.01139925,0.00299209,0.,-0.00007
 630,-0.00032194,0.,-0.00002951,-0.00001385,0.,-0.00007630,0.00032194,0
 .,-0.00002951,0.00001385,0.,-0.34173369,-0.00000005,0.00000006,0.00003
 275,0.,0.,0.00000987,0.00003652,0.,0.00079906,0.00032754,0.,0.00000987
 ,-0.00003652,0.,0.00079906,-0.00032754,0.,-0.00008188,0.00000229,0.,-0
 .00000036,-0.00000826,0.,-0.00008188,-0.00000229,0.,-0.00000036,0.0000
 0826,0.,0.36223121,0.,0.00011277,0.,0.,-0.00121133,0.,0.00244980,-0.00
 486304,0.,-0.00244979,-0.00486304,0.,0.00039716,-0.00019342,0.,-0.0003
 9716,-0.00019342,0.,0.00090043,0.00078554,0.,0.02866851,0.00496186,0.,
 -0.00090043,0.00078554,0.,-0.02866852,0.00496185,0.,-0.00041399,-0.000
 29995,0.,-0.00027864,0.00019859,0.,0.00041399,-0.00029995,0.,0.0002786
 4,0.00019859,0.,-0.00000005,-0.06062623,0.,0.,-0.00030936,0.,-0.000018
 90,-0.00003441,0.,-0.00043869,0.00082478,0.,0.00001890,-0.00003441,0.,
 0.00043869,0.00082478,0.,-0.00013798,0.00000268,0.,0.00000545,0.000003
 87,0.,0.00013798,0.00000268,0.,-0.00000545,0.00000387,0.,0.00000005,0.
 05926134,0.,0.,-0.00083500,0.,0.,-0.00089059,0.,0.,0.00785728,0.,0.,0.
 00785728,0.,0.,0.00009045,0.,0.,0.00009045,0.,0.,0.00020724,0.,0.,0.00
 256508,0.,0.,0.00020724,0.,0.,0.00256508,0.,0.,-0.00040518,0.,0.,0.000
 03670,0.,0.,-0.00040518,0.,0.,0.00003670,0.00000006,0.,-0.03742196,0.,
 0.,-0.00000105,0.,0.,0.00008192,0.,0.,-0.00392957,0.,0.,0.00008192,0.,
 0.,-0.00392957,0.,0.,-0.00002891,0.,0.,-0.00000517,0.,0.,-0.00002891,0
 .,0.,-0.00000517,-0.00000006,0.,0.02619827,0.00069233,0.,0.,-0.0000247
 5,0.,0.,0.00002507,-0.00002920,0.,0.00002507,0.00002920,0.,0.00077394,
 0.00294060,0.,0.00077395,-0.00294059,0.,-0.00007630,-0.00032194,0.,-0.
 00002951,-0.00001385,0.,-0.00007630,0.00032194,0.,-0.00002951,0.000013
 85,0.,-0.00061234,-0.00047152,0.,-0.01139926,-0.00299209,0.,-0.0006123
 3,0.00047152,0.,-0.01139924,0.00299208,0.,0.00003275,0.,0.,-0.34173369
 ,-0.00000008,0.00000006,-0.00008188,0.00000229,0.,-0.00000036,-0.00000
 826,0.,-0.00008188,-0.00000229,0.,-0.00000036,0.00000826,0.,0.00000987
 ,0.00003652,0.,0.00079907,0.00032754,0.,0.00000987,-0.00003652,0.,0.00
 079906,-0.00032754,0.,-0.00001449,0.,0.,0.36223121,0.,-0.00121133,0.,0
 .,0.00011277,0.,0.00039716,-0.00019342,0.,-0.00039716,-0.00019342,0.,0
 .00244980,-0.00486304,0.,-0.00244979,-0.00486304,0.,-0.00041399,-0.000
 29995,0.,-0.00027864,0.00019859,0.,0.00041399,-0.00029995,0.,0.0002786
 4,0.00019859,0.,0.00090043,0.00078554,0.,0.02866851,0.00496186,0.,-0.0
 0090043,0.00078554,0.,-0.02866852,0.00496185,0.,0.,-0.00030936,0.,-0.0
 0000008,-0.06062623,0.,-0.00013798,0.00000268,0.,0.00000545,0.00000387
 ,0.,0.00013798,0.00000268,0.,-0.00000545,0.00000387,0.,-0.00001890,-0.
 00003441,0.,-0.00043869,0.00082478,0.,0.00001890,-0.00003441,0.,0.0004
 3869,0.00082478,0.,0.,-0.00000019,0.,0.00000008,0.05926134,0.,0.,-0.00
 089059,0.,0.,-0.00083500,0.,0.,0.00009045,0.,0.,0.00009045,0.,0.,0.007
 85728,0.,0.,0.00785728,0.,0.,-0.00040518,0.,0.,0.00003670,0.,0.,-0.000
 40518,0.,0.,0.00003670,0.,0.,0.00020724,0.,0.,0.00256508,0.,0.,0.00020
 724,0.,0.,0.00256508,0.,0.,-0.00000105,0.00000006,0.,-0.03742196,0.,0.
 ,-0.00002891,0.,0.,-0.00000517,0.,0.,-0.00002891,0.,0.,-0.00000517,0.,
 0.,0.00008192,0.,0.,-0.00392957,0.,0.,0.00008192,0.,0.,-0.00392957,0.,
 0.,0.00001066,-0.00000007,0.,0.02619827\\0.00000180,0.00000002,0.,-0.0
 0000180,0.00000002,0.,0.00000670,-0.00000688,0.,0.00000677,0.00000688,
 0.,-0.00000678,0.00000688,0.,-0.00000669,-0.00000688,0.,0.00000068,0.0
 0000083,0.,-0.00000054,-0.00000133,0.,0.00000064,-0.00000084,0.,-0.000
 00059,0.00000130,0.,-0.00000064,-0.00000085,0.,0.00000061,0.00000128,0
 .,-0.00000068,0.00000082,0.,0.00000052,-0.00000134,0.,0.00000397,0.000
 00003,0.,-0.00000397,0.00000006,0.,-0.00000195,0.00000128,0.,-0.000000
 25,-0.00000061,0.,-0.00000194,-0.00000128,0.,-0.00000025,0.00000061,0.
 ,0.00000194,-0.00000128,0.,0.00000025,0.00000062,0.,0.00000195,0.00000
 128,0.,0.00000026,-0.00000061,0.,0.00000005,0.,0.,-0.00000005,0.,0.\\\
 @


 A SLIP OF THE FOOT YOU MAY SOON RECOVER, BUT A SLIP OF THE TONGUE
 YOU MAY NEVER GET OVER. -- BEN FRANKLIN
 Job cpu time:       0 days 18 hours 14 minutes 43.0 seconds.
 File lengths (MBytes):  RWF=    706 Int=      0 D2E=      0 Chk=     23 Scr=      1
 Normal termination of Gaussian 09 at Fri Jul  9 21:18:57 2021.
