 Entering Gaussian System, Link 0=g09
 Initial command:
 /home/minenky/programs//g09/l1.exe "/local/scratch/minenky/m1_00_4218-50-22_C2H4_wB97XD/Gau-140342.inp" -scrdir="/local/scratch/minenky/m1_00_4218-50-22_C2H4_wB97XD/"
 Entering Link 1 = /home/minenky/programs//g09/l1.exe PID=    140343.
  
 Copyright (c) 1988,1990,1992,1993,1995,1998,2003,2009,2013,
            Gaussian, Inc.  All Rights Reserved.
  
 This is part of the Gaussian(R) 09 program.  It is based on
 the Gaussian(R) 03 system (copyright 2003, Gaussian, Inc.),
 the Gaussian(R) 98 system (copyright 1998, Gaussian, Inc.),
 the Gaussian(R) 94 system (copyright 1995, Gaussian, Inc.),
 the Gaussian 92(TM) system (copyright 1992, Gaussian, Inc.),
 the Gaussian 90(TM) system (copyright 1990, Gaussian, Inc.),
 the Gaussian 88(TM) system (copyright 1988, Gaussian, Inc.),
 the Gaussian 86(TM) system (copyright 1986, Carnegie Mellon
 University), and the Gaussian 82(TM) system (copyright 1983,
 Carnegie Mellon University). Gaussian is a federally registered
 trademark of Gaussian, Inc.
  
 This software contains proprietary and confidential information,
 including trade secrets, belonging to Gaussian, Inc.
  
 This software is provided under written license and may be
 used, copied, transmitted, or stored only in accord with that
 written license.
  
 The following legend is applicable only to US Government
 contracts under FAR:
  
                    RESTRICTED RIGHTS LEGEND
  
 Use, reproduction and disclosure by the US Government is
 subject to restrictions as set forth in subparagraphs (a)
 and (c) of the Commercial Computer Software - Restricted
 Rights clause in FAR 52.227-19.
  
 Gaussian, Inc.
 340 Quinnipiac St., Bldg. 40, Wallingford CT 06492
  
  
 ---------------------------------------------------------------
 Warning -- This program may not be used in any manner that
 competes with the business of Gaussian, Inc. or will provide
 assistance to any competitor of Gaussian, Inc.  The licensee
 of this program is prohibited from giving any competitor of
 Gaussian, Inc. access to this program.  By using this program,
 the user acknowledges that Gaussian, Inc. is engaged in the
 business of creating and licensing software in the field of
 computational chemistry and represents and warrants to the
 licensee that it is not a competitor of Gaussian, Inc. and that
 it will not use this program in any manner prohibited above.
 ---------------------------------------------------------------
  

 Cite this work as:
 Gaussian 09, Revision D.01,
 M. J. Frisch, G. W. Trucks, H. B. Schlegel, G. E. Scuseria, 
 M. A. Robb, J. R. Cheeseman, G. Scalmani, V. Barone, B. Mennucci, 
 G. A. Petersson, H. Nakatsuji, M. Caricato, X. Li, H. P. Hratchian, 
 A. F. Izmaylov, J. Bloino, G. Zheng, J. L. Sonnenberg, M. Hada, 
 M. Ehara, K. Toyota, R. Fukuda, J. Hasegawa, M. Ishida, T. Nakajima, 
 Y. Honda, O. Kitao, H. Nakai, T. Vreven, J. A. Montgomery, Jr., 
 J. E. Peralta, F. Ogliaro, M. Bearpark, J. J. Heyd, E. Brothers, 
 K. N. Kudin, V. N. Staroverov, T. Keith, R. Kobayashi, J. Normand, 
 K. Raghavachari, A. Rendell, J. C. Burant, S. S. Iyengar, J. Tomasi, 
 M. Cossi, N. Rega, J. M. Millam, M. Klene, J. E. Knox, J. B. Cross, 
 V. Bakken, C. Adamo, J. Jaramillo, R. Gomperts, R. E. Stratmann, 
 O. Yazyev, A. J. Austin, R. Cammi, C. Pomelli, J. W. Ochterski, 
 R. L. Martin, K. Morokuma, V. G. Zakrzewski, G. A. Voth, 
 P. Salvador, J. J. Dannenberg, S. Dapprich, A. D. Daniels, 
 O. Farkas, J. B. Foresman, J. V. Ortiz, J. Cioslowski, 
 and D. J. Fox, Gaussian, Inc., Wallingford CT, 2013.
 
 ******************************************
 Gaussian 09:  AM64L-G09RevD.01 24-Apr-2013
                 9-Jul-2021 
 ******************************************
 %Mem=32000MB
 %NProcShared=16
 Will use up to   16 processors via shared memory.
 %Chk=m1_00_4218-50-22_C2H4_wB97XD
 ----------------------------------------------------------------------
 #P wB97XD/def2tzvp opt=(tight) freq integral(Grid=ultrafine) # SCF(Max
 Cycle=380) 5d 7f GFPrint
 ----------------------------------------------------------------------
 1/7=10,14=-1,18=20,19=15,26=4,38=1/1,3;
 2/9=110,12=2,17=6,18=5,40=1/2;
 3/5=44,7=101,8=11,11=2,16=1,24=100,25=1,30=1,71=1,74=-58,75=-5/1,2,3;
 4//1;
 5/5=2,7=380,38=5/2;
 6/7=2,8=2,9=2,10=2,28=1/1;
 7//1,2,3,16;
 1/7=10,14=-1,18=20,19=15,26=4/3(2);
 2/9=110/2;
 99//99;
 2/9=110/2;
 3/5=44,7=101,8=11,11=2,16=1,25=1,30=1,71=1,74=-58,75=-5/1,2,3;
 4/5=5,16=3,69=1/1;
 5/5=2,7=380,38=5/2;
 7//1,2,3,16;
 1/7=10,14=-1,18=20,19=15,26=4/3(-5);
 2/9=110/2;
 6/7=2,8=2,9=2,10=2,19=2,28=1/1;
 99/9=1/99;
 Leave Link    1 at Fri Jul  9 19:19:35 2021, MaxMem=  4194304000 cpu:         1.0
 (Enter /home/minenky/programs//g09/l101.exe)
 ---------------------------------------
 The PBEPBE optimization and frequencies
 ---------------------------------------
 Symbolic Z-matrix:
 Charge =  0 Multiplicity = 1
 C                     0.59024   0.02195  -0.03088 
 C                    -0.84429  -0.19079  -0.03869 
 H                    -1.3123    0.81226   0.00411 
 H                     0.60933   0.07773   1.09096 
 H                     1.02356   0.96473  -0.38681 
 H                     1.20372  -0.84167  -0.29085 
 
 NAtoms=      6 NQM=        6 NQMF=       0 NMMI=      0 NMMIF=      0
                NMic=       0 NMicF=      0.
                    Isotopes and Nuclear Properties:
 (Nuclear quadrupole moments (NQMom) in fm**2, nuclear magnetic moments (NMagM)
  in nuclear magnetons)

  Atom         1           2           3           4           5           6
 IAtWgt=          12          12           1           1           1           1
 AtmWgt=  12.0000000  12.0000000   1.0078250   1.0078250   1.0078250   1.0078250
 NucSpn=           0           0           1           1           1           1
 AtZEff=   0.0000000   0.0000000   0.0000000   0.0000000   0.0000000   0.0000000
 NQMom=    0.0000000   0.0000000   0.0000000   0.0000000   0.0000000   0.0000000
 NMagM=    0.0000000   0.0000000   2.7928460   2.7928460   2.7928460   2.7928460
 AtZNuc=   6.0000000   6.0000000   1.0000000   1.0000000   1.0000000   1.0000000
 Leave Link  101 at Fri Jul  9 19:19:35 2021, MaxMem=  4194304000 cpu:         1.6
 (Enter /home/minenky/programs//g09/l103.exe)

 GradGradGradGradGradGradGradGradGradGradGradGradGradGradGradGradGradGrad
 Berny optimization.
 Initialization pass.
                           ----------------------------
                           !    Initial Parameters    !
                           ! (Angstroms and Degrees)  !
 --------------------------                            --------------------------
 ! Name  Definition              Value          Derivative Info.                !
 --------------------------------------------------------------------------------
 ! R1    R(1,2)                  1.4502         estimate D2E/DX2                !
 ! R2    R(1,4)                  1.1234         estimate D2E/DX2                !
 ! R3    R(1,5)                  1.097          estimate D2E/DX2                !
 ! R4    R(1,6)                  1.0908         estimate D2E/DX2                !
 ! R5    R(2,3)                  1.1077         estimate D2E/DX2                !
 ! A1    A(2,1,4)               91.6892         estimate D2E/DX2                !
 ! A2    A(2,1,5)              121.0027         estimate D2E/DX2                !
 ! A3    A(2,1,6)              116.0346         estimate D2E/DX2                !
 ! A4    A(4,1,5)              105.9402         estimate D2E/DX2                !
 ! A5    A(4,1,6)              105.5312         estimate D2E/DX2                !
 ! A6    A(5,1,6)              112.3933         estimate D2E/DX2                !
 ! A7    A(1,2,3)              106.5522         estimate D2E/DX2                !
 ! D1    D(4,1,2,3)             84.924          estimate D2E/DX2                !
 ! D2    D(5,1,2,3)            -24.8474         estimate D2E/DX2                !
 ! D3    D(6,1,2,3)           -166.8638         estimate D2E/DX2                !
 --------------------------------------------------------------------------------
 Trust Radius=3.00D-01 FncErr=1.00D-07 GrdErr=1.00D-06
 Number of steps in this run=     25 maximum allowed number of steps=    100.
 GradGradGradGradGradGradGradGradGradGradGradGradGradGradGradGradGradGrad

 Leave Link  103 at Fri Jul  9 19:19:36 2021, MaxMem=  4194304000 cpu:         0.0
 (Enter /home/minenky/programs//g09/l202.exe)
                          Input orientation:                          
 ---------------------------------------------------------------------
 Center     Atomic      Atomic             Coordinates (Angstroms)
 Number     Number       Type             X           Y           Z
 ---------------------------------------------------------------------
      1          6           0        0.590235    0.021948   -0.030876
      2          6           0       -0.844287   -0.190791   -0.038694
      3          1           0       -1.312295    0.812257    0.004113
      4          1           0        0.609326    0.077729    1.090958
      5          1           0        1.023563    0.964733   -0.386805
      6          1           0        1.203721   -0.841665   -0.290846
 ---------------------------------------------------------------------
                    Distance matrix (angstroms):
                    1          2          3          4          5
     1  C    0.000000
     2  C    1.450232   0.000000
     3  H    2.060445   1.107686   0.000000
     4  H    1.123382   1.860432   2.326669   0.000000
     5  H    1.096951   2.223799   2.373246   1.772612   0.000000
     6  H    1.090769   2.163690   3.025359   1.762944   1.817894
                    6
     6  H    0.000000
 Stoichiometry    C2H4
 Framework group  C1[X(C2H4)]
 Deg. of freedom    12
 Full point group                 C1      NOp   1
 Largest Abelian subgroup         C1      NOp   1
 Largest concise Abelian subgroup C1      NOp   1
                         Standard orientation:                         
 ---------------------------------------------------------------------
 Center     Atomic      Atomic             Coordinates (Angstroms)
 Number     Number       Type             X           Y           Z
 ---------------------------------------------------------------------
      1          6           0        0.590235    0.021948   -0.030876
      2          6           0       -0.844287   -0.190791   -0.038694
      3          1           0       -1.312295    0.812257    0.004113
      4          1           0        0.609326    0.077729    1.090958
      5          1           0        1.023563    0.964734   -0.386805
      6          1           0        1.203721   -0.841664   -0.290846
 ---------------------------------------------------------------------
 Rotational constants (GHZ):    122.6014858     26.8773375     25.2577833
 Leave Link  202 at Fri Jul  9 19:19:36 2021, MaxMem=  4194304000 cpu:         0.9
 (Enter /home/minenky/programs//g09/l301.exe)
 Standard basis: def2TZVP (5D, 7F)
 ======================================================================================================
                                       Pseudopotential Parameters
 ======================================================================================================
  Center     Atomic      Valence      Angular      Power
  Number     Number     Electrons     Momentum     of R      Exponent        Coefficient   SO-Coeffient
 ======================================================================================================
    1          6
                                   No pseudopotential on this center.
    2          6
                                   No pseudopotential on this center.
    3          1
                                   No pseudopotential on this center.
    4          1
                                   No pseudopotential on this center.
    5          1
                                   No pseudopotential on this center.
    6          1
                                   No pseudopotential on this center.
 ======================================================================================================
 Ernie: Thresh=  0.10000D-02 Tol=  0.10000D-05 Strict=F.
 AO basis set (Overlap normalization):
 Atom C1       Shell     1 S   6     bf    1 -     1          1.115382138414          0.041476485633         -0.058347184079
      0.1357534968D+05  0.6064550360D-03
      0.2035233368D+04  0.4697908888D-02
      0.4632256236D+03  0.2433247765D-01
      0.1312001960D+03  0.9739996831D-01
      0.4285301589D+02  0.3019558425D+00
      0.1558418577D+02  0.6623360914D+00
 Atom C1       Shell     2 S   2     bf    2 -     2          1.115382138414          0.041476485633         -0.058347184079
      0.6206713851D+01  0.6559530854D+00
      0.2576489653D+01  0.3758563329D+00
 Atom C1       Shell     3 S   1     bf    3 -     3          1.115382138414          0.041476485633         -0.058347184079
      0.5769633942D+00  0.1000000000D+01
 Atom C1       Shell     4 S   1     bf    4 -     4          1.115382138414          0.041476485633         -0.058347184079
      0.2297283136D+00  0.1000000000D+01
 Atom C1       Shell     5 S   1     bf    5 -     5          1.115382138414          0.041476485633         -0.058347184079
      0.9516444003D-01  0.1000000000D+01
 Atom C1       Shell     6 P   4     bf    6 -     8          1.115382138414          0.041476485633         -0.058347184079
      0.3469723224D+02  0.1132722000D-01
      0.7958262283D+01  0.7616965920D-01
      0.2378082688D+01  0.3019225220D+00
      0.8143320818D+00  0.7278502735D+00
 Atom C1       Shell     7 P   1     bf    9 -    11          1.115382138414          0.041476485633         -0.058347184079
      0.2888754725D+00  0.1000000000D+01
 Atom C1       Shell     8 P   1     bf   12 -    14          1.115382138414          0.041476485633         -0.058347184079
      0.1005682367D+00  0.1000000000D+01
 Atom C1       Shell     9 D   1     bf   15 -    19          1.115382138414          0.041476485633         -0.058347184079
      0.1097000000D+01  0.1000000000D+01
 Atom C1       Shell    10 D   1     bf   20 -    24          1.115382138414          0.041476485633         -0.058347184079
      0.3180000000D+00  0.1000000000D+01
 Atom C1       Shell    11 F   1     bf   25 -    31          1.115382138414          0.041476485633         -0.058347184079
      0.7610000000D+00  0.1000000000D+01
 Atom C2       Shell    12 S   6     bf   32 -    32         -1.595471463601         -0.360542701090         -0.073121062986
      0.1357534968D+05  0.6064550360D-03
      0.2035233368D+04  0.4697908888D-02
      0.4632256236D+03  0.2433247765D-01
      0.1312001960D+03  0.9739996831D-01
      0.4285301589D+02  0.3019558425D+00
      0.1558418577D+02  0.6623360914D+00
 Atom C2       Shell    13 S   2     bf   33 -    33         -1.595471463601         -0.360542701090         -0.073121062986
      0.6206713851D+01  0.6559530854D+00
      0.2576489653D+01  0.3758563329D+00
 Atom C2       Shell    14 S   1     bf   34 -    34         -1.595471463601         -0.360542701090         -0.073121062986
      0.5769633942D+00  0.1000000000D+01
 Atom C2       Shell    15 S   1     bf   35 -    35         -1.595471463601         -0.360542701090         -0.073121062986
      0.2297283136D+00  0.1000000000D+01
 Atom C2       Shell    16 S   1     bf   36 -    36         -1.595471463601         -0.360542701090         -0.073121062986
      0.9516444003D-01  0.1000000000D+01
 Atom C2       Shell    17 P   4     bf   37 -    39         -1.595471463601         -0.360542701090         -0.073121062986
      0.3469723224D+02  0.1132722000D-01
      0.7958262283D+01  0.7616965920D-01
      0.2378082688D+01  0.3019225220D+00
      0.8143320818D+00  0.7278502735D+00
 Atom C2       Shell    18 P   1     bf   40 -    42         -1.595471463601         -0.360542701090         -0.073121062986
      0.2888754725D+00  0.1000000000D+01
 Atom C2       Shell    19 P   1     bf   43 -    45         -1.595471463601         -0.360542701090         -0.073121062986
      0.1005682367D+00  0.1000000000D+01
 Atom C2       Shell    20 D   1     bf   46 -    50         -1.595471463601         -0.360542701090         -0.073121062986
      0.1097000000D+01  0.1000000000D+01
 Atom C2       Shell    21 D   1     bf   51 -    55         -1.595471463601         -0.360542701090         -0.073121062986
      0.3180000000D+00  0.1000000000D+01
 Atom C2       Shell    22 F   1     bf   56 -    62         -1.595471463601         -0.360542701090         -0.073121062986
      0.7610000000D+00  0.1000000000D+01
 Atom H3       Shell    23 S   3     bf   63 -    63         -2.479878928281          1.534943075973          0.007772443585
      0.3406134100D+02  0.2543930721D-01
      0.5123574600D+01  0.1900859489D+00
      0.1164662600D+01  0.8524411301D+00
 Atom H3       Shell    24 S   1     bf   64 -    64         -2.479878928281          1.534943075973          0.007772443585
      0.3272304100D+00  0.1000000000D+01
 Atom H3       Shell    25 S   1     bf   65 -    65         -2.479878928281          1.534943075973          0.007772443585
      0.1030724100D+00  0.1000000000D+01
 Atom H3       Shell    26 P   1     bf   66 -    68         -2.479878928281          1.534943075973          0.007772443585
      0.8000000000D+00  0.1000000000D+01
 Atom H4       Shell    27 S   3     bf   69 -    69          1.151458871284          0.146887308885          2.061611842481
      0.3406134100D+02  0.2543930721D-01
      0.5123574600D+01  0.1900859489D+00
      0.1164662600D+01  0.8524411301D+00
 Atom H4       Shell    28 S   1     bf   70 -    70          1.151458871284          0.146887308885          2.061611842481
      0.3272304100D+00  0.1000000000D+01
 Atom H4       Shell    29 S   1     bf   71 -    71          1.151458871284          0.146887308885          2.061611842481
      0.1030724100D+00  0.1000000000D+01
 Atom H4       Shell    30 P   1     bf   72 -    74          1.151458871284          0.146887308885          2.061611842481
      0.8000000000D+00  0.1000000000D+01
 Atom H5       Shell    31 S   3     bf   75 -    75          1.934252898486          1.823082161037         -0.730955516831
      0.3406134100D+02  0.2543930721D-01
      0.5123574600D+01  0.1900859489D+00
      0.1164662600D+01  0.8524411301D+00
 Atom H5       Shell    32 S   1     bf   76 -    76          1.934252898486          1.823082161037         -0.730955516831
      0.3272304100D+00  0.1000000000D+01
 Atom H5       Shell    33 S   1     bf   77 -    77          1.934252898486          1.823082161037         -0.730955516831
      0.1030724100D+00  0.1000000000D+01
 Atom H5       Shell    34 P   1     bf   78 -    80          1.934252898486          1.823082161037         -0.730955516831
      0.8000000000D+00  0.1000000000D+01
 Atom H6       Shell    35 S   3     bf   81 -    81          2.274703109630         -1.590515253154         -0.549619286845
      0.3406134100D+02  0.2543930721D-01
      0.5123574600D+01  0.1900859489D+00
      0.1164662600D+01  0.8524411301D+00
 Atom H6       Shell    36 S   1     bf   82 -    82          2.274703109630         -1.590515253154         -0.549619286845
      0.3272304100D+00  0.1000000000D+01
 Atom H6       Shell    37 S   1     bf   83 -    83          2.274703109630         -1.590515253154         -0.549619286845
      0.1030724100D+00  0.1000000000D+01
 Atom H6       Shell    38 P   1     bf   84 -    86          2.274703109630         -1.590515253154         -0.549619286845
      0.8000000000D+00  0.1000000000D+01
 There are    96 symmetry adapted cartesian basis functions of A   symmetry.
 There are    86 symmetry adapted basis functions of A   symmetry.
    86 basis functions,   134 primitive gaussians,    96 cartesian basis functions
     8 alpha electrons        8 beta electrons
       nuclear repulsion energy        32.2920210307 Hartrees.
 IExCor= 4639 DFT=T Ex+Corr=wB97XD ExCW=0 ScaHFX=  1.000000
 ScaDFX=  1.000000  1.000000  1.000000  1.000000 ScalE2=  1.000000  1.000000
 IRadAn=      5 IRanWt=     -1 IRanGd=            0 ICorTp=0 IEmpDi=121
  HFx wShort=  0.000000 wLong=  0.200000 cFull=  0.222036 cShort=  0.000000 cLong=  0.777964
  DFx wShort=  0.000000 wLong=  0.200000 cFull=  0.000000 cShort=  0.000000 cLong=  1.000000
 NAtoms=    6 NActive=    6 NUniq=    6 SFac= 1.00D+00 NAtFMM=   60 NAOKFM=F Big=F
 Integral buffers will be    131072 words long.
 Raffenetti 2 integral format.
 Two-electron integral symmetry is turned on.
 R6Disp:  Grimme-D2 Dispersion energy=       -0.0008294506 Hartrees.
 Nuclear repulsion after empirical dispersion term =       32.2911915801 Hartrees.
 Leave Link  301 at Fri Jul  9 19:19:36 2021, MaxMem=  4194304000 cpu:         0.5
 (Enter /home/minenky/programs//g09/l302.exe)
 NPDir=0 NMtPBC=     1 NCelOv=     1 NCel=       1 NClECP=     1 NCelD=      1
         NCelK=      1 NCelE2=     1 NClLst=     1 CellRange=     0.0.
 One-electron integrals computed using PRISM.
   1 Symmetry operations used in ECPInt.
 ECPInt:  NShTT=     741 NPrTT=    2136 LenC2=     741 LenP2D=    1977.
 LDataN:  DoStor=T MaxTD1= 6 Len=  172
 NBasis=    86 RedAO= T EigKep=  4.55D-04  NBF=    86
 NBsUse=    86 1.00D-06 EigRej= -1.00D+00 NBFU=    86
 Precomputing XC quadrature grid using
 IXCGrd= 4 IRadAn=           5 IRanWt=          -1 IRanGd=           0 AccXCQ= 0.00D+00.
 Generated NRdTot=       0 NPtTot=           0 NUsed=           0 NTot=          32
 NSgBfM=    96    96    96    96    96 MxSgAt=     6 MxSgA2=     6.
 Leave Link  302 at Fri Jul  9 19:19:38 2021, MaxMem=  4194304000 cpu:        12.4
 (Enter /home/minenky/programs//g09/l303.exe)
 DipDrv:  MaxL=1.
 Leave Link  303 at Fri Jul  9 19:19:38 2021, MaxMem=  4194304000 cpu:         2.6
 (Enter /home/minenky/programs//g09/l401.exe)
 ExpMin= 9.52D-02 ExpMax= 1.36D+04 ExpMxC= 4.63D+02 IAcc=3 IRadAn=         5 AccDes= 0.00D+00
 Harris functional with IExCor= 4639 and IRadAn=       5 diagonalized for initial guess.
 HarFok:  IExCor= 4639 AccDes= 0.00D+00 IRadAn=         5 IDoV= 1 UseB2=F ITyADJ=14
 ICtDFT=  3500011 ScaDFX=  1.000000  1.000000  1.000000  1.000000
 FoFCou: FMM=F IPFlag=           0 FMFlag=      100000 FMFlg1=           0
         NFxFlg=           0 DoJE=T BraDBF=F KetDBF=T FulRan=T
         wScrn=  0.000000 ICntrl=     500 IOpCl=  0 I1Cent=   200000004 NGrid=           0
         NMat0=    1 NMatS0=      1 NMatT0=    0 NMatD0=    1 NMtDS0=    0 NMtDT0=    0
 Petite list used in FoFCou.
 Harris En= -74.5920274069553    
 JPrj=0 DoOrth=F DoCkMO=F.
 Leave Link  401 at Fri Jul  9 19:19:39 2021, MaxMem=  4194304000 cpu:        13.2
 (Enter /home/minenky/programs//g09/l502.exe)
 Closed shell SCF:
 Using DIIS extrapolation, IDIIS=  1040.
 Integral symmetry usage will be decided dynamically.
 Keep R1 ints in memory in canonical form, NReq=16158887.
 IVT=      177722 IEndB=      177722 NGot=  4194304000 MDV=  4180127457
 LenX=  4180127457 LenY=  4180117800
 Requested convergence on RMS density matrix=1.00D-08 within 380 cycles.
 Requested convergence on MAX density matrix=1.00D-06.
 Requested convergence on             energy=1.00D-06.
 No special actions if energy rises.
 FoFCou: FMM=F IPFlag=           0 FMFlag=           0 FMFlg1=           0
         NFxFlg=           0 DoJE=F BraDBF=F KetDBF=F FulRan=T
         wScrn=  0.000000 ICntrl=     600 IOpCl=  0 I1Cent=           0 NGrid=           0
         NMat0=    1 NMatS0=   3741 NMatT0=    0 NMatD0=    1 NMtDS0=    0 NMtDT0=    0
 Symmetry not used in FoFCou.
 Integral accuracy reduced to 1.0D-05 until final iterations.

 Cycle   1  Pass 0  IDiag  1:
 E= -78.4410361571194    
 DIIS: error= 4.38D-02 at cycle   1 NSaved=   1.
 NSaved= 1 IEnMin= 1 EnMin= -78.4410361571194     IErMin= 1 ErrMin= 4.38D-02
 ErrMax= 4.38D-02  0.00D+00 EMaxC= 1.00D-01 BMatC= 1.71D-01 BMatP= 1.71D-01
 IDIUse=3 WtCom= 5.62D-01 WtEn= 4.38D-01
 Coeff-Com:  0.100D+01
 Coeff-En:   0.100D+01
 Coeff:      0.100D+01
 Gap=     0.289 Goal=   None    Shift=    0.000
 GapD=    0.289 DampG=1.000 DampE=0.500 DampFc=0.5000 IDamp=-1.
 Damping current iteration by 5.00D-01
 RMSDP=1.66D-03 MaxDP=2.92D-02              OVMax= 5.17D-02

 Cycle   2  Pass 0  IDiag  1:
 E= -78.4547476084236     Delta-E=       -0.013711451304 Rises=F Damp=T
 DIIS: error= 2.07D-02 at cycle   2 NSaved=   2.
 NSaved= 2 IEnMin= 2 EnMin= -78.4547476084236     IErMin= 2 ErrMin= 2.07D-02
 ErrMax= 2.07D-02  0.00D+00 EMaxC= 1.00D-01 BMatC= 3.75D-02 BMatP= 1.71D-01
 IDIUse=3 WtCom= 7.93D-01 WtEn= 2.07D-01
 Coeff-Com: -0.817D+00 0.182D+01
 Coeff-En:   0.000D+00 0.100D+01
 Coeff:     -0.648D+00 0.165D+01
 Gap=     0.293 Goal=   None    Shift=    0.000
 RMSDP=8.03D-04 MaxDP=1.72D-02 DE=-1.37D-02 OVMax= 2.99D-02

 Cycle   3  Pass 0  IDiag  1:
 E= -78.4669650511575     Delta-E=       -0.012217442734 Rises=F Damp=F
 DIIS: error= 3.30D-03 at cycle   3 NSaved=   3.
 NSaved= 3 IEnMin= 3 EnMin= -78.4669650511575     IErMin= 3 ErrMin= 3.30D-03
 ErrMax= 3.30D-03  0.00D+00 EMaxC= 1.00D-01 BMatC= 1.25D-03 BMatP= 3.75D-02
 IDIUse=3 WtCom= 9.67D-01 WtEn= 3.30D-02
 Coeff-Com: -0.316D+00 0.678D+00 0.638D+00
 Coeff-En:   0.000D+00 0.000D+00 0.100D+01
 Coeff:     -0.305D+00 0.655D+00 0.650D+00
 Gap=     0.295 Goal=   None    Shift=    0.000
 RMSDP=2.59D-04 MaxDP=4.85D-03 DE=-1.22D-02 OVMax= 9.40D-03

 Cycle   4  Pass 0  IDiag  1:
 E= -78.4680970678436     Delta-E=       -0.001132016686 Rises=F Damp=F
 DIIS: error= 4.10D-04 at cycle   4 NSaved=   4.
 NSaved= 4 IEnMin= 4 EnMin= -78.4680970678436     IErMin= 4 ErrMin= 4.10D-04
 ErrMax= 4.10D-04  0.00D+00 EMaxC= 1.00D-01 BMatC= 8.29D-06 BMatP= 1.25D-03
 IDIUse=3 WtCom= 9.96D-01 WtEn= 4.10D-03
 Coeff-Com:  0.312D-01-0.666D-01 0.371D-03 0.104D+01
 Coeff-En:   0.000D+00 0.000D+00 0.000D+00 0.100D+01
 Coeff:      0.310D-01-0.664D-01 0.369D-03 0.103D+01
 Gap=     0.295 Goal=   None    Shift=    0.000
 RMSDP=5.40D-05 MaxDP=1.61D-03 DE=-1.13D-03 OVMax= 2.23D-03

 Cycle   5  Pass 0  IDiag  1:
 E= -78.4681111609708     Delta-E=       -0.000014093127 Rises=F Damp=F
 DIIS: error= 1.24D-04 at cycle   5 NSaved=   5.
 NSaved= 5 IEnMin= 5 EnMin= -78.4681111609708     IErMin= 5 ErrMin= 1.24D-04
 ErrMax= 1.24D-04  0.00D+00 EMaxC= 1.00D-01 BMatC= 7.64D-07 BMatP= 8.29D-06
 IDIUse=3 WtCom= 9.99D-01 WtEn= 1.24D-03
 Coeff-Com:  0.273D-01-0.587D-01-0.417D-01 0.226D+00 0.847D+00
 Coeff-En:   0.000D+00 0.000D+00 0.000D+00 0.000D+00 0.100D+01
 Coeff:      0.272D-01-0.587D-01-0.416D-01 0.226D+00 0.847D+00
 Gap=     0.295 Goal=   None    Shift=    0.000
 RMSDP=2.01D-05 MaxDP=5.83D-04 DE=-1.41D-05 OVMax= 5.61D-04

 Cycle   6  Pass 0  IDiag  1:
 E= -78.4681125440470     Delta-E=       -0.000001383076 Rises=F Damp=F
 DIIS: error= 3.92D-05 at cycle   6 NSaved=   6.
 NSaved= 6 IEnMin= 6 EnMin= -78.4681125440470     IErMin= 6 ErrMin= 3.92D-05
 ErrMax= 3.92D-05  0.00D+00 EMaxC= 1.00D-01 BMatC= 4.60D-08 BMatP= 7.64D-07
 IDIUse=1 WtCom= 1.00D+00 WtEn= 0.00D+00
 Coeff-Com:  0.113D-02-0.231D-02-0.569D-02-0.449D-01 0.759D-01 0.976D+00
 Coeff:      0.113D-02-0.231D-02-0.569D-02-0.449D-01 0.759D-01 0.976D+00
 Gap=     0.295 Goal=   None    Shift=    0.000
 RMSDP=7.68D-06 MaxDP=1.94D-04 DE=-1.38D-06 OVMax= 2.39D-04

 Initial convergence to 1.0D-05 achieved.  Increase integral accuracy.
 Cycle   7  Pass 1  IDiag  1:
 E= -78.4681306989051     Delta-E=       -0.000018154858 Rises=F Damp=F
 DIIS: error= 3.25D-05 at cycle   1 NSaved=   1.
 NSaved= 1 IEnMin= 1 EnMin= -78.4681306989051     IErMin= 1 ErrMin= 3.25D-05
 ErrMax= 3.25D-05  0.00D+00 EMaxC= 1.00D-01 BMatC= 1.21D-07 BMatP= 1.21D-07
 IDIUse=1 WtCom= 1.00D+00 WtEn= 0.00D+00
 Coeff-Com:  0.100D+01
 Coeff:      0.100D+01
 Gap=     0.295 Goal=   None    Shift=    0.000
 RMSDP=7.68D-06 MaxDP=1.94D-04 DE=-1.82D-05 OVMax= 9.67D-05

 Cycle   8  Pass 1  IDiag  1:
 E= -78.4681307922302     Delta-E=       -0.000000093325 Rises=F Damp=F
 DIIS: error= 5.69D-06 at cycle   2 NSaved=   2.
 NSaved= 2 IEnMin= 2 EnMin= -78.4681307922302     IErMin= 2 ErrMin= 5.69D-06
 ErrMax= 5.69D-06  0.00D+00 EMaxC= 1.00D-01 BMatC= 3.42D-09 BMatP= 1.21D-07
 IDIUse=1 WtCom= 1.00D+00 WtEn= 0.00D+00
 Coeff-Com: -0.221D-01 0.102D+01
 Coeff:     -0.221D-01 0.102D+01
 Gap=     0.295 Goal=   None    Shift=    0.000
 RMSDP=1.13D-06 MaxDP=2.02D-05 DE=-9.33D-08 OVMax= 4.02D-05

 Cycle   9  Pass 1  IDiag  1:
 E= -78.4681307979759     Delta-E=       -0.000000005746 Rises=F Damp=F
 DIIS: error= 3.45D-06 at cycle   3 NSaved=   3.
 NSaved= 3 IEnMin= 3 EnMin= -78.4681307979759     IErMin= 3 ErrMin= 3.45D-06
 ErrMax= 3.45D-06  0.00D+00 EMaxC= 1.00D-01 BMatC= 8.79D-10 BMatP= 3.42D-09
 IDIUse=1 WtCom= 1.00D+00 WtEn= 0.00D+00
 Coeff-Com: -0.326D-01 0.299D+00 0.734D+00
 Coeff:     -0.326D-01 0.299D+00 0.734D+00
 Gap=     0.295 Goal=   None    Shift=    0.000
 RMSDP=4.45D-07 MaxDP=5.86D-06 DE=-5.75D-09 OVMax= 2.40D-05

 Cycle  10  Pass 1  IDiag  1:
 E= -78.4681307995938     Delta-E=       -0.000000001618 Rises=F Damp=F
 DIIS: error= 1.44D-06 at cycle   4 NSaved=   4.
 NSaved= 4 IEnMin= 4 EnMin= -78.4681307995938     IErMin= 4 ErrMin= 1.44D-06
 ErrMax= 1.44D-06  0.00D+00 EMaxC= 1.00D-01 BMatC= 8.90D-11 BMatP= 8.79D-10
 IDIUse=1 WtCom= 1.00D+00 WtEn= 0.00D+00
 Coeff-Com:  0.692D-02-0.135D+00-0.471D-01 0.117D+01
 Coeff:      0.692D-02-0.135D+00-0.471D-01 0.117D+01
 Gap=     0.295 Goal=   None    Shift=    0.000
 RMSDP=3.43D-07 MaxDP=4.08D-06 DE=-1.62D-09 OVMax= 2.48D-05

 Cycle  11  Pass 1  IDiag  1:
 E= -78.4681308002152     Delta-E=       -0.000000000621 Rises=F Damp=F
 DIIS: error= 7.94D-07 at cycle   5 NSaved=   5.
 NSaved= 5 IEnMin= 5 EnMin= -78.4681308002152     IErMin= 5 ErrMin= 7.94D-07
 ErrMax= 7.94D-07  0.00D+00 EMaxC= 1.00D-01 BMatC= 2.45D-11 BMatP= 8.90D-11
 IDIUse=1 WtCom= 1.00D+00 WtEn= 0.00D+00
 Coeff-Com:  0.855D-02-0.884D-01-0.147D+00 0.163D+00 0.106D+01
 Coeff:      0.855D-02-0.884D-01-0.147D+00 0.163D+00 0.106D+01
 Gap=     0.295 Goal=   None    Shift=    0.000
 RMSDP=1.93D-07 MaxDP=2.67D-06 DE=-6.21D-10 OVMax= 1.63D-05

 Cycle  12  Pass 1  IDiag  1:
 E= -78.4681308004084     Delta-E=       -0.000000000193 Rises=F Damp=F
 DIIS: error= 3.97D-07 at cycle   6 NSaved=   6.
 NSaved= 6 IEnMin= 6 EnMin= -78.4681308004084     IErMin= 6 ErrMin= 3.97D-07
 ErrMax= 3.97D-07  0.00D+00 EMaxC= 1.00D-01 BMatC= 4.21D-12 BMatP= 2.45D-11
 IDIUse=1 WtCom= 1.00D+00 WtEn= 0.00D+00
 Coeff-Com: -0.392D-02 0.507D-01 0.704D-01-0.257D+00-0.447D+00 0.159D+01
 Coeff:     -0.392D-02 0.507D-01 0.704D-01-0.257D+00-0.447D+00 0.159D+01
 Gap=     0.295 Goal=   None    Shift=    0.000
 RMSDP=1.24D-07 MaxDP=1.84D-06 DE=-1.93D-10 OVMax= 1.19D-05

 Cycle  13  Pass 1  IDiag  1:
 E= -78.4681308004654     Delta-E=       -0.000000000057 Rises=F Damp=F
 DIIS: error= 1.66D-07 at cycle   7 NSaved=   7.
 NSaved= 7 IEnMin= 7 EnMin= -78.4681308004654     IErMin= 7 ErrMin= 1.66D-07
 ErrMax= 1.66D-07  0.00D+00 EMaxC= 1.00D-01 BMatC= 6.98D-13 BMatP= 4.21D-12
 IDIUse=1 WtCom= 1.00D+00 WtEn= 0.00D+00
 Coeff-Com: -0.132D-02 0.120D-01 0.273D-01-0.105D-01-0.218D+00 0.108D-02
 Coeff-Com:  0.119D+01
 Coeff:     -0.132D-02 0.120D-01 0.273D-01-0.105D-01-0.218D+00 0.108D-02
 Coeff:      0.119D+01
 Gap=     0.295 Goal=   None    Shift=    0.000
 RMSDP=4.66D-08 MaxDP=6.20D-07 DE=-5.70D-11 OVMax= 4.24D-06

 Cycle  14  Pass 1  IDiag  1:
 E= -78.4681308004716     Delta-E=       -0.000000000006 Rises=F Damp=F
 DIIS: error= 4.10D-08 at cycle   8 NSaved=   8.
 NSaved= 8 IEnMin= 8 EnMin= -78.4681308004716     IErMin= 8 ErrMin= 4.10D-08
 ErrMax= 4.10D-08  0.00D+00 EMaxC= 1.00D-01 BMatC= 8.95D-14 BMatP= 6.98D-13
 IDIUse=1 WtCom= 1.00D+00 WtEn= 0.00D+00
 Coeff-Com:  0.129D-03-0.334D-02-0.912D-03 0.327D-01-0.683D-02-0.207D+00
 Coeff-Com:  0.280D+00 0.906D+00
 Coeff:      0.129D-03-0.334D-02-0.912D-03 0.327D-01-0.683D-02-0.207D+00
 Coeff:      0.280D+00 0.906D+00
 Gap=     0.295 Goal=   None    Shift=    0.000
 RMSDP=1.26D-08 MaxDP=1.52D-07 DE=-6.22D-12 OVMax= 1.05D-06

 Cycle  15  Pass 1  IDiag  1:
 E= -78.4681308004725     Delta-E=       -0.000000000001 Rises=F Damp=F
 DIIS: error= 1.43D-08 at cycle   9 NSaved=   9.
 NSaved= 9 IEnMin= 9 EnMin= -78.4681308004725     IErMin= 9 ErrMin= 1.43D-08
 ErrMax= 1.43D-08  0.00D+00 EMaxC= 1.00D-01 BMatC= 1.30D-14 BMatP= 8.95D-14
 IDIUse=1 WtCom= 1.00D+00 WtEn= 0.00D+00
 Coeff-Com:  0.177D-03-0.211D-02-0.346D-02 0.881D-02 0.270D-01-0.352D-01
 Coeff-Com: -0.126D+00 0.189D+00 0.941D+00
 Coeff:      0.177D-03-0.211D-02-0.346D-02 0.881D-02 0.270D-01-0.352D-01
 Coeff:     -0.126D+00 0.189D+00 0.941D+00
 Gap=     0.295 Goal=   None    Shift=    0.000
 RMSDP=3.21D-09 MaxDP=4.08D-08 DE=-8.24D-13 OVMax= 1.74D-07

 SCF Done:  E(RwB97XD) =  -78.4681308005     A.U. after   15 cycles
            NFock= 15  Conv=0.32D-08     -V/T= 2.0055
 KE= 7.804226961871D+01 PE=-2.459532833473D+02 EE= 5.715169134800D+01
 Leave Link  502 at Fri Jul  9 19:19:46 2021, MaxMem=  4194304000 cpu:        91.3
 (Enter /home/minenky/programs//g09/l601.exe)
 Copying SCF densities to generalized density rwf, IOpCl= 0 IROHF=0.

 **********************************************************************

            Population analysis using the SCF density.

 **********************************************************************

 Orbital symmetries:
       Occupied  (A) (A) (A) (A) (A) (A) (A) (A)
       Virtual   (A) (A) (A) (A) (A) (A) (A) (A) (A) (A) (A) (A)
                 (A) (A) (A) (A) (A) (A) (A) (A) (A) (A) (A) (A)
                 (A) (A) (A) (A) (A) (A) (A) (A) (A) (A) (A) (A)
                 (A) (A) (A) (A) (A) (A) (A) (A) (A) (A) (A) (A)
                 (A) (A) (A) (A) (A) (A) (A) (A) (A) (A) (A) (A)
                 (A) (A) (A) (A) (A) (A) (A) (A) (A) (A) (A) (A)
                 (A) (A) (A) (A) (A) (A)
 The electronic state is 1-A.
 Alpha  occ. eigenvalues --  -10.32731 -10.30237  -0.88441  -0.67377  -0.54076
 Alpha  occ. eigenvalues --   -0.51720  -0.46015  -0.30299
 Alpha virt. eigenvalues --   -0.00761   0.11548   0.15969   0.16639   0.19355
 Alpha virt. eigenvalues --    0.24829   0.27613   0.30014   0.32566   0.35232
 Alpha virt. eigenvalues --    0.36276   0.39704   0.45180   0.49362   0.50006
 Alpha virt. eigenvalues --    0.55501   0.57610   0.58453   0.65793   0.77708
 Alpha virt. eigenvalues --    0.80342   0.92971   1.00551   1.01696   1.09714
 Alpha virt. eigenvalues --    1.14831   1.16843   1.22381   1.45144   1.51460
 Alpha virt. eigenvalues --    1.54552   1.58012   1.61944   1.63705   1.65173
 Alpha virt. eigenvalues --    1.68766   1.86955   1.88746   1.91403   2.00099
 Alpha virt. eigenvalues --    2.09615   2.18697   2.25565   2.30735   2.39578
 Alpha virt. eigenvalues --    2.45852   2.48899   2.53993   2.57265   2.63225
 Alpha virt. eigenvalues --    2.66718   2.76251   2.84033   2.90168   2.94992
 Alpha virt. eigenvalues --    3.04064   3.10500   3.13322   3.19272   3.21585
 Alpha virt. eigenvalues --    3.28504   3.29571   3.45317   3.47660   3.55584
 Alpha virt. eigenvalues --    3.62316   3.65664   3.78330   3.96452   4.10411
 Alpha virt. eigenvalues --    4.13899   4.21253   4.41083   4.51203   4.57116
 Alpha virt. eigenvalues --    4.74917  21.89868  22.38125
          Condensed to atoms (all electrons):
               1          2          3          4          5          6
     1  C    4.943479   0.251187  -0.022355   0.303567   0.367084   0.426909
     2  C    0.251187   5.741944   0.288469   0.043542  -0.014795  -0.066245
     3  H   -0.022355   0.288469   0.654083  -0.008736  -0.026057   0.012002
     4  H    0.303567   0.043542  -0.008736   0.534721  -0.002457  -0.022058
     5  H    0.367084  -0.014795  -0.026057  -0.002457   0.604582  -0.049136
     6  H    0.426909  -0.066245   0.012002  -0.022058  -0.049136   0.559351
 Mulliken charges:
               1
     1  C   -0.269871
     2  C   -0.244101
     3  H    0.102594
     4  H    0.151421
     5  H    0.120780
     6  H    0.139177
 Sum of Mulliken charges =   0.00000
 Mulliken charges with hydrogens summed into heavy atoms:
               1
     1  C    0.141507
     2  C   -0.141507
 Electronic spatial extent (au):  <R**2>=             86.0203
 Charge=              0.0000 electrons
 Dipole moment (field-independent basis, Debye):
    X=              1.8023    Y=              1.7228    Z=              0.2606  Tot=              2.5068
 Quadrupole moment (field-independent basis, Debye-Ang):
   XX=            -15.9466   YY=            -15.2096   ZZ=            -12.8682
   XY=             -2.5976   XZ=              0.2645   YZ=              0.0477
 Traceless Quadrupole moment (field-independent basis, Debye-Ang):
   XX=             -1.2718   YY=             -0.5348   ZZ=              1.8066
   XY=             -2.5976   XZ=              0.2645   YZ=              0.0477
 Octapole moment (field-independent basis, Debye-Ang**2):
  XXX=              6.8354  YYY=              3.6459  ZZZ=              1.0652  XYY=              3.5927
  XXY=              3.6855  XXZ=             -0.5076  XZZ=              1.0536  YZZ=              0.8791
  YYZ=             -0.4445  XYZ=             -0.0047
 Hexadecapole moment (field-independent basis, Debye-Ang**3):
 XXXX=            -83.2491 YYYY=            -30.8721 ZZZZ=            -19.1872 XXXY=             -7.7472
 XXXZ=             -0.0770 YYYX=             -4.9570 YYYZ=             -0.0915 ZZZX=              1.1741
 ZZZY=              0.2279 XXYY=            -18.8541 XXZZ=            -15.9549 YYZZ=             -8.8131
 XXYZ=              0.0899 YYXZ=             -0.5421 ZZXY=             -1.0471
 N-N= 3.229119158009D+01 E-N=-2.459532834137D+02  KE= 7.804226961871D+01
 No NMR shielding tensors so no spin-rotation constants.
 Leave Link  601 at Fri Jul  9 19:19:47 2021, MaxMem=  4194304000 cpu:         6.4
 (Enter /home/minenky/programs//g09/l701.exe)
 Compute integral first derivatives.
 ... and contract with generalized density number  0.
 R6Disp: Adding Grimme-D2 dispersion energy 1st derivatives to the gradient.
   1 Symmetry operations used in ECPInt.
 ECPInt:  NShTT=     741 NPrTT=    2136 LenC2=     741 LenP2D=    1977.
 LDataN:  DoStor=T MaxTD1= 7 Len=  274
 Leave Link  701 at Fri Jul  9 19:19:48 2021, MaxMem=  4194304000 cpu:        10.8
 (Enter /home/minenky/programs//g09/l702.exe)
 L702 exits ... SP integral derivatives will be done elsewhere.
 Leave Link  702 at Fri Jul  9 19:19:48 2021, MaxMem=  4194304000 cpu:         0.1
 (Enter /home/minenky/programs//g09/l703.exe)
 Compute integral first derivatives, UseDBF=F ICtDFT=           0.
 Integral derivatives from FoFJK, PRISM(SPDF).
 Calling FoFJK, ICntrl=      2127 FMM=F ISym2X=0 I1Cent= 0 IOpClX= 0 NMat=1 NMatS=1 NMatT=0.
 FoFJK:  IHMeth= 1 ICntrl=    2127 DoSepK=T KAlg= 0 I1Cent=   0 FoldK=F
 IRaf=         1 NMat=   1 IRICut=       1 DoRegI=T DoRafI=F ISym2E= 0.
 FoFCou: FMM=F IPFlag=           0 FMFlag=      100000 FMFlg1=         800
         NFxFlg=           0 DoJE=F BraDBF=F KetDBF=F FulRan=T
         wScrn=  0.000000 ICntrl=    2527 IOpCl=  0 I1Cent=           0 NGrid=           0
         NMat0=    1 NMatS0=      1 NMatT0=    0 NMatD0=    1 NMtDS0=    0 NMtDT0=    0
 Symmetry not used in FoFCou.
 Leave Link  703 at Fri Jul  9 19:19:49 2021, MaxMem=  4194304000 cpu:        15.4
 (Enter /home/minenky/programs//g09/l716.exe)
 Dipole        = 7.09060294D-01 6.77797760D-01 1.02509451D-01
 ***** Axes restored to original set *****
 -------------------------------------------------------------------
 Center     Atomic                   Forces (Hartrees/Bohr)
 Number     Number              X              Y              Z
 -------------------------------------------------------------------
      1        6           0.001077432    0.000493025    0.000814198
      2        6           0.000432250    0.000207984    0.000119152
      3        1           0.000153954   -0.000053052   -0.000052519
      4        1          -0.000385867   -0.000217448   -0.001012320
      5        1          -0.000819169   -0.000547662    0.000086032
      6        1          -0.000458600    0.000117152    0.000045458
 -------------------------------------------------------------------
 Cartesian Forces:  Max     0.001077432 RMS     0.000514558
 Leave Link  716 at Fri Jul  9 19:19:49 2021, MaxMem=  4194304000 cpu:         0.1
 (Enter /home/minenky/programs//g09/l103.exe)

 GradGradGradGradGradGradGradGradGradGradGradGradGradGradGradGradGradGrad
 Berny optimization.
 FormGI is forming the generalized inverse of G from B-inverse, IUseBI=4.
 Internal  Forces:  Max     0.001027988 RMS     0.000480897
 Search for a local minimum.
 Step number   1 out of a maximum of   25
 All quantities printed in internal units (Hartrees-Bohrs-Radians)
 RMS Force = .48090D-03 SwitMx=.10000D-02 MixMth= 2
 Mixed Optimization -- En-DIIS/RFO-DIIS
 Second derivative matrix not updated -- first step.
 The second derivative matrix:
                          R1        R2        R3        R4        R5
           R1           0.38215
           R2           0.00000   0.31223
           R3           0.00000   0.00000   0.34022
           R4           0.00000   0.00000   0.00000   0.34724
           R5           0.00000   0.00000   0.00000   0.00000   0.32846
           A1           0.00000   0.00000   0.00000   0.00000   0.00000
           A2           0.00000   0.00000   0.00000   0.00000   0.00000
           A3           0.00000   0.00000   0.00000   0.00000   0.00000
           A4           0.00000   0.00000   0.00000   0.00000   0.00000
           A5           0.00000   0.00000   0.00000   0.00000   0.00000
           A6           0.00000   0.00000   0.00000   0.00000   0.00000
           A7           0.00000   0.00000   0.00000   0.00000   0.00000
           D1           0.00000   0.00000   0.00000   0.00000   0.00000
           D2           0.00000   0.00000   0.00000   0.00000   0.00000
           D3           0.00000   0.00000   0.00000   0.00000   0.00000
                          A1        A2        A3        A4        A5
           A1           0.16000
           A2           0.00000   0.16000
           A3           0.00000   0.00000   0.16000
           A4           0.00000   0.00000   0.00000   0.16000
           A5           0.00000   0.00000   0.00000   0.00000   0.16000
           A6           0.00000   0.00000   0.00000   0.00000   0.00000
           A7           0.00000   0.00000   0.00000   0.00000   0.00000
           D1           0.00000   0.00000   0.00000   0.00000   0.00000
           D2           0.00000   0.00000   0.00000   0.00000   0.00000
           D3           0.00000   0.00000   0.00000   0.00000   0.00000
                          A6        A7        D1        D2        D3
           A6           0.16000
           A7           0.00000   0.16000
           D1           0.00000   0.00000   0.01424
           D2           0.00000   0.00000   0.00000   0.01424
           D3           0.00000   0.00000   0.00000   0.00000   0.01424
 ITU=  0
     Eigenvalues ---    0.01424   0.07857   0.11386   0.16000   0.16000
     Eigenvalues ---    0.16000   0.16000   0.31223   0.32846   0.34022
     Eigenvalues ---    0.34724   0.38215
 RFO step:  Lambda=-1.47152975D-05 EMin= 1.42428487D-02
 Linear search not attempted -- first point.
 Iteration  1 RMS(Cart)=  0.00291847 RMS(Int)=  0.00000549
 Iteration  2 RMS(Cart)=  0.00000446 RMS(Int)=  0.00000195
 Iteration  3 RMS(Cart)=  0.00000000 RMS(Int)=  0.00000195
 ITry= 1 IFail=0 DXMaxC= 6.92D-03 DCOld= 1.00D+10 DXMaxT= 3.00D-01 DXLimC= 3.00D+00 Rises=F
 Variable       Old X    -DE/DX   Delta X   Delta X   Delta X     New X
                                 (Linear)    (Quad)   (Total)
    R1        2.74054  -0.00060   0.00000  -0.00158  -0.00158   2.73896
    R2        2.12288  -0.00103   0.00000  -0.00329  -0.00329   2.11959
    R3        2.07294  -0.00082   0.00000  -0.00242  -0.00242   2.07052
    R4        2.06125  -0.00036   0.00000  -0.00104  -0.00104   2.06021
    R5        2.09322  -0.00012   0.00000  -0.00035  -0.00035   2.09287
    A1        1.60028  -0.00046   0.00000  -0.00270  -0.00270   1.59758
    A2        2.11189  -0.00059   0.00000  -0.00379  -0.00380   2.10810
    A3        2.02519  -0.00015   0.00000  -0.00104  -0.00105   2.02414
    A4        1.84901   0.00046   0.00000   0.00317   0.00316   1.85217
    A5        1.84187   0.00024   0.00000   0.00161   0.00161   1.84347
    A6        1.96163   0.00055   0.00000   0.00324   0.00324   1.96487
    A7        1.85969  -0.00024   0.00000  -0.00152  -0.00152   1.85816
    D1        1.48220   0.00007   0.00000   0.00270   0.00270   1.48491
    D2       -0.43367  -0.00003   0.00000   0.00162   0.00161  -0.43205
    D3       -2.91232   0.00007   0.00000   0.00291   0.00291  -2.90942
         Item               Value     Threshold  Converged?
 Maximum Force            0.001028     0.000015     NO 
 RMS     Force            0.000481     0.000010     NO 
 Maximum Displacement     0.006918     0.000060     NO 
 RMS     Displacement     0.002919     0.000040     NO 
 Predicted change in Energy=-7.357952D-06
 Lowest energy point so far.  Saving SCF results.
 GradGradGradGradGradGradGradGradGradGradGradGradGradGradGradGradGradGrad

 Leave Link  103 at Fri Jul  9 19:19:51 2021, MaxMem=  4194304000 cpu:        23.4
 (Enter /home/minenky/programs//g09/l202.exe)
                          Input orientation:                          
 ---------------------------------------------------------------------
 Center     Atomic      Atomic             Coordinates (Angstroms)
 Number     Number       Type             X           Y           Z
 ---------------------------------------------------------------------
      1          6           0        0.591094    0.022004   -0.030080
      2          6           0       -0.842581   -0.190776   -0.037395
      3          1           0       -1.309084    0.812858    0.003245
      4          1           0        0.607621    0.076719    1.090103
      5          1           0        1.019902    0.964956   -0.387100
      6          1           0        1.203311   -0.841550   -0.290923
 ---------------------------------------------------------------------
                    Distance matrix (angstroms):
                    1          2          3          4          5
     1  C    0.000000
     2  C    1.449397   0.000000
     3  H    2.058454   1.107501   0.000000
     4  H    1.121640   1.856311   2.323127   0.000000
     5  H    1.095672   2.219651   2.366364   1.772307   0.000000
     6  H    1.090218   2.161818   3.022537   1.762186   1.818337
                    6
     6  H    0.000000
 Stoichiometry    C2H4
 Framework group  C1[X(C2H4)]
 Deg. of freedom    12
 Full point group                 C1      NOp   1
 RotChk:  IX=0 Diff= 4.76D-03
 Largest Abelian subgroup         C1      NOp   1
 Largest concise Abelian subgroup C1      NOp   1
                         Standard orientation:                         
 ---------------------------------------------------------------------
 Center     Atomic      Atomic             Coordinates (Angstroms)
 Number     Number       Type             X           Y           Z
 ---------------------------------------------------------------------
      1          6           0        0.590297    0.022326   -0.030388
      2          6           0       -0.843286   -0.191018   -0.039072
      3          1           0       -1.310221    0.812285    0.004671
      4          1           0        0.606283    0.073341    1.089978
      5          1           0        1.018882    0.966630   -0.384088
      6          1           0        1.202991   -0.840109   -0.293803
 ---------------------------------------------------------------------
 Rotational constants (GHZ):    122.6372359     26.9367056     25.3052804
 Leave Link  202 at Fri Jul  9 19:19:51 2021, MaxMem=  4194304000 cpu:         0.2
 (Enter /home/minenky/programs//g09/l301.exe)
 Standard basis: def2TZVP (5D, 7F)
 Ernie: Thresh=  0.10000D-02 Tol=  0.10000D-05 Strict=F.
 There are    96 symmetry adapted cartesian basis functions of A   symmetry.
 There are    86 symmetry adapted basis functions of A   symmetry.
    86 basis functions,   134 primitive gaussians,    96 cartesian basis functions
     8 alpha electrons        8 beta electrons
       nuclear repulsion energy        32.3197957303 Hartrees.
 IExCor= 4639 DFT=T Ex+Corr=wB97XD ExCW=0 ScaHFX=  1.000000
 ScaDFX=  1.000000  1.000000  1.000000  1.000000 ScalE2=  1.000000  1.000000
 IRadAn=      5 IRanWt=     -1 IRanGd=            0 ICorTp=0 IEmpDi=121
  HFx wShort=  0.000000 wLong=  0.200000 cFull=  0.222036 cShort=  0.000000 cLong=  0.777964
  DFx wShort=  0.000000 wLong=  0.200000 cFull=  0.000000 cShort=  0.000000 cLong=  1.000000
 NAtoms=    6 NActive=    6 NUniq=    6 SFac= 1.00D+00 NAtFMM=   60 NAOKFM=F Big=F
 Integral buffers will be    131072 words long.
 Raffenetti 2 integral format.
 Two-electron integral symmetry is turned on.
 R6Disp:  Grimme-D2 Dispersion energy=       -0.0008282727 Hartrees.
 Nuclear repulsion after empirical dispersion term =       32.3189674577 Hartrees.
 Leave Link  301 at Fri Jul  9 19:19:51 2021, MaxMem=  4194304000 cpu:         0.2
 (Enter /home/minenky/programs//g09/l302.exe)
 NPDir=0 NMtPBC=     1 NCelOv=     1 NCel=       1 NClECP=     1 NCelD=      1
         NCelK=      1 NCelE2=     1 NClLst=     1 CellRange=     0.0.
 One-electron integrals computed using PRISM.
   1 Symmetry operations used in ECPInt.
 ECPInt:  NShTT=     741 NPrTT=    2136 LenC2=     741 LenP2D=    1977.
 LDataN:  DoStor=T MaxTD1= 6 Len=  172
 NBasis=    86 RedAO= T EigKep=  4.53D-04  NBF=    86
 NBsUse=    86 1.00D-06 EigRej= -1.00D+00 NBFU=    86
 Precomputing XC quadrature grid using
 IXCGrd= 4 IRadAn=           5 IRanWt=          -1 IRanGd=           0 AccXCQ= 0.00D+00.
 Generated NRdTot=       0 NPtTot=           0 NUsed=           0 NTot=          32
 NSgBfM=    96    96    96    96    96 MxSgAt=     6 MxSgA2=     6.
 Leave Link  302 at Fri Jul  9 19:19:52 2021, MaxMem=  4194304000 cpu:        10.3
 (Enter /home/minenky/programs//g09/l303.exe)
 DipDrv:  MaxL=1.
 Leave Link  303 at Fri Jul  9 19:19:52 2021, MaxMem=  4194304000 cpu:         2.2
 (Enter /home/minenky/programs//g09/l401.exe)
 Initial guess from the checkpoint file:  "m1_00_4218-50-22_C2H4_wB97XD.chk"
 B after Tr=     0.000000    0.000000    0.000000
         Rot=    0.999999   -0.001510    0.000124   -0.000267 Ang=  -0.18 deg.
 Guess basis will be translated and rotated to current coordinates.
 JPrj=2 DoOrth=T DoCkMO=T.
 Leave Link  401 at Fri Jul  9 19:19:53 2021, MaxMem=  4194304000 cpu:         6.7
 (Enter /home/minenky/programs//g09/l502.exe)
 Closed shell SCF:
 Using DIIS extrapolation, IDIIS=  1040.
 Integral symmetry usage will be decided dynamically.
 Keep R1 ints in memory in canonical form, NReq=16158887.
 IVT=      177722 IEndB=      177722 NGot=  4194304000 MDV=  4180127457
 LenX=  4180127457 LenY=  4180117800
 Requested convergence on RMS density matrix=1.00D-08 within 380 cycles.
 Requested convergence on MAX density matrix=1.00D-06.
 Requested convergence on             energy=1.00D-06.
 No special actions if energy rises.
 FoFCou: FMM=F IPFlag=           0 FMFlag=           0 FMFlg1=           0
         NFxFlg=           0 DoJE=F BraDBF=F KetDBF=F FulRan=T
         wScrn=  0.000000 ICntrl=     600 IOpCl=  0 I1Cent=           0 NGrid=           0
         NMat0=    1 NMatS0=   3741 NMatT0=    0 NMatD0=    1 NMtDS0=    0 NMtDT0=    0
 Symmetry not used in FoFCou.

 Cycle   1  Pass 1  IDiag  1:
 E= -78.4681362172951    
 DIIS: error= 1.37D-04 at cycle   1 NSaved=   1.
 NSaved= 1 IEnMin= 1 EnMin= -78.4681362172951     IErMin= 1 ErrMin= 1.37D-04
 ErrMax= 1.37D-04  0.00D+00 EMaxC= 1.00D-01 BMatC= 2.36D-06 BMatP= 2.36D-06
 IDIUse=3 WtCom= 9.99D-01 WtEn= 1.37D-03
 Coeff-Com:  0.100D+01
 Coeff-En:   0.100D+01
 Coeff:      0.100D+01
 Gap=     0.765 Goal=   None    Shift=    0.000
 RMSDP=2.01D-05 MaxDP=2.81D-04              OVMax= 5.11D-04

 Cycle   2  Pass 1  IDiag  1:
 E= -78.4681385533835     Delta-E=       -0.000002336088 Rises=F Damp=F
 DIIS: error= 3.62D-05 at cycle   2 NSaved=   2.
 NSaved= 2 IEnMin= 2 EnMin= -78.4681385533835     IErMin= 2 ErrMin= 3.62D-05
 ErrMax= 3.62D-05  0.00D+00 EMaxC= 1.00D-01 BMatC= 1.85D-07 BMatP= 2.36D-06
 IDIUse=1 WtCom= 1.00D+00 WtEn= 0.00D+00
 Coeff-Com:  0.554D-01 0.945D+00
 Coeff:      0.554D-01 0.945D+00
 Gap=     0.296 Goal=   None    Shift=    0.000
 RMSDP=7.29D-06 MaxDP=1.50D-04 DE=-2.34D-06 OVMax= 2.67D-04

 Cycle   3  Pass 1  IDiag  1:
 E= -78.4681387567325     Delta-E=       -0.000000203349 Rises=F Damp=F
 DIIS: error= 3.13D-05 at cycle   3 NSaved=   3.
 NSaved= 3 IEnMin= 3 EnMin= -78.4681387567325     IErMin= 3 ErrMin= 3.13D-05
 ErrMax= 3.13D-05  0.00D+00 EMaxC= 1.00D-01 BMatC= 7.36D-08 BMatP= 1.85D-07
 IDIUse=1 WtCom= 1.00D+00 WtEn= 0.00D+00
 Coeff-Com: -0.489D-01 0.374D+00 0.675D+00
 Coeff:     -0.489D-01 0.374D+00 0.675D+00
 Gap=     0.296 Goal=   None    Shift=    0.000
 RMSDP=2.71D-06 MaxDP=5.60D-05 DE=-2.03D-07 OVMax= 1.26D-04

 Cycle   4  Pass 1  IDiag  1:
 E= -78.4681388491582     Delta-E=       -0.000000092426 Rises=F Damp=F
 DIIS: error= 7.53D-06 at cycle   4 NSaved=   4.
 NSaved= 4 IEnMin= 4 EnMin= -78.4681388491582     IErMin= 4 ErrMin= 7.53D-06
 ErrMax= 7.53D-06  0.00D+00 EMaxC= 1.00D-01 BMatC= 2.67D-09 BMatP= 7.36D-08
 IDIUse=1 WtCom= 1.00D+00 WtEn= 0.00D+00
 Coeff-Com:  0.313D-02-0.101D+00-0.929D-01 0.119D+01
 Coeff:      0.313D-02-0.101D+00-0.929D-01 0.119D+01
 Gap=     0.296 Goal=   None    Shift=    0.000
 RMSDP=1.93D-06 MaxDP=3.22D-05 DE=-9.24D-08 OVMax= 1.51D-04

 Cycle   5  Pass 1  IDiag  1:
 E= -78.4681388700245     Delta-E=       -0.000000020866 Rises=F Damp=F
 DIIS: error= 5.30D-06 at cycle   5 NSaved=   5.
 NSaved= 5 IEnMin= 5 EnMin= -78.4681388700245     IErMin= 5 ErrMin= 5.30D-06
 ErrMax= 5.30D-06  0.00D+00 EMaxC= 1.00D-01 BMatC= 9.17D-10 BMatP= 2.67D-09
 IDIUse=1 WtCom= 1.00D+00 WtEn= 0.00D+00
 Coeff-Com:  0.841D-02-0.769D-01-0.124D+00 0.159D+00 0.103D+01
 Coeff:      0.841D-02-0.769D-01-0.124D+00 0.159D+00 0.103D+01
 Gap=     0.296 Goal=   None    Shift=    0.000
 RMSDP=1.15D-06 MaxDP=1.80D-05 DE=-2.09D-08 OVMax= 9.96D-05

 Cycle   6  Pass 1  IDiag  1:
 E= -78.4681388775956     Delta-E=       -0.000000007571 Rises=F Damp=F
 DIIS: error= 2.94D-06 at cycle   6 NSaved=   6.
 NSaved= 6 IEnMin= 6 EnMin= -78.4681388775956     IErMin= 6 ErrMin= 2.94D-06
 ErrMax= 2.94D-06  0.00D+00 EMaxC= 1.00D-01 BMatC= 2.53D-10 BMatP= 9.17D-10
 IDIUse=1 WtCom= 1.00D+00 WtEn= 0.00D+00
 Coeff-Com: -0.179D-02 0.435D-01 0.438D-01-0.465D+00-0.825D-01 0.146D+01
 Coeff:     -0.179D-02 0.435D-01 0.438D-01-0.465D+00-0.825D-01 0.146D+01
 Gap=     0.296 Goal=   None    Shift=    0.000
 RMSDP=1.03D-06 MaxDP=1.48D-05 DE=-7.57D-09 OVMax= 9.73D-05

 Cycle   7  Pass 1  IDiag  1:
 E= -78.4681388807528     Delta-E=       -0.000000003157 Rises=F Damp=F
 DIIS: error= 7.31D-07 at cycle   7 NSaved=   7.
 NSaved= 7 IEnMin= 7 EnMin= -78.4681388807528     IErMin= 7 ErrMin= 7.31D-07
 ErrMax= 7.31D-07  0.00D+00 EMaxC= 1.00D-01 BMatC= 2.44D-11 BMatP= 2.53D-10
 IDIUse=1 WtCom= 1.00D+00 WtEn= 0.00D+00
 Coeff-Com: -0.174D-02 0.192D-01 0.257D-01-0.844D-01-0.189D+00 0.238D+00
 Coeff-Com:  0.993D+00
 Coeff:     -0.174D-02 0.192D-01 0.257D-01-0.844D-01-0.189D+00 0.238D+00
 Coeff:      0.993D+00
 Gap=     0.296 Goal=   None    Shift=    0.000
 RMSDP=2.58D-07 MaxDP=3.39D-06 DE=-3.16D-09 OVMax= 2.29D-05

 Cycle   8  Pass 1  IDiag  1:
 E= -78.4681388809378     Delta-E=       -0.000000000185 Rises=F Damp=F
 DIIS: error= 2.26D-07 at cycle   8 NSaved=   8.
 NSaved= 8 IEnMin= 8 EnMin= -78.4681388809378     IErMin= 8 ErrMin= 2.26D-07
 ErrMax= 2.26D-07  0.00D+00 EMaxC= 1.00D-01 BMatC= 1.70D-12 BMatP= 2.44D-11
 IDIUse=1 WtCom= 1.00D+00 WtEn= 0.00D+00
 Coeff-Com:  0.192D-03-0.425D-02-0.505D-02 0.453D-01 0.625D-02-0.146D+00
 Coeff-Com: -0.615D-01 0.116D+01
 Coeff:      0.192D-03-0.425D-02-0.505D-02 0.453D-01 0.625D-02-0.146D+00
 Coeff:     -0.615D-01 0.116D+01
 Gap=     0.296 Goal=   None    Shift=    0.000
 RMSDP=8.36D-08 MaxDP=1.25D-06 DE=-1.85D-10 OVMax= 5.93D-06

 Cycle   9  Pass 1  IDiag  1:
 E= -78.4681388809500     Delta-E=       -0.000000000012 Rises=F Damp=F
 DIIS: error= 6.30D-08 at cycle   9 NSaved=   9.
 NSaved= 9 IEnMin= 9 EnMin= -78.4681388809500     IErMin= 9 ErrMin= 6.30D-08
 ErrMax= 6.30D-08  0.00D+00 EMaxC= 1.00D-01 BMatC= 1.14D-13 BMatP= 1.70D-12
 IDIUse=1 WtCom= 1.00D+00 WtEn= 0.00D+00
 Coeff-Com:  0.938D-04-0.863D-03-0.112D-02 0.111D-02 0.147D-01 0.239D-02
 Coeff-Com: -0.641D-01-0.804D-01 0.113D+01
 Coeff:      0.938D-04-0.863D-03-0.112D-02 0.111D-02 0.147D-01 0.239D-02
 Coeff:     -0.641D-01-0.804D-01 0.113D+01
 Gap=     0.296 Goal=   None    Shift=    0.000
 RMSDP=1.25D-08 MaxDP=1.64D-07 DE=-1.22D-11 OVMax= 7.46D-07

 Cycle  10  Pass 1  IDiag  1:
 E= -78.4681388809502     Delta-E=        0.000000000000 Rises=F Damp=F
 DIIS: error= 2.48D-08 at cycle  10 NSaved=  10.
 NSaved=10 IEnMin=10 EnMin= -78.4681388809502     IErMin=10 ErrMin= 2.48D-08
 ErrMax= 2.48D-08  0.00D+00 EMaxC= 1.00D-01 BMatC= 1.28D-14 BMatP= 1.14D-13
 IDIUse=1 WtCom= 1.00D+00 WtEn= 0.00D+00
 Coeff-Com: -0.206D-04 0.443D-03 0.514D-03-0.462D-02-0.769D-03 0.129D-01
 Coeff-Com:  0.242D-02-0.113D+00 0.137D-01 0.109D+01
 Coeff:     -0.206D-04 0.443D-03 0.514D-03-0.462D-02-0.769D-03 0.129D-01
 Coeff:      0.242D-02-0.113D+00 0.137D-01 0.109D+01
 Gap=     0.296 Goal=   None    Shift=    0.000
 RMSDP=4.15D-09 MaxDP=5.42D-08 DE=-1.99D-13 OVMax= 2.82D-07

 SCF Done:  E(RwB97XD) =  -78.4681388810     A.U. after   10 cycles
            NFock= 10  Conv=0.41D-08     -V/T= 2.0054
 KE= 7.804897382452D+01 PE=-2.460132403440D+02 EE= 5.717716018087D+01
 Leave Link  502 at Fri Jul  9 19:19:54 2021, MaxMem=  4194304000 cpu:        25.3
 (Enter /home/minenky/programs//g09/l701.exe)
 Compute integral first derivatives.
 ... and contract with generalized density number  0.
 R6Disp: Adding Grimme-D2 dispersion energy 1st derivatives to the gradient.
   1 Symmetry operations used in ECPInt.
 ECPInt:  NShTT=     741 NPrTT=    2136 LenC2=     741 LenP2D=    1977.
 LDataN:  DoStor=T MaxTD1= 7 Len=  274
 Leave Link  701 at Fri Jul  9 19:19:55 2021, MaxMem=  4194304000 cpu:        13.8
 (Enter /home/minenky/programs//g09/l702.exe)
 L702 exits ... SP integral derivatives will be done elsewhere.
 Leave Link  702 at Fri Jul  9 19:19:55 2021, MaxMem=  4194304000 cpu:         0.1
 (Enter /home/minenky/programs//g09/l703.exe)
 Compute integral first derivatives, UseDBF=F ICtDFT=           0.
 Integral derivatives from FoFJK, PRISM(SPDF).
 Calling FoFJK, ICntrl=      2127 FMM=F ISym2X=0 I1Cent= 0 IOpClX= 0 NMat=1 NMatS=1 NMatT=0.
 FoFJK:  IHMeth= 1 ICntrl=    2127 DoSepK=T KAlg= 0 I1Cent=   0 FoldK=F
 IRaf=         1 NMat=   1 IRICut=       1 DoRegI=T DoRafI=F ISym2E= 0.
 FoFCou: FMM=F IPFlag=           0 FMFlag=      100000 FMFlg1=         800
         NFxFlg=           0 DoJE=F BraDBF=F KetDBF=F FulRan=T
         wScrn=  0.000000 ICntrl=    2527 IOpCl=  0 I1Cent=           0 NGrid=           0
         NMat0=    1 NMatS0=      1 NMatT0=    0 NMatD0=    1 NMtDS0=    0 NMtDT0=    0
 Symmetry not used in FoFCou.
 Leave Link  703 at Fri Jul  9 19:19:57 2021, MaxMem=  4194304000 cpu:        21.1
 (Enter /home/minenky/programs//g09/l716.exe)
 Dipole        = 7.09555606D-01 6.77653220D-01 1.03079159D-01
 ***** Axes restored to original set *****
 -------------------------------------------------------------------
 Center     Atomic                   Forces (Hartrees/Bohr)
 Number     Number              X              Y              Z
 -------------------------------------------------------------------
      1        6           0.000547199    0.000125814   -0.000099976
      2        6          -0.000152381    0.000042838    0.000046511
      3        1          -0.000068919   -0.000005243    0.000023028
      4        1          -0.000128329   -0.000084201   -0.000001899
      5        1          -0.000129571   -0.000053823   -0.000026588
      6        1          -0.000067999   -0.000025386    0.000058924
 -------------------------------------------------------------------
 Cartesian Forces:  Max     0.000547199 RMS     0.000151010
 Leave Link  716 at Fri Jul  9 19:19:57 2021, MaxMem=  4194304000 cpu:         0.1
 (Enter /home/minenky/programs//g09/l103.exe)

 GradGradGradGradGradGradGradGradGradGradGradGradGradGradGradGradGradGrad
 Berny optimization.
 Using GEDIIS/GDIIS optimizer.
 FormGI is forming the generalized inverse of G from B-inverse, IUseBI=4.
 Internal  Forces:  Max     0.000212842 RMS     0.000105672
 Search for a local minimum.
 Step number   2 out of a maximum of   25
 All quantities printed in internal units (Hartrees-Bohrs-Radians)
 RMS Force = .10567D-03 SwitMx=.10000D-02 MixMth= 2
 Mixed Optimization -- En-DIIS/RFO-DIIS
 Swapping is turned off.
 Update second derivatives using D2CorX and points    1    2
 DE= -8.08D-06 DEPred=-7.36D-06 R= 1.10D+00
 TightC=F SS=  1.41D+00  RLast= 9.32D-03 DXNew= 5.0454D-01 2.7971D-02
 Trust test= 1.10D+00 RLast= 9.32D-03 DXMaxT set to 3.00D-01
 The second derivative matrix:
                          R1        R2        R3        R4        R5
           R1           0.40750
           R2           0.02048   0.31872
           R3           0.01133  -0.00113   0.33476
           R4           0.00539   0.00002  -0.00203   0.34652
           R5           0.00389   0.00273   0.00131   0.00065   0.32904
           A1          -0.00183  -0.01034  -0.00987  -0.00421  -0.00065
           A2           0.00621  -0.00354  -0.00597  -0.00237   0.00060
           A3           0.00062  -0.00234  -0.00263  -0.00109  -0.00002
           A4           0.00191   0.01181   0.01135   0.00483   0.00072
           A5          -0.00325   0.00073   0.00197   0.00075  -0.00036
           A6          -0.00467   0.00380   0.00565   0.00227  -0.00040
           A7           0.01321   0.01198   0.00724   0.00338   0.00208
           D1          -0.00097  -0.00049  -0.00014  -0.00008  -0.00014
           D2           0.00278   0.00390   0.00294   0.00131   0.00050
           D3          -0.00663  -0.00752  -0.00517  -0.00234  -0.00111
                          A1        A2        A3        A4        A5
           A1           0.15234
           A2          -0.00798   0.15425
           A3          -0.00255  -0.00227   0.15921
           A4           0.00890   0.00920   0.00295   0.14967
           A5           0.00318   0.00205   0.00087  -0.00366   0.15930
           A6           0.00700   0.00529   0.00202  -0.00807  -0.00192
           A7           0.00020   0.00435   0.00069  -0.00034  -0.00213
           D1           0.00032   0.00001   0.00006  -0.00037   0.00003
           D2           0.00126   0.00209   0.00054  -0.00148  -0.00091
           D3          -0.00142  -0.00346  -0.00077   0.00171   0.00157
                          A6        A7        D1        D2        D3
           A6           0.15517
           A7          -0.00342   0.16671
           D1          -0.00004  -0.00054   0.01427
           D2          -0.00176   0.00123  -0.00015   0.01427
           D3           0.00285  -0.00317   0.00031  -0.00037   0.01551
 ITU=  1  0
     Eigenvalues ---    0.01448   0.07964   0.11039   0.12854   0.16000
     Eigenvalues ---    0.16000   0.16724   0.31569   0.32905   0.33470
     Eigenvalues ---    0.34677   0.41579
 En-DIIS/RFO-DIIS IScMMF=        0 using points:     2    1
 RFO step:  Lambda=-4.18103627D-07.
 NNeg= 0 NP= 2 Switch=  2.50D-03 Rises=F DC=  8.08D-06 SmlDif=  1.00D-05
 RMS Error=  0.2742432231D-03 NUsed= 2 EDIIS=F
 DidBck=F Rises=F RFO-DIIS coefs:    1.10671   -0.10671
 Iteration  1 RMS(Cart)=  0.00089846 RMS(Int)=  0.00000095
 Iteration  2 RMS(Cart)=  0.00000073 RMS(Int)=  0.00000049
 ITry= 1 IFail=0 DXMaxC= 1.97D-03 DCOld= 1.00D+10 DXMaxT= 3.00D-01 DXLimC= 3.00D+00 Rises=F
 Variable       Old X    -DE/DX   Delta X   Delta X   Delta X     New X
                                 (Linear)    (Quad)   (Total)
    R1        2.73896   0.00021  -0.00017   0.00068   0.00051   2.73947
    R2        2.11959  -0.00001  -0.00035   0.00011  -0.00025   2.11935
    R3        2.07052  -0.00009  -0.00026  -0.00019  -0.00045   2.07007
    R4        2.06021  -0.00003  -0.00011  -0.00006  -0.00017   2.06004
    R5        2.09287   0.00003  -0.00004   0.00010   0.00006   2.09294
    A1        1.59758  -0.00021  -0.00029  -0.00145  -0.00174   1.59584
    A2        2.10810  -0.00009  -0.00041  -0.00036  -0.00077   2.10733
    A3        2.02414  -0.00002  -0.00011  -0.00008  -0.00019   2.02395
    A4        1.85217   0.00015   0.00034   0.00091   0.00125   1.85342
    A5        1.84347   0.00002   0.00017  -0.00022  -0.00004   1.84343
    A6        1.96487   0.00012   0.00035   0.00084   0.00119   1.96606
    A7        1.85816   0.00013  -0.00016   0.00099   0.00083   1.85899
    D1        1.48491   0.00002   0.00029  -0.00088  -0.00059   1.48431
    D2       -0.43205   0.00000   0.00017  -0.00095  -0.00078  -0.43283
    D3       -2.90942  -0.00007   0.00031  -0.00190  -0.00158  -2.91100
         Item               Value     Threshold  Converged?
 Maximum Force            0.000213     0.000015     NO 
 RMS     Force            0.000106     0.000010     NO 
 Maximum Displacement     0.001974     0.000060     NO 
 RMS     Displacement     0.000899     0.000040     NO 
 Predicted change in Energy=-5.640147D-07
 Lowest energy point so far.  Saving SCF results.
 GradGradGradGradGradGradGradGradGradGradGradGradGradGradGradGradGradGrad

 Leave Link  103 at Fri Jul  9 19:19:59 2021, MaxMem=  4194304000 cpu:        21.2
 (Enter /home/minenky/programs//g09/l202.exe)
                          Input orientation:                          
 ---------------------------------------------------------------------
 Center     Atomic      Atomic             Coordinates (Angstroms)
 Number     Number       Type             X           Y           Z
 ---------------------------------------------------------------------
      1          6           0        0.591784    0.022118   -0.030356
      2          6           0       -0.842198   -0.190443   -0.037458
      3          1           0       -1.309358    0.812889    0.003980
      4          1           0        0.606576    0.076421    1.089741
      5          1           0        1.019847    0.965048   -0.387599
      6          1           0        1.203612   -0.841821   -0.290459
 ---------------------------------------------------------------------
                    Distance matrix (angstroms):
                    1          2          3          4          5
     1  C    0.000000
     2  C    1.449667   0.000000
     3  H    2.059329   1.107534   0.000000
     4  H    1.121510   1.854924   2.322082   0.000000
     5  H    1.095435   2.219227   2.366787   1.772846   0.000000
     6  H    1.090127   2.161860   3.023206   1.761980   1.818785
                    6
     6  H    0.000000
 Stoichiometry    C2H4
 Framework group  C1[X(C2H4)]
 Deg. of freedom    12
 Full point group                 C1      NOp   1
 RotChk:  IX=0 Diff= 1.06D-03
 Largest Abelian subgroup         C1      NOp   1
 Largest concise Abelian subgroup C1      NOp   1
                         Standard orientation:                         
 ---------------------------------------------------------------------
 Center     Atomic      Atomic             Coordinates (Angstroms)
 Number     Number       Type             X           Y           Z
 ---------------------------------------------------------------------
      1          6           0        0.590655    0.022507   -0.030344
      2          6           0       -0.843164   -0.191070   -0.039427
      3          1           0       -1.311092    0.811752    0.005548
      4          1           0        0.604511    0.072452    1.089968
      5          1           0        1.018314    0.967135   -0.383563
      6          1           0        1.203323   -0.839964   -0.293323
 ---------------------------------------------------------------------
 Rotational constants (GHZ):    122.6508378     26.9333259     25.3016664
 Leave Link  202 at Fri Jul  9 19:19:59 2021, MaxMem=  4194304000 cpu:         0.4
 (Enter /home/minenky/programs//g09/l301.exe)
 Standard basis: def2TZVP (5D, 7F)
 Ernie: Thresh=  0.10000D-02 Tol=  0.10000D-05 Strict=F.
 There are    96 symmetry adapted cartesian basis functions of A   symmetry.
 There are    86 symmetry adapted basis functions of A   symmetry.
    86 basis functions,   134 primitive gaussians,    96 cartesian basis functions
     8 alpha electrons        8 beta electrons
       nuclear repulsion energy        32.3192185125 Hartrees.
 IExCor= 4639 DFT=T Ex+Corr=wB97XD ExCW=0 ScaHFX=  1.000000
 ScaDFX=  1.000000  1.000000  1.000000  1.000000 ScalE2=  1.000000  1.000000
 IRadAn=      5 IRanWt=     -1 IRanGd=            0 ICorTp=0 IEmpDi=121
  HFx wShort=  0.000000 wLong=  0.200000 cFull=  0.222036 cShort=  0.000000 cLong=  0.777964
  DFx wShort=  0.000000 wLong=  0.200000 cFull=  0.000000 cShort=  0.000000 cLong=  1.000000
 NAtoms=    6 NActive=    6 NUniq=    6 SFac= 1.00D+00 NAtFMM=   60 NAOKFM=F Big=F
 Integral buffers will be    131072 words long.
 Raffenetti 2 integral format.
 Two-electron integral symmetry is turned on.
 R6Disp:  Grimme-D2 Dispersion energy=       -0.0008282666 Hartrees.
 Nuclear repulsion after empirical dispersion term =       32.3183902459 Hartrees.
 Leave Link  301 at Fri Jul  9 19:19:59 2021, MaxMem=  4194304000 cpu:         0.3
 (Enter /home/minenky/programs//g09/l302.exe)
 NPDir=0 NMtPBC=     1 NCelOv=     1 NCel=       1 NClECP=     1 NCelD=      1
         NCelK=      1 NCelE2=     1 NClLst=     1 CellRange=     0.0.
 One-electron integrals computed using PRISM.
   1 Symmetry operations used in ECPInt.
 ECPInt:  NShTT=     741 NPrTT=    2136 LenC2=     741 LenP2D=    1977.
 LDataN:  DoStor=T MaxTD1= 6 Len=  172
 NBasis=    86 RedAO= T EigKep=  4.54D-04  NBF=    86
 NBsUse=    86 1.00D-06 EigRej= -1.00D+00 NBFU=    86
 Precomputing XC quadrature grid using
 IXCGrd= 4 IRadAn=           5 IRanWt=          -1 IRanGd=           0 AccXCQ= 0.00D+00.
 Generated NRdTot=       0 NPtTot=           0 NUsed=           0 NTot=          32
 NSgBfM=    96    96    96    96    96 MxSgAt=     6 MxSgA2=     6.
 Leave Link  302 at Fri Jul  9 19:20:00 2021, MaxMem=  4194304000 cpu:         9.9
 (Enter /home/minenky/programs//g09/l303.exe)
 DipDrv:  MaxL=1.
 Leave Link  303 at Fri Jul  9 19:20:00 2021, MaxMem=  4194304000 cpu:         3.0
 (Enter /home/minenky/programs//g09/l401.exe)
 Initial guess from the checkpoint file:  "m1_00_4218-50-22_C2H4_wB97XD.chk"
 B after Tr=     0.000000    0.000000    0.000000
         Rot=    1.000000   -0.000310    0.000154   -0.000130 Ang=  -0.04 deg.
 Guess basis will be translated and rotated to current coordinates.
 JPrj=2 DoOrth=T DoCkMO=T.
 Leave Link  401 at Fri Jul  9 19:20:01 2021, MaxMem=  4194304000 cpu:         8.0
 (Enter /home/minenky/programs//g09/l502.exe)
 Closed shell SCF:
 Using DIIS extrapolation, IDIIS=  1040.
 Integral symmetry usage will be decided dynamically.
 Keep R1 ints in memory in canonical form, NReq=16158887.
 IVT=      177722 IEndB=      177722 NGot=  4194304000 MDV=  4180127457
 LenX=  4180127457 LenY=  4180117800
 Requested convergence on RMS density matrix=1.00D-08 within 380 cycles.
 Requested convergence on MAX density matrix=1.00D-06.
 Requested convergence on             energy=1.00D-06.
 No special actions if energy rises.
 FoFCou: FMM=F IPFlag=           0 FMFlag=           0 FMFlg1=           0
         NFxFlg=           0 DoJE=F BraDBF=F KetDBF=F FulRan=T
         wScrn=  0.000000 ICntrl=     600 IOpCl=  0 I1Cent=           0 NGrid=           0
         NMat0=    1 NMatS0=   3741 NMatT0=    0 NMatD0=    1 NMtDS0=    0 NMtDT0=    0
 Symmetry not used in FoFCou.

 Cycle   1  Pass 1  IDiag  1:
 E= -78.4681391152850    
 DIIS: error= 3.00D-05 at cycle   1 NSaved=   1.
 NSaved= 1 IEnMin= 1 EnMin= -78.4681391152850     IErMin= 1 ErrMin= 3.00D-05
 ErrMax= 3.00D-05  0.00D+00 EMaxC= 1.00D-01 BMatC= 2.58D-07 BMatP= 2.58D-07
 IDIUse=1 WtCom= 1.00D+00 WtEn= 0.00D+00
 Coeff-Com:  0.100D+01
 Coeff:      0.100D+01
 Gap=     0.766 Goal=   None    Shift=    0.000
 RMSDP=6.30D-06 MaxDP=8.73D-05              OVMax= 2.26D-04

 Cycle   2  Pass 1  IDiag  1:
 E= -78.4681394427410     Delta-E=       -0.000000327456 Rises=F Damp=F
 DIIS: error= 1.33D-05 at cycle   2 NSaved=   2.
 NSaved= 2 IEnMin= 2 EnMin= -78.4681394427410     IErMin= 2 ErrMin= 1.33D-05
 ErrMax= 1.33D-05  0.00D+00 EMaxC= 1.00D-01 BMatC= 8.75D-09 BMatP= 2.58D-07
 IDIUse=1 WtCom= 1.00D+00 WtEn= 0.00D+00
 Coeff-Com: -0.110D+00 0.111D+01
 Coeff:     -0.110D+00 0.111D+01
 Gap=     0.296 Goal=   None    Shift=    0.000
 RMSDP=2.00D-06 MaxDP=4.14D-05 DE=-3.27D-07 OVMax= 1.12D-04

 Cycle   3  Pass 1  IDiag  1:
 E= -78.4681394698086     Delta-E=       -0.000000027068 Rises=F Damp=F
 DIIS: error= 5.03D-06 at cycle   3 NSaved=   3.
 NSaved= 3 IEnMin= 3 EnMin= -78.4681394698086     IErMin= 3 ErrMin= 5.03D-06
 ErrMax= 5.03D-06  0.00D+00 EMaxC= 1.00D-01 BMatC= 2.03D-09 BMatP= 8.75D-09
 IDIUse=1 WtCom= 1.00D+00 WtEn= 0.00D+00
 Coeff-Com: -0.487D-01 0.290D+00 0.759D+00
 Coeff:     -0.487D-01 0.290D+00 0.759D+00
 Gap=     0.296 Goal=   None    Shift=    0.000
 RMSDP=5.76D-07 MaxDP=7.98D-06 DE=-2.71D-08 OVMax= 3.15D-05

 Cycle   4  Pass 1  IDiag  1:
 E= -78.4681394737308     Delta-E=       -0.000000003922 Rises=F Damp=F
 DIIS: error= 3.09D-06 at cycle   4 NSaved=   4.
 NSaved= 4 IEnMin= 4 EnMin= -78.4681394737308     IErMin= 4 ErrMin= 3.09D-06
 ErrMax= 3.09D-06  0.00D+00 EMaxC= 1.00D-01 BMatC= 3.46D-10 BMatP= 2.03D-09
 IDIUse=1 WtCom= 1.00D+00 WtEn= 0.00D+00
 Coeff-Com:  0.191D-01-0.230D+00 0.108D+00 0.110D+01
 Coeff:      0.191D-01-0.230D+00 0.108D+00 0.110D+01
 Gap=     0.296 Goal=   None    Shift=    0.000
 RMSDP=4.02D-07 MaxDP=5.30D-06 DE=-3.92D-09 OVMax= 3.46D-05

 Cycle   5  Pass 1  IDiag  1:
 E= -78.4681394751071     Delta-E=       -0.000000001376 Rises=F Damp=F
 DIIS: error= 9.36D-07 at cycle   5 NSaved=   5.
 NSaved= 5 IEnMin= 5 EnMin= -78.4681394751071     IErMin= 5 ErrMin= 9.36D-07
 ErrMax= 9.36D-07  0.00D+00 EMaxC= 1.00D-01 BMatC= 1.71D-11 BMatP= 3.46D-10
 IDIUse=1 WtCom= 1.00D+00 WtEn= 0.00D+00
 Coeff-Com:  0.267D-02-0.102D-01-0.613D-01-0.354D-01 0.110D+01
 Coeff:      0.267D-02-0.102D-01-0.613D-01-0.354D-01 0.110D+01
 Gap=     0.296 Goal=   None    Shift=    0.000
 RMSDP=1.01D-07 MaxDP=1.42D-06 DE=-1.38D-09 OVMax= 9.15D-06

 Cycle   6  Pass 1  IDiag  1:
 E= -78.4681394751901     Delta-E=       -0.000000000083 Rises=F Damp=F
 DIIS: error= 2.15D-07 at cycle   6 NSaved=   6.
 NSaved= 6 IEnMin= 6 EnMin= -78.4681394751901     IErMin= 6 ErrMin= 2.15D-07
 ErrMax= 2.15D-07  0.00D+00 EMaxC= 1.00D-01 BMatC= 2.48D-12 BMatP= 1.71D-11
 IDIUse=1 WtCom= 1.00D+00 WtEn= 0.00D+00
 Coeff-Com: -0.154D-02 0.229D-01-0.281D-01-0.125D+00 0.237D+00 0.895D+00
 Coeff:     -0.154D-02 0.229D-01-0.281D-01-0.125D+00 0.237D+00 0.895D+00
 Gap=     0.296 Goal=   None    Shift=    0.000
 RMSDP=3.86D-08 MaxDP=9.26D-07 DE=-8.30D-11 OVMax= 2.48D-06

 Cycle   7  Pass 1  IDiag  1:
 E= -78.4681394751990     Delta-E=       -0.000000000009 Rises=F Damp=F
 DIIS: error= 6.32D-08 at cycle   7 NSaved=   7.
 NSaved= 7 IEnMin= 7 EnMin= -78.4681394751990     IErMin= 7 ErrMin= 6.32D-08
 ErrMax= 6.32D-08  0.00D+00 EMaxC= 1.00D-01 BMatC= 2.50D-13 BMatP= 2.48D-12
 IDIUse=1 WtCom= 1.00D+00 WtEn= 0.00D+00
 Coeff-Com: -0.243D-03 0.137D-02 0.441D-02 0.174D-02-0.113D+00 0.108D+00
 Coeff-Com:  0.997D+00
 Coeff:     -0.243D-03 0.137D-02 0.441D-02 0.174D-02-0.113D+00 0.108D+00
 Coeff:      0.997D+00
 Gap=     0.296 Goal=   None    Shift=    0.000
 RMSDP=1.38D-08 MaxDP=1.65D-07 DE=-8.90D-12 OVMax= 8.61D-07

 Cycle   8  Pass 1  IDiag  1:
 E= -78.4681394751990     Delta-E=        0.000000000000 Rises=F Damp=F
 DIIS: error= 3.74D-08 at cycle   8 NSaved=   8.
 NSaved= 8 IEnMin= 8 EnMin= -78.4681394751990     IErMin= 8 ErrMin= 3.74D-08
 ErrMax= 3.74D-08  0.00D+00 EMaxC= 1.00D-01 BMatC= 4.35D-14 BMatP= 2.50D-13
 IDIUse=1 WtCom= 1.00D+00 WtEn= 0.00D+00
 Coeff-Com:  0.181D-03-0.298D-02 0.491D-02 0.179D-01-0.587D-01-0.710D-01
 Coeff-Com:  0.157D+00 0.953D+00
 Coeff:      0.181D-03-0.298D-02 0.491D-02 0.179D-01-0.587D-01-0.710D-01
 Coeff:      0.157D+00 0.953D+00
 Gap=     0.296 Goal=   None    Shift=    0.000
 RMSDP=6.26D-09 MaxDP=7.45D-08 DE=-2.84D-14 OVMax= 4.92D-07

 SCF Done:  E(RwB97XD) =  -78.4681394752     A.U. after    8 cycles
            NFock=  8  Conv=0.63D-08     -V/T= 2.0054
 KE= 7.804886499749D+01 PE=-2.460118075664D+02 EE= 5.717641284785D+01
 Leave Link  502 at Fri Jul  9 19:20:02 2021, MaxMem=  4194304000 cpu:        21.2
 (Enter /home/minenky/programs//g09/l701.exe)
 Compute integral first derivatives.
 ... and contract with generalized density number  0.
 R6Disp: Adding Grimme-D2 dispersion energy 1st derivatives to the gradient.
   1 Symmetry operations used in ECPInt.
 ECPInt:  NShTT=     741 NPrTT=    2136 LenC2=     741 LenP2D=    1977.
 LDataN:  DoStor=T MaxTD1= 7 Len=  274
 Leave Link  701 at Fri Jul  9 19:20:03 2021, MaxMem=  4194304000 cpu:         9.4
 (Enter /home/minenky/programs//g09/l702.exe)
 L702 exits ... SP integral derivatives will be done elsewhere.
 Leave Link  702 at Fri Jul  9 19:20:03 2021, MaxMem=  4194304000 cpu:         0.0
 (Enter /home/minenky/programs//g09/l703.exe)
 Compute integral first derivatives, UseDBF=F ICtDFT=           0.
 Integral derivatives from FoFJK, PRISM(SPDF).
 Calling FoFJK, ICntrl=      2127 FMM=F ISym2X=0 I1Cent= 0 IOpClX= 0 NMat=1 NMatS=1 NMatT=0.
 FoFJK:  IHMeth= 1 ICntrl=    2127 DoSepK=T KAlg= 0 I1Cent=   0 FoldK=F
 IRaf=         1 NMat=   1 IRICut=       1 DoRegI=T DoRafI=F ISym2E= 0.
 FoFCou: FMM=F IPFlag=           0 FMFlag=      100000 FMFlg1=         800
         NFxFlg=           0 DoJE=F BraDBF=F KetDBF=F FulRan=T
         wScrn=  0.000000 ICntrl=    2527 IOpCl=  0 I1Cent=           0 NGrid=           0
         NMat0=    1 NMatS0=      1 NMatT0=    0 NMatD0=    1 NMtDS0=    0 NMtDT0=    0
 Symmetry not used in FoFCou.
 Leave Link  703 at Fri Jul  9 19:20:05 2021, MaxMem=  4194304000 cpu:        18.0
 (Enter /home/minenky/programs//g09/l716.exe)
 Dipole        = 7.09022603D-01 6.77810236D-01 1.03559689D-01
 ***** Axes restored to original set *****
 -------------------------------------------------------------------
 Center     Atomic                   Forces (Hartrees/Bohr)
 Number     Number              X              Y              Z
 -------------------------------------------------------------------
      1        6           0.000036464    0.000065002   -0.000164890
      2        6          -0.000027931   -0.000054085    0.000060894
      3        1           0.000037544    0.000003244   -0.000015055
      4        1          -0.000048069   -0.000017809    0.000125014
      5        1           0.000021171    0.000014569   -0.000004106
      6        1          -0.000019179   -0.000010921   -0.000001858
 -------------------------------------------------------------------
 Cartesian Forces:  Max     0.000164890 RMS     0.000058323
 Leave Link  716 at Fri Jul  9 19:20:05 2021, MaxMem=  4194304000 cpu:         0.1
 (Enter /home/minenky/programs//g09/l103.exe)

 GradGradGradGradGradGradGradGradGradGradGradGradGradGradGradGradGradGrad
 Berny optimization.
 Using GEDIIS/GDIIS optimizer.
 FormGI is forming the generalized inverse of G from B-inverse, IUseBI=4.
 Internal  Forces:  Max     0.000123639 RMS     0.000048191
 Search for a local minimum.
 Step number   3 out of a maximum of   25
 All quantities printed in internal units (Hartrees-Bohrs-Radians)
 RMS Force = .48191D-04 SwitMx=.10000D-02 MixMth= 2
 Mixed Optimization -- En-DIIS/RFO-DIIS
 Swapping is turned off.
 Update second derivatives using D2CorX and points    1    2    3
 DE= -5.94D-07 DEPred=-5.64D-07 R= 1.05D+00
 Trust test= 1.05D+00 RLast= 3.37D-03 DXMaxT set to 3.00D-01
 The second derivative matrix:
                          R1        R2        R3        R4        R5
[...]
 
     3   3   2  2                                                      1     1 1 1    1                                              
     1   0   9  8                                                      5     3 3 2    1      9             6      4                  
     2   3   5  5                                                      1     5 1 6    3      6             3      4                  
     6   8   2  6                                                      5     5 0 5    9      6             7      7                  
 
     X   X   X  X                                                      X     X X X    X      X             X      X                  
     X   X   X  X                                                            X X X           X             X      X                  
     X   X   X  X                                                            X X X           X             X                         
     X   X   X  X                                                              X X           X             X                         
     X   X   X                                                                 X             X             X                         
         X   X                                                                 X             X             X                         
         X   X                                                                 X                           X                         
         X   X                                                                 X                           X                         
         X   X                                                                 X                           X                         
         X   X                                                                 X                           X                         
         X   X                                                                 X                           X                         
             X                                                                 X                                                     
             X                                                                                                                       
             X                                                                                                                       
             X                                                                                                                       
             X                                                                                                                       
             X                                                                                                                       
             X                                                                                                                       
             X                                                                                                                       
             X                                                                                                                       
 
 ***** Axes restored to original set *****
 -------------------------------------------------------------------
 Center     Atomic                   Forces (Hartrees/Bohr)
 Number     Number              X              Y              Z
 -------------------------------------------------------------------
      1        6           0.000000720   -0.000003011   -0.000000450
      2        6          -0.000000150    0.000000363    0.000000300
      3        1           0.000000296   -0.000000503    0.000001571
      4        1           0.000000163    0.000001317   -0.000000117
      5        1          -0.000000443    0.000000878    0.000000008
      6        1          -0.000000586    0.000000956   -0.000001311
 -------------------------------------------------------------------
 Cartesian Forces:  Max     0.000003011 RMS     0.000001015
 Force constants in Cartesian coordinates: 
                1             2             3             4             5 
      1  0.541030D+00
      2 -0.270666D-01  0.576171D+00
      3 -0.862246D-01 -0.801189D-02  0.376877D+00
      4 -0.271305D+00 -0.469657D-01  0.385666D-01  0.373807D+00
      5 -0.142857D-02 -0.771233D-01  0.374844D-02 -0.650823D-01  0.329119D+00
      6  0.139949D-01 -0.110744D-01  0.581276D-02 -0.212560D-01  0.104851D-01
      7 -0.242293D-01  0.379527D-01  0.397199D-02 -0.711883D-01  0.704459D-01
      8 -0.118820D-01 -0.175537D-02 -0.142505D-03  0.117828D+00 -0.256999D+00
      9  0.611808D-03  0.856433D-02 -0.478015D-03  0.447325D-02 -0.106601D-01
     10 -0.387782D-01  0.159470D-04 -0.429212D-01  0.724090D-02 -0.795676D-03
     11 -0.124684D-02 -0.246407D-01 -0.184631D-01  0.248146D-02 -0.432311D-02
     12 -0.401182D-02 -0.115383D-01 -0.256558D+00 -0.103141D-01 -0.273446D-02
     13 -0.841138D-01 -0.772808D-01  0.428019D-01 -0.176239D-01 -0.276052D-01
     14 -0.711213D-01 -0.244077D+00  0.735054D-01 -0.898119D-02 -0.204231D-03
     15  0.345492D-01  0.716038D-01 -0.702503D-01 -0.393285D-02 -0.439930D-02
     16 -0.122604D+00  0.113345D+00  0.438053D-01 -0.209308D-01  0.244660D-01
     17  0.112745D+00 -0.228575D+00 -0.506364D-01  0.720029D-03  0.953033D-02
     18  0.410805D-01 -0.495435D-01 -0.554035D-01 -0.753681D-02  0.356036D-02
                6             7             8             9            10 
      6  0.251452D-01
      7  0.417289D-02  0.984226D-01
      8 -0.912458D-02 -0.107076D+00  0.253236D+00
      9 -0.145724D-01 -0.651535D-02  0.901020D-02  0.130798D-01
     10 -0.654400D-02  0.931593D-03  0.529449D-03 -0.230360D-03  0.255315D-01
     11  0.216493D-02  0.000000D+00 -0.434077D-03 -0.153931D-02 -0.187017D-02
     12 -0.169677D-01 -0.590027D-03  0.363883D-03 -0.853671D-03  0.181628D-01
     13  0.398555D-02  0.290669D-02  0.167074D-03  0.163604D-02  0.281316D-02
     14  0.283382D-02  0.369549D-03  0.367085D-02 -0.266707D-02  0.682467D-03
     15  0.985793D-02  0.732008D-03 -0.662540D-03 -0.575491D-02  0.123809D-01
     16  0.564664D-02 -0.684321D-02  0.433720D-03  0.246103D-04  0.226095D-02
     17  0.471519D-02 -0.169204D-02  0.228154D-02 -0.270805D-02  0.143799D-02
     18 -0.927584D-02 -0.177152D-02  0.555548D-03  0.857914D-02  0.191518D-01
               11            12            13            14            15 
     11  0.333221D-01
     12  0.152544D-01  0.290293D+00
     13  0.351047D-02 -0.147023D-02  0.895319D-01
     14 -0.583686D-03 -0.126463D-02  0.882111D-01  0.259134D+00
     15  0.229647D-01 -0.812003D-02 -0.396949D-01 -0.819309D-01  0.709663D-01
     16 -0.287490D-02 -0.177659D-02  0.648598D-02 -0.916069D-02 -0.403426D-02
     17 -0.334054D-02 -0.808735D-04  0.129974D-01 -0.179405D-01 -0.757575D-02
     18 -0.203816D-01 -0.779322D-02 -0.725832D-02  0.952340D-02  0.330099D-02
               16            17            18 
     16  0.141631D+00
     17 -0.126209D+00  0.238044D+00
     18 -0.436657D-01  0.562859D-01  0.605924D-01
 FormGI is forming the generalized inverse of G from B-inverse, IUseBI=4.
 Force constants in internal coordinates: 
                1             2             3             4             5 
      1  0.328753D+00
      2  0.110114D-01  0.291536D+00
      3  0.128832D-01  0.638350D-03  0.328675D+00
      4  0.119343D-01  0.114803D-02  0.297543D-02  0.342822D+00
      5  0.431396D-04  0.526523D-03  0.261267D-02 -0.658217D-03  0.307993D+00
      6 -0.240367D-01  0.304702D-01 -0.471045D-02 -0.564635D-02 -0.569771D-03
      7  0.164821D-01 -0.693561D-02 -0.186003D-02 -0.779866D-02 -0.541439D-02
      8  0.261745D-01 -0.768140D-02 -0.774964D-02  0.961474D-03  0.787168D-02
      9 -0.432126D-02 -0.314693D-02  0.715299D-02 -0.276973D-02  0.162563D-03
     10 -0.841248D-02 -0.589059D-03 -0.339669D-02  0.723884D-02 -0.147253D-02
     11 -0.173305D-01 -0.246628D-02  0.921176D-02  0.719140D-02 -0.110238D-02
     12  0.497060D-01  0.823678D-03 -0.535794D-02  0.544653D-02  0.204540D-01
     13 -0.154851D-02  0.755059D-03  0.418496D-02 -0.484497D-02 -0.486777D-03
     14  0.150938D-01 -0.134076D-01 -0.851153D-03  0.392111D-02  0.971489D-03
     15 -0.187685D-01  0.145263D-01 -0.349617D-02  0.555087D-03 -0.101448D-02
                6             7             8             9            10 
      6  0.401783D-01
      7  0.433418D-02  0.970030D-01
      8 -0.751011D-03 -0.464769D-01  0.104248D+00
      9 -0.206729D-01 -0.218408D-01  0.185013D-02  0.495032D-01
     10 -0.237188D-01  0.165637D-02 -0.213702D-01 -0.365746D-03  0.550018D-01
     11 -0.931179D-03 -0.373408D-01 -0.406866D-01  0.825553D-03  0.548738D-03
     12 -0.482197D-02 -0.115171D-01  0.197809D-01  0.120943D-02 -0.192752D-02
     13  0.375837D-02 -0.100408D-02 -0.670271D-04  0.147489D-01 -0.167674D-01
     14  0.151704D-02 -0.868699D-03  0.925426D-02 -0.256262D-01 -0.150843D-02
     15 -0.223934D-02 -0.531671D-02 -0.563235D-02  0.393325D-02  0.290263D-01
               11            12            13            14            15 
     11  0.714210D-01
     12 -0.419357D-02  0.192729D+00
     13 -0.546524D-03 -0.420796D-02  0.153974D-01
     14  0.793812D-02  0.183826D-03 -0.430185D-02  0.253832D-01
     15 -0.779242D-02 -0.529704D-02 -0.156063D-02 -0.353517D-02  0.289695D-01
 Leave Link  716 at Fri Jul  9 19:21:06 2021, MaxMem=  4194304000 cpu:         8.4
 (Enter /home/minenky/programs//g09/l103.exe)

 GradGradGradGradGradGradGradGradGradGradGradGradGradGradGradGradGradGrad
 Berny optimization.
 Red2BG is reusing G-inverse.
 Internal  Forces:  Max     0.000001379 RMS     0.000000649
 Search for a local minimum.
 Step number   1 out of a maximum of    2
 All quantities printed in internal units (Hartrees-Bohrs-Radians)
 Second derivative matrix not updated -- analytic derivatives used.
 The second derivative matrix:
                          R1        R2        R3        R4        R5
           R1           0.32875
           R2           0.01101   0.29154
           R3           0.01288   0.00064   0.32868
           R4           0.01193   0.00115   0.00298   0.34282
           R5           0.00004   0.00053   0.00261  -0.00066   0.30799
           A1          -0.02404   0.03047  -0.00471  -0.00565  -0.00057
           A2           0.01648  -0.00694  -0.00186  -0.00780  -0.00541
           A3           0.02617  -0.00768  -0.00775   0.00096   0.00787
           A4          -0.00432  -0.00315   0.00715  -0.00277   0.00016
           A5          -0.00841  -0.00059  -0.00340   0.00724  -0.00147
           A6          -0.01733  -0.00247   0.00921   0.00719  -0.00110
           A7           0.04971   0.00082  -0.00536   0.00545   0.02045
           D1          -0.00155   0.00076   0.00418  -0.00484  -0.00049
           D2           0.01509  -0.01341  -0.00085   0.00392   0.00097
           D3          -0.01877   0.01453  -0.00350   0.00056  -0.00101
                          A1        A2        A3        A4        A5
           A1           0.04018
           A2           0.00433   0.09700
           A3          -0.00075  -0.04648   0.10425
           A4          -0.02067  -0.02184   0.00185   0.04950
           A5          -0.02372   0.00166  -0.02137  -0.00037   0.05500
           A6          -0.00093  -0.03734  -0.04069   0.00083   0.00055
           A7          -0.00482  -0.01152   0.01978   0.00121  -0.00193
           D1           0.00376  -0.00100  -0.00007   0.01475  -0.01677
           D2           0.00152  -0.00087   0.00925  -0.02563  -0.00151
           D3          -0.00224  -0.00532  -0.00563   0.00393   0.02903
                          A6        A7        D1        D2        D3
           A6           0.07142
           A7          -0.00419   0.19273
           D1          -0.00055  -0.00421   0.01540
           D2           0.00794   0.00018  -0.00430   0.02538
           D3          -0.00779  -0.00530  -0.00156  -0.00354   0.02897
 ITU=  0
     Eigenvalues ---    0.01384   0.02618   0.06920   0.09011   0.11644
     Eigenvalues ---    0.14268   0.18240   0.29675   0.31035   0.32775
     Eigenvalues ---    0.33715   0.36677
 Angle between quadratic step and forces=  44.75 degrees.
 Linear search not attempted -- first point.
 Iteration  1 RMS(Cart)=  0.00001574 RMS(Int)=  0.00000000
 Iteration  2 RMS(Cart)=  0.00000000 RMS(Int)=  0.00000000
 ITry= 1 IFail=0 DXMaxC= 3.10D-05 DCOld= 1.00D+10 DXMaxT= 3.00D-01 DXLimC= 3.00D+00 Rises=F
 Variable       Old X    -DE/DX   Delta X   Delta X   Delta X     New X
                                 (Linear)    (Quad)   (Total)
    R1        2.73903   0.00000   0.00000   0.00000   0.00000   2.73902
    R2        2.12034   0.00000   0.00000   0.00000   0.00000   2.12034
    R3        2.07006   0.00000   0.00000   0.00000   0.00000   2.07006
    R4        2.06003   0.00000   0.00000   0.00000   0.00000   2.06002
    R5        2.09291   0.00000   0.00000   0.00000   0.00000   2.09291
    A1        1.59237   0.00000   0.00000  -0.00001  -0.00001   1.59237
    A2        2.10857   0.00000   0.00000  -0.00001  -0.00001   2.10856
    A3        2.02419   0.00000   0.00000   0.00001   0.00001   2.02420
    A4        1.85419   0.00000   0.00000  -0.00002  -0.00002   1.85417
    A5        1.84304   0.00000   0.00000   0.00002   0.00002   1.84307
    A6        1.96651   0.00000   0.00000   0.00000   0.00000   1.96651
    A7        1.85872   0.00000   0.00000   0.00000   0.00000   1.85871
    D1        1.48611   0.00000   0.00000  -0.00005  -0.00005   1.48607
    D2       -0.43002   0.00000   0.00000  -0.00002  -0.00002  -0.43004
    D3       -2.91140   0.00000   0.00000  -0.00002  -0.00002  -2.91142
         Item               Value     Threshold  Converged?
 Maximum Force            0.000001     0.000015     YES
 RMS     Force            0.000001     0.000010     YES
 Maximum Displacement     0.000031     0.000060     YES
 RMS     Displacement     0.000016     0.000040     YES
 Predicted change in Energy=-5.866135D-11
 Optimization completed.
    -- Stationary point found.
                           ----------------------------
                           !   Optimized Parameters   !
                           ! (Angstroms and Degrees)  !
 --------------------------                            --------------------------
 ! Name  Definition              Value          Derivative Info.                !
 --------------------------------------------------------------------------------
 ! R1    R(1,2)                  1.4494         -DE/DX =    0.0                 !
 ! R2    R(1,4)                  1.122          -DE/DX =    0.0                 !
 ! R3    R(1,5)                  1.0954         -DE/DX =    0.0                 !
 ! R4    R(1,6)                  1.0901         -DE/DX =    0.0                 !
 ! R5    R(2,3)                  1.1075         -DE/DX =    0.0                 !
 ! A1    A(2,1,4)               91.2363         -DE/DX =    0.0                 !
 ! A2    A(2,1,5)              120.812          -DE/DX =    0.0                 !
 ! A3    A(2,1,6)              115.9778         -DE/DX =    0.0                 !
 ! A4    A(4,1,5)              106.2373         -DE/DX =    0.0                 !
 ! A5    A(4,1,6)              105.5986         -DE/DX =    0.0                 !
 ! A6    A(5,1,6)              112.6727         -DE/DX =    0.0                 !
 ! A7    A(1,2,3)              106.4965         -DE/DX =    0.0                 !
 ! D1    D(4,1,2,3)             85.148          -DE/DX =    0.0                 !
 ! D2    D(5,1,2,3)            -24.6385         -DE/DX =    0.0                 !
 ! D3    D(6,1,2,3)           -166.8107         -DE/DX =    0.0                 !
 --------------------------------------------------------------------------------
 GradGradGradGradGradGradGradGradGradGradGradGradGradGradGradGradGradGrad

 Leave Link  103 at Fri Jul  9 19:21:07 2021, MaxMem=  4194304000 cpu:        14.2
 (Enter /home/minenky/programs//g09/l9999.exe)
 1\1\GINC-CN514-04-R\Freq\RwB97XD\def2TZVP\C2H4\MINENKY\09-Jul-2021\0\\
 #P Geom=AllCheck Guess=TCheck SCRF=Check GenChk RwB97XD/def2TZVP Freq\
 \The PBEPBE optimization and frequencies\\0,1\C,0.5919451927,0.0223680
 294,-0.0312922227\C,-0.8417506977,-0.1905640339,-0.0361543097\H,-1.308
 8507262,0.8128247022,0.0042148655\H,0.6046495219,0.0760238513,1.089387
 2415\H,1.0203658019,0.9653428623,-0.3879670116\H,1.2039039074,-0.84178
 44113,-0.290338563\\Version=AM64L-G09RevD.01\State=1-A\HF=-78.4681398\
 RMSD=1.357e-09\RMSF=1.015e-06\ZeroPoint=0.0469423\Thermal=0.0502826\Di
 pole=0.7101443,0.6775243,0.0986776\DipoleDeriv=-0.2666518,-0.0517633,-
 0.2681673,-0.1693086,0.1264247,-0.1051632,-0.3914202,-0.042968,0.05877
 12,0.2508515,0.0345636,0.1420193,-0.0245422,0.0862313,0.0587264,0.0561
 507,-0.0601419,-0.5181948,0.085254,0.0411846,0.0068146,0.2270864,-0.23
 82691,-0.017586,0.0030685,0.0477668,0.2025051,0.0323445,-0.0014068,0.0
 830944,-0.0074314,0.1315115,0.0083453,0.1313261,0.0085598,0.0536495,-0
 .0764454,-0.0775434,0.011267,-0.1005568,-0.0773053,0.0811593,0.1063984
 ,0.0610357,0.1367914,-0.0253528,0.0549652,0.0249721,0.0747526,-0.02859
 31,-0.0254819,0.0944765,-0.0142524,0.0664776\Polar=31.4954635,0.061156
 5,25.5110935,-0.0951389,0.2798523,22.0261139\PG=C01 [X(C2H4)]\NImag=0\
 \0.54103033,-0.02706664,0.57617062,-0.08622461,-0.00801189,0.37687689,
 -0.27130485,-0.04696569,0.03856658,0.37380704,-0.00142857,-0.07712327,
 0.00374844,-0.06508234,0.32911905,0.01399494,-0.01107441,0.00581276,-0
 .02125602,0.01048505,0.02514523,-0.02422931,0.03795265,0.00397199,-0.0
 7118832,0.07044586,0.00417289,0.09842255,-0.01188197,-0.00175537,-0.00
 014250,0.11782773,-0.25699877,-0.00912458,-0.10707600,0.25323583,0.000
 61181,0.00856433,-0.00047802,0.00447325,-0.01066010,-0.01457239,-0.006
 51535,0.00901020,0.01307984,-0.03877815,0.00001595,-0.04292116,0.00724
 090,-0.00079568,-0.00654400,0.00093159,0.00052945,-0.00023036,0.025531
 55,-0.00124684,-0.02464067,-0.01846309,0.00248146,-0.00432311,0.002164
 93,-0.00000001,-0.00043408,-0.00153931,-0.00187017,0.03332209,-0.00401
 182,-0.01153828,-0.25655789,-0.01031414,-0.00273446,-0.01696769,-0.000
 59003,0.00036388,-0.00085367,0.01816281,0.01525437,0.29029250,-0.08411
 381,-0.07728079,0.04280189,-0.01762395,-0.02760524,0.00398555,0.002906
 69,0.00016707,0.00163604,0.00281316,0.00351047,-0.00147023,0.08953193,
 -0.07112126,-0.24407652,0.07350542,-0.00898119,-0.00020423,0.00283382,
 0.00036955,0.00367085,-0.00266707,0.00068247,-0.00058369,-0.00126463,0
 .08821113,0.25913410,0.03454917,0.07160379,-0.07025029,-0.00393285,-0.
 00439930,0.00985793,0.00073201,-0.00066254,-0.00575491,0.01238087,0.02
 296474,-0.00812003,-0.03969493,-0.08193094,0.07096630,-0.12260421,0.11
 334451,0.04380530,-0.02093082,0.02446597,0.00564664,-0.00684321,0.0004
 3372,0.00002461,0.00226095,-0.00287490,-0.00177659,0.00648598,-0.00916
 069,-0.00403426,0.14163131,0.11274528,-0.22857479,-0.05063638,0.000720
 03,0.00953033,0.00471519,-0.00169204,0.00228154,-0.00270805,0.00143799
 ,-0.00334054,-0.00008087,0.01299736,-0.01794052,-0.00757575,-0.1262086
 1,0.23804398,0.04108051,-0.04954354,-0.05540346,-0.00753681,0.00356036
 ,-0.00927584,-0.00177152,0.00055555,0.00857914,0.01915184,-0.02038164,
 -0.00779322,-0.00725832,0.00952340,0.00330099,-0.04366570,0.05628587,0
 .06059239\\-0.00000072,0.00000301,0.00000045,0.00000015,-0.00000036,-0
 .00000030,-0.00000030,0.00000050,-0.00000157,-0.00000016,-0.00000132,0
 .00000012,0.00000044,-0.00000088,0.,0.00000059,-0.00000096,0.00000131\
 \\@


 "WHERE SHALL I START, PLEASE YOUR MAJESTY?" HE ASKED.
 "BEGIN AT THE BEGINNING," THE KING SAID GRAVELY,
 "AND GO ON TILL YOU COME TO THE END: THEN STOP." 

                                      -- LEWIS CARROLL
 Job cpu time:       0 days  0 hours  5 minutes 31.7 seconds.
 File lengths (MBytes):  RWF=     10 Int=      0 D2E=      0 Chk=      2 Scr=      1
 Normal termination of Gaussian 09 at Fri Jul  9 19:21:07 2021.
