 Entering Gaussian System, Link 0=g09
 Initial command:
 /home/minenky/programs//g09/l1.exe "/local/scratch/minenky/m1_00_120836-18-2-C32H16_wB97XD/Gau-370235.inp" -scrdir="/local/scratch/minenky/m1_00_120836-18-2-C32H16_wB97XD/"
 Entering Link 1 = /home/minenky/programs//g09/l1.exe PID=    370237.
  
 Copyright (c) 1988,1990,1992,1993,1995,1998,2003,2009,2013,
            Gaussian, Inc.  All Rights Reserved.
  
 This is part of the Gaussian(R) 09 program.  It is based on
 the Gaussian(R) 03 system (copyright 2003, Gaussian, Inc.),
 the Gaussian(R) 98 system (copyright 1998, Gaussian, Inc.),
 the Gaussian(R) 94 system (copyright 1995, Gaussian, Inc.),
 the Gaussian 92(TM) system (copyright 1992, Gaussian, Inc.),
 the Gaussian 90(TM) system (copyright 1990, Gaussian, Inc.),
 the Gaussian 88(TM) system (copyright 1988, Gaussian, Inc.),
 the Gaussian 86(TM) system (copyright 1986, Carnegie Mellon
 University), and the Gaussian 82(TM) system (copyright 1983,
 Carnegie Mellon University). Gaussian is a federally registered
 trademark of Gaussian, Inc.
  
 This software contains proprietary and confidential information,
 including trade secrets, belonging to Gaussian, Inc.
  
 This software is provided under written license and may be
 used, copied, transmitted, or stored only in accord with that
 written license.
  
 The following legend is applicable only to US Government
 contracts under FAR:
  
                    RESTRICTED RIGHTS LEGEND
  
 Use, reproduction and disclosure by the US Government is
 subject to restrictions as set forth in subparagraphs (a)
 and (c) of the Commercial Computer Software - Restricted
 Rights clause in FAR 52.227-19.
  
 Gaussian, Inc.
 340 Quinnipiac St., Bldg. 40, Wallingford CT 06492
  
  
 ---------------------------------------------------------------
 Warning -- This program may not be used in any manner that
 competes with the business of Gaussian, Inc. or will provide
 assistance to any competitor of Gaussian, Inc.  The licensee
 of this program is prohibited from giving any competitor of
 Gaussian, Inc. access to this program.  By using this program,
 the user acknowledges that Gaussian, Inc. is engaged in the
 business of creating and licensing software in the field of
 computational chemistry and represents and warrants to the
 licensee that it is not a competitor of Gaussian, Inc. and that
 it will not use this program in any manner prohibited above.
 ---------------------------------------------------------------
  

 Cite this work as:
 Gaussian 09, Revision D.01,
 M. J. Frisch, G. W. Trucks, H. B. Schlegel, G. E. Scuseria, 
 M. A. Robb, J. R. Cheeseman, G. Scalmani, V. Barone, B. Mennucci, 
 G. A. Petersson, H. Nakatsuji, M. Caricato, X. Li, H. P. Hratchian, 
 A. F. Izmaylov, J. Bloino, G. Zheng, J. L. Sonnenberg, M. Hada, 
 M. Ehara, K. Toyota, R. Fukuda, J. Hasegawa, M. Ishida, T. Nakajima, 
 Y. Honda, O. Kitao, H. Nakai, T. Vreven, J. A. Montgomery, Jr., 
 J. E. Peralta, F. Ogliaro, M. Bearpark, J. J. Heyd, E. Brothers, 
 K. N. Kudin, V. N. Staroverov, T. Keith, R. Kobayashi, J. Normand, 
 K. Raghavachari, A. Rendell, J. C. Burant, S. S. Iyengar, J. Tomasi, 
 M. Cossi, N. Rega, J. M. Millam, M. Klene, J. E. Knox, J. B. Cross, 
 V. Bakken, C. Adamo, J. Jaramillo, R. Gomperts, R. E. Stratmann, 
 O. Yazyev, A. J. Austin, R. Cammi, C. Pomelli, J. W. Ochterski, 
 R. L. Martin, K. Morokuma, V. G. Zakrzewski, G. A. Voth, 
 P. Salvador, J. J. Dannenberg, S. Dapprich, A. D. Daniels, 
 O. Farkas, J. B. Foresman, J. V. Ortiz, J. Cioslowski, 
 and D. J. Fox, Gaussian, Inc., Wallingford CT, 2013.
 
 ******************************************
 Gaussian 09:  AM64L-G09RevD.01 24-Apr-2013
                29-Jul-2019 
 ******************************************
 %Mem=32000MB
 %NProcShared=16
 Will use up to   16 processors via shared memory.
 %Chk=m1_00_120836-18-2-C32H16_wB97XD
 ----------------------------------------------------------------------
 #P wB97XD/def2tzvp opt=(tight) freq integral(Grid=ultrafine) # SCF(Max
 Cycle=380) 5d 7f GFPrint
 ----------------------------------------------------------------------
 1/7=10,14=-1,18=20,19=15,26=4,38=1/1,3;
 2/9=110,12=2,17=6,18=5,40=1/2;
 3/5=44,7=101,8=11,11=2,16=1,24=100,25=1,30=1,71=1,74=-58,75=-5/1,2,3;
 4//1;
 5/5=2,7=380,38=5/2;
 6/7=2,8=2,9=2,10=2,28=1/1;
 7//1,2,3,16;
 1/7=10,14=-1,18=20,19=15,26=4/3(2);
 2/9=110/2;
 99//99;
 2/9=110/2;
 3/5=44,7=101,8=11,11=2,16=1,25=1,30=1,71=1,74=-58,75=-5/1,2,3;
 4/5=5,16=3,69=1/1;
 5/5=2,7=380,38=5/2;
 7//1,2,3,16;
 1/7=10,14=-1,18=20,19=15,26=4/3(-5);
 2/9=110/2;
 6/7=2,8=2,9=2,10=2,19=2,28=1/1;
 99/9=1/99;
 Leave Link    1 at Mon Jul 29 09:50:35 2019, MaxMem=  4194304000 cpu:         1.0
 (Enter /home/minenky/programs//g09/l101.exe)
 ---------------------------------------
 The PBEPBE optimization and frequencies
 ---------------------------------------
 Symbolic Z-matrix:
 Charge =  0 Multiplicity = 1
 C                     5.58928   0.35289  -0.68923 
 C                     5.76355   1.73921  -0.43353 
 C                     4.68792   2.50071  -0.09864 
 C                     4.36848  -0.23203  -0.54127 
 C                     3.21559   0.51161  -0.12992 
 C                     3.38494   1.91685   0.01808 
 C                     2.28286   2.74352   0.24787 
 C                     0.99675   2.20882   0.24847 
 C                    -0.13493   3.07641   0.33155 
 C                    -1.40767   2.58164   0.24502 
 C                    -2.5615    3.45707   0.28341 
 C                    -3.81102   2.97362   0.14915 
 C                    -4.05203   1.55758  -0.03094 
 C                    -5.34153   1.06576  -0.18728 
 C                    -5.55487  -0.30539  -0.35619 
 C                    -4.4908   -1.18412  -0.36148 
 C                    -2.94865   0.665    -0.04431 
 C                    -3.17176  -0.71808  -0.20208 
 C                    -1.61477   1.16804   0.09657 
 C                    -0.52585   0.29795   0.07975 
 C                     1.93296  -0.06199   0.07411 
 C                     0.81641   0.80035   0.14646 
 C                     1.69108  -1.50043   0.21001 
 C                     1.19262  -4.28491   0.32741 
 C                     2.44503  -3.78646   0.59415 
 C                     2.68861  -2.40669   0.54133 
 C                     0.12838  -3.39345   0.07558 
 C                     0.36405  -2.0027    0.06254 
 C                    -0.75234  -1.11413  -0.03526 
 C                    -2.0459   -1.61821  -0.17711 
 C                    -2.24186  -3.0293   -0.26188 
 C                    -1.19591  -3.88775  -0.13215 
 H                     6.45275  -0.23658  -1.01509 
 H                     6.76227   2.17769  -0.5254 
 H                     4.79345   3.57734   0.07864 
 H                     4.25874  -1.30285  -0.76113 
 H                     2.42811   3.82227   0.38708 
 H                     0.03829   4.15395   0.44541 
 H                    -2.38086   4.52958   0.42049 
 H                    -4.68166   3.63926   0.17252 
 H                    -6.19537   1.7527   -0.17872 
 H                    -6.57583  -0.68077  -0.48242 
 H                    -4.65497  -2.2652   -0.48796 
 H                     1.00378  -5.3642    0.332 
 H                     3.26827  -4.46413   0.84423 
 H                     3.70634  -2.05684   0.76248 
 H                    -3.26751  -3.39842  -0.41617 
 H                    -1.34964  -4.97215  -0.1736 
 
 NAtoms=     48 NQM=       48 NQMF=       0 NMMI=      0 NMMIF=      0
                NMic=       0 NMicF=      0.
                    Isotopes and Nuclear Properties:
 (Nuclear quadrupole moments (NQMom) in fm**2, nuclear magnetic moments (NMagM)
  in nuclear magnetons)

  Atom         1           2           3           4           5           6           7           8           9          10
 IAtWgt=          12          12          12          12          12          12          12          12          12          12
 AtmWgt=  12.0000000  12.0000000  12.0000000  12.0000000  12.0000000  12.0000000  12.0000000  12.0000000  12.0000000  12.0000000
 NucSpn=           0           0           0           0           0           0           0           0           0           0
 AtZEff=   0.0000000   0.0000000   0.0000000   0.0000000   0.0000000   0.0000000   0.0000000   0.0000000   0.0000000   0.0000000
 NQMom=    0.0000000   0.0000000   0.0000000   0.0000000   0.0000000   0.0000000   0.0000000   0.0000000   0.0000000   0.0000000
 NMagM=    0.0000000   0.0000000   0.0000000   0.0000000   0.0000000   0.0000000   0.0000000   0.0000000   0.0000000   0.0000000
 AtZNuc=   6.0000000   6.0000000   6.0000000   6.0000000   6.0000000   6.0000000   6.0000000   6.0000000   6.0000000   6.0000000

  Atom        11          12          13          14          15          16          17          18          19          20
 IAtWgt=          12          12          12          12          12          12          12          12          12          12
 AtmWgt=  12.0000000  12.0000000  12.0000000  12.0000000  12.0000000  12.0000000  12.0000000  12.0000000  12.0000000  12.0000000
 NucSpn=           0           0           0           0           0           0           0           0           0           0
 AtZEff=   0.0000000   0.0000000   0.0000000   0.0000000   0.0000000   0.0000000   0.0000000   0.0000000   0.0000000   0.0000000
 NQMom=    0.0000000   0.0000000   0.0000000   0.0000000   0.0000000   0.0000000   0.0000000   0.0000000   0.0000000   0.0000000
 NMagM=    0.0000000   0.0000000   0.0000000   0.0000000   0.0000000   0.0000000   0.0000000   0.0000000   0.0000000   0.0000000
 AtZNuc=   6.0000000   6.0000000   6.0000000   6.0000000   6.0000000   6.0000000   6.0000000   6.0000000   6.0000000   6.0000000

  Atom        21          22          23          24          25          26          27          28          29          30
 IAtWgt=          12          12          12          12          12          12          12          12          12          12
 AtmWgt=  12.0000000  12.0000000  12.0000000  12.0000000  12.0000000  12.0000000  12.0000000  12.0000000  12.0000000  12.0000000
 NucSpn=           0           0           0           0           0           0           0           0           0           0
 AtZEff=   0.0000000   0.0000000   0.0000000   0.0000000   0.0000000   0.0000000   0.0000000   0.0000000   0.0000000   0.0000000
 NQMom=    0.0000000   0.0000000   0.0000000   0.0000000   0.0000000   0.0000000   0.0000000   0.0000000   0.0000000   0.0000000
 NMagM=    0.0000000   0.0000000   0.0000000   0.0000000   0.0000000   0.0000000   0.0000000   0.0000000   0.0000000   0.0000000
 AtZNuc=   6.0000000   6.0000000   6.0000000   6.0000000   6.0000000   6.0000000   6.0000000   6.0000000   6.0000000   6.0000000

  Atom        31          32          33          34          35          36          37          38          39          40
 IAtWgt=          12          12           1           1           1           1           1           1           1           1
 AtmWgt=  12.0000000  12.0000000   1.0078250   1.0078250   1.0078250   1.0078250   1.0078250   1.0078250   1.0078250   1.0078250
 NucSpn=           0           0           1           1           1           1           1           1           1           1
 AtZEff=   0.0000000   0.0000000   0.0000000   0.0000000   0.0000000   0.0000000   0.0000000   0.0000000   0.0000000   0.0000000
 NQMom=    0.0000000   0.0000000   0.0000000   0.0000000   0.0000000   0.0000000   0.0000000   0.0000000   0.0000000   0.0000000
 NMagM=    0.0000000   0.0000000   2.7928460   2.7928460   2.7928460   2.7928460   2.7928460   2.7928460   2.7928460   2.7928460
 AtZNuc=   6.0000000   6.0000000   1.0000000   1.0000000   1.0000000   1.0000000   1.0000000   1.0000000   1.0000000   1.0000000

  Atom        41          42          43          44          45          46          47          48
 IAtWgt=           1           1           1           1           1           1           1           1
 AtmWgt=   1.0078250   1.0078250   1.0078250   1.0078250   1.0078250   1.0078250   1.0078250   1.0078250
 NucSpn=           1           1           1           1           1           1           1           1
 AtZEff=   0.0000000   0.0000000   0.0000000   0.0000000   0.0000000   0.0000000   0.0000000   0.0000000
 NQMom=    0.0000000   0.0000000   0.0000000   0.0000000   0.0000000   0.0000000   0.0000000   0.0000000
 NMagM=    2.7928460   2.7928460   2.7928460   2.7928460   2.7928460   2.7928460   2.7928460   2.7928460
 AtZNuc=   1.0000000   1.0000000   1.0000000   1.0000000   1.0000000   1.0000000   1.0000000   1.0000000
 Leave Link  101 at Mon Jul 29 09:50:35 2019, MaxMem=  4194304000 cpu:         5.5
 (Enter /home/minenky/programs//g09/l103.exe)

 GradGradGradGradGradGradGradGradGradGradGradGradGradGradGradGradGradGrad
 Berny optimization.
 Initialization pass.
                           ----------------------------
                           !    Initial Parameters    !
                           ! (Angstroms and Degrees)  !
 --------------------------                            --------------------------
 ! Name  Definition              Value          Derivative Info.                !
 --------------------------------------------------------------------------------
 ! R1    R(1,2)                  1.4204         estimate D2E/DX2                !
 ! R2    R(1,4)                  1.3618         estimate D2E/DX2                !
 ! R3    R(1,33)                 1.0951         estimate D2E/DX2                !
 ! R4    R(2,3)                  1.3598         estimate D2E/DX2                !
 ! R5    R(2,34)                 1.0946         estimate D2E/DX2                !
 ! R6    R(3,6)                  1.4326         estimate D2E/DX2                !
 ! R7    R(3,35)                 1.0962         estimate D2E/DX2                !
 ! R8    R(4,5)                  1.4323         estimate D2E/DX2                !
 ! R9    R(4,36)                 1.0987         estimate D2E/DX2                !
 ! R10   R(5,6)                  1.4231         estimate D2E/DX2                !
 ! R11   R(5,21)                 1.4198         estimate D2E/DX2                !
 ! R12   R(6,7)                  1.3967         estimate D2E/DX2                !
 ! R13   R(7,8)                  1.3928         estimate D2E/DX2                !
 ! R14   R(7,37)                 1.0973         estimate D2E/DX2                !
 ! R15   R(8,9)                  1.4284         estimate D2E/DX2                !
 ! R16   R(8,22)                 1.4236         estimate D2E/DX2                !
 ! R17   R(9,10)                 1.3683         estimate D2E/DX2                !
 ! R18   R(9,38)                 1.0973         estimate D2E/DX2                !
 ! R19   R(10,11)                1.4489         estimate D2E/DX2                !
 ! R20   R(10,19)                1.4364         estimate D2E/DX2                !
 ! R21   R(11,12)                1.3465         estimate D2E/DX2                !
 ! R22   R(11,39)                1.0962         estimate D2E/DX2                !
 ! R23   R(12,13)                1.4476         estimate D2E/DX2                !
 ! R24   R(12,40)                1.0962         estimate D2E/DX2                !
 ! R25   R(13,14)                1.3889         estimate D2E/DX2                !
 ! R26   R(13,17)                1.4193         estimate D2E/DX2                !
 ! R27   R(14,15)                1.3979         estimate D2E/DX2                !
 ! R28   R(14,41)                1.0959         estimate D2E/DX2                !
 ! R29   R(15,16)                1.38           estimate D2E/DX2                !
 ! R30   R(15,42)                1.0951         estimate D2E/DX2                !
 ! R31   R(16,18)                1.408          estimate D2E/DX2                !
 ! R32   R(16,43)                1.1008         estimate D2E/DX2                !
 ! R33   R(17,18)                1.4098         estimate D2E/DX2                !
 ! R34   R(17,19)                1.4325         estimate D2E/DX2                !
 ! R35   R(18,30)                1.4417         estimate D2E/DX2                !
 ! R36   R(19,20)                1.3939         estimate D2E/DX2                !
 ! R37   R(20,22)                1.4348         estimate D2E/DX2                !
 ! R38   R(20,29)                1.4348         estimate D2E/DX2                !
 ! R39   R(21,22)                1.4126         estimate D2E/DX2                !
 ! R40   R(21,23)                1.465          estimate D2E/DX2                !
 ! R41   R(23,26)                1.3879         estimate D2E/DX2                !
 ! R42   R(23,28)                1.4266         estimate D2E/DX2                !
 ! R43   R(24,25)                1.3741         estimate D2E/DX2                !
 ! R44   R(24,27)                1.4109         estimate D2E/DX2                !
 ! R45   R(24,44)                1.0957         estimate D2E/DX2                !
 ! R46   R(25,26)                1.4021         estimate D2E/DX2                !
 ! R47   R(25,45)                1.0952         estimate D2E/DX2                !
 ! R48   R(26,46)                1.0987         estimate D2E/DX2                !
 ! R49   R(27,28)                1.4106         estimate D2E/DX2                !
 ! R50   R(27,32)                1.4287         estimate D2E/DX2                !
 ! R51   R(28,29)                1.4302         estimate D2E/DX2                !
 ! R52   R(29,30)                1.3955         estimate D2E/DX2                !
 ! R53   R(30,31)                1.4271         estimate D2E/DX2                !
 ! R54   R(31,32)                1.3593         estimate D2E/DX2                !
 ! R55   R(31,47)                1.1009         estimate D2E/DX2                !
 ! R56   R(32,48)                1.096          estimate D2E/DX2                !
 ! A1    A(2,1,4)              120.6401         estimate D2E/DX2                !
 ! A2    A(2,1,33)             118.8284         estimate D2E/DX2                !
 ! A3    A(4,1,33)             120.5299         estimate D2E/DX2                !
 ! A4    A(1,2,3)              119.5943         estimate D2E/DX2                !
 ! A5    A(1,2,34)             119.1952         estimate D2E/DX2                !
 ! A6    A(3,2,34)             121.2037         estimate D2E/DX2                !
 ! A7    A(2,3,6)              120.75           estimate D2E/DX2                !
 ! A8    A(2,3,35)             120.9094         estimate D2E/DX2                !
 ! A9    A(6,3,35)             118.3377         estimate D2E/DX2                !
 ! A10   A(1,4,5)              121.9927         estimate D2E/DX2                !
 ! A11   A(1,4,36)             119.1082         estimate D2E/DX2                !
 ! A12   A(5,4,36)             118.8898         estimate D2E/DX2                !
 ! A13   A(4,5,6)              116.5361         estimate D2E/DX2                !
 ! A14   A(4,5,21)             123.9656         estimate D2E/DX2                !
 ! A15   A(6,5,21)             119.4385         estimate D2E/DX2                !
 ! A16   A(3,6,5)              120.146          estimate D2E/DX2                !
 ! A17   A(3,6,7)              119.331          estimate D2E/DX2                !
 ! A18   A(5,6,7)              120.5073         estimate D2E/DX2                !
 ! A19   A(6,7,8)              120.0959         estimate D2E/DX2                !
 ! A20   A(6,7,37)             119.8854         estimate D2E/DX2                !
 ! A21   A(8,7,37)             119.9711         estimate D2E/DX2                !
 ! A22   A(7,8,9)              119.8951         estimate D2E/DX2                !
 ! A23   A(7,8,22)             119.7854         estimate D2E/DX2                !
 ! A24   A(9,8,22)             120.3131         estimate D2E/DX2                !
 ! A25   A(8,9,10)             120.907          estimate D2E/DX2                !
 ! A26   A(8,9,38)             118.5171         estimate D2E/DX2                !
 ! A27   A(10,9,38)            120.5636         estimate D2E/DX2                !
 ! A28   A(9,10,11)            121.373          estimate D2E/DX2                !
 ! A29   A(9,10,19)            119.7703         estimate D2E/DX2                !
 ! A30   A(11,10,19)           118.8524         estimate D2E/DX2                !
 ! A31   A(10,11,12)           121.2943         estimate D2E/DX2                !
 ! A32   A(10,11,39)           117.5962         estimate D2E/DX2                !
 ! A33   A(12,11,39)           121.1087         estimate D2E/DX2                !
 ! A34   A(11,12,13)           121.2051         estimate D2E/DX2                !
 ! A35   A(11,12,40)           121.1242         estimate D2E/DX2                !
 ! A36   A(13,12,40)           117.6707         estimate D2E/DX2                !
 ! A37   A(12,13,14)           120.993          estimate D2E/DX2                !
 ! A38   A(12,13,17)           119.1378         estimate D2E/DX2                !
 ! A39   A(14,13,17)           119.8691         estimate D2E/DX2                !
 ! A40   A(13,14,15)           120.1731         estimate D2E/DX2                !
 ! A41   A(13,14,41)           120.0337         estimate D2E/DX2                !
 ! A42   A(15,14,41)           119.7933         estimate D2E/DX2                !
 ! A43   A(14,15,16)           120.4884         estimate D2E/DX2                !
 ! A44   A(14,15,42)           119.5015         estimate D2E/DX2                !
 ! A45   A(16,15,42)           120.0099         estimate D2E/DX2                !
 ! A46   A(15,16,18)           120.7401         estimate D2E/DX2                !
 ! A47   A(15,16,43)           120.7184         estimate D2E/DX2                !
 ! A48   A(18,16,43)           118.5414         estimate D2E/DX2                !
 ! A49   A(13,17,18)           119.6697         estimate D2E/DX2                !
 ! A50   A(13,17,19)           120.1409         estimate D2E/DX2                !
 ! A51   A(18,17,19)           120.1889         estimate D2E/DX2                !
 ! A52   A(16,18,17)           119.0543         estimate D2E/DX2                !
 ! A53   A(16,18,30)           121.7963         estimate D2E/DX2                !
 ! A54   A(17,18,30)           119.1436         estimate D2E/DX2                !
 ! A55   A(10,19,17)           119.3406         estimate D2E/DX2                !
 ! A56   A(10,19,20)           120.1923         estimate D2E/DX2                !
 ! A57   A(17,19,20)           120.4652         estimate D2E/DX2                !
 ! A58   A(19,20,22)           120.7763         estimate D2E/DX2                !
 ! A59   A(19,20,29)           119.471          estimate D2E/DX2                !
 ! A60   A(22,20,29)           119.7384         estimate D2E/DX2                !
 ! A61   A(5,21,22)            118.3452         estimate D2E/DX2                !
 ! A62   A(5,21,23)            123.9991         estimate D2E/DX2                !
 ! A63   A(22,21,23)           117.6553         estimate D2E/DX2                !
 ! A64   A(8,22,20)            117.9228         estimate D2E/DX2                !
 ! A65   A(8,22,21)            120.4969         estimate D2E/DX2                !
 ! A66   A(20,22,21)           121.5541         estimate D2E/DX2                !
 ! A67   A(21,23,26)           123.0011         estimate D2E/DX2                !
 ! A68   A(21,23,28)           119.3218         estimate D2E/DX2                !
 ! A69   A(26,23,28)           117.6054         estimate D2E/DX2                !
 ! A70   A(25,24,27)           119.5342         estimate D2E/DX2                !
 ! A71   A(25,24,44)           120.9033         estimate D2E/DX2                !
 ! A72   A(27,24,44)           119.5451         estimate D2E/DX2                !
 ! A73   A(24,25,26)           120.5308         estimate D2E/DX2                !
 ! A74   A(24,25,45)           120.3294         estimate D2E/DX2                !
 ! A75   A(26,25,45)           119.1384         estimate D2E/DX2                !
 ! A76   A(23,26,25)           121.7841         estimate D2E/DX2                !
 ! A77   A(23,26,46)           120.3921         estimate D2E/DX2                !
 ! A78   A(25,26,46)           117.8211         estimate D2E/DX2                !
 ! A79   A(24,27,28)           119.904          estimate D2E/DX2                !
 ! A80   A(24,27,32)           120.4319         estimate D2E/DX2                !
 ! A81   A(28,27,32)           119.6437         estimate D2E/DX2                !
 ! A82   A(23,28,27)           120.1046         estimate D2E/DX2                !
 ! A83   A(23,28,29)           120.9607         estimate D2E/DX2                !
 ! A84   A(27,28,29)           118.8658         estimate D2E/DX2                !
 ! A85   A(20,29,28)           118.8671         estimate D2E/DX2                !
 ! A86   A(20,29,30)           120.6619         estimate D2E/DX2                !
 ! A87   A(28,29,30)           120.4032         estimate D2E/DX2                !
 ! A88   A(18,30,29)           120.0074         estimate D2E/DX2                !
 ! A89   A(18,30,31)           120.6024         estimate D2E/DX2                !
 ! A90   A(29,30,31)           119.3706         estimate D2E/DX2                !
 ! A91   A(30,31,32)           120.8704         estimate D2E/DX2                !
 ! A92   A(30,31,47)           117.8891         estimate D2E/DX2                !
 ! A93   A(32,31,47)           121.2306         estimate D2E/DX2                !
 ! A94   A(27,32,31)           120.5709         estimate D2E/DX2                !
 ! A95   A(27,32,48)           118.5424         estimate D2E/DX2                !
 ! A96   A(31,32,48)           120.8836         estimate D2E/DX2                !
 ! D1    D(4,1,2,3)             -3.0944         estimate D2E/DX2                !
 ! D2    D(4,1,2,34)           177.8403         estimate D2E/DX2                !
 ! D3    D(33,1,2,3)           176.4465         estimate D2E/DX2                !
 ! D4    D(33,1,2,34)           -2.6188         estimate D2E/DX2                !
 ! D5    D(2,1,4,5)              0.1692         estimate D2E/DX2                !
 ! D6    D(2,1,4,36)           179.0416         estimate D2E/DX2                !
 ! D7    D(33,1,4,5)          -179.3639         estimate D2E/DX2                !
 ! D8    D(33,1,4,36)           -0.4915         estimate D2E/DX2                !
 ! D9    D(1,2,3,6)              0.914          estimate D2E/DX2                !
 ! D10   D(1,2,3,35)          -178.4535         estimate D2E/DX2                !
 ! D11   D(34,2,3,6)           179.9601         estimate D2E/DX2                !
 ! D12   D(34,2,3,35)            0.5926         estimate D2E/DX2                !
 ! D13   D(2,3,6,5)              4.1421         estimate D2E/DX2                !
 ! D14   D(2,3,6,7)           -174.4241         estimate D2E/DX2                !
 ! D15   D(35,3,6,5)          -176.4744         estimate D2E/DX2                !
 ! D16   D(35,3,6,7)             4.9594         estimate D2E/DX2                !
 ! D17   D(1,4,5,6)              4.6967         estimate D2E/DX2                !
 ! D18   D(1,4,5,21)          -178.1386         estimate D2E/DX2                !
 ! D19   D(36,4,5,6)          -174.1781         estimate D2E/DX2                !
 ! D20   D(36,4,5,21)            2.9866         estimate D2E/DX2                !
 ! D21   D(4,5,6,3)             -6.7548         estimate D2E/DX2                !
 ! D22   D(4,5,6,7)            171.7943         estimate D2E/DX2                !
 ! D23   D(21,5,6,3)           175.9452         estimate D2E/DX2                !
 ! D24   D(21,5,6,7)            -5.5057         estimate D2E/DX2                !
 ! D25   D(4,5,21,22)         -164.2788         estimate D2E/DX2                !
 ! D26   D(4,5,21,23)           15.4696         estimate D2E/DX2                !
 ! D27   D(6,5,21,22)           12.8085         estimate D2E/DX2                !
 ! D28   D(6,5,21,23)         -167.4431         estimate D2E/DX2                !
 ! D29   D(3,6,7,8)            174.423          estimate D2E/DX2                !
 ! D30   D(3,6,7,37)            -3.0672         estimate D2E/DX2                !
 ! D31   D(5,6,7,8)             -4.1379         estimate D2E/DX2                !
 ! D32   D(5,6,7,37)           178.3719         estimate D2E/DX2                !
 ! D33   D(6,7,8,9)           -172.8852         estimate D2E/DX2                !
 ! D34   D(6,7,8,22)             6.1975         estimate D2E/DX2                !
 ! D35   D(37,7,8,9)             4.6029         estimate D2E/DX2                !
 ! D36   D(37,7,8,22)         -176.3145         estimate D2E/DX2                !
 ! D37   D(7,8,9,10)           175.65           estimate D2E/DX2                !
 ! D38   D(7,8,9,38)            -3.0797         estimate D2E/DX2                !
 ! D39   D(22,8,9,10)           -3.4277         estimate D2E/DX2                !
 ! D40   D(22,8,9,38)          177.8426         estimate D2E/DX2                !
 ! D41   D(7,8,22,20)         -176.7733         estimate D2E/DX2                !
 ! D42   D(7,8,22,21)            1.3945         estimate D2E/DX2                !
 ! D43   D(9,8,22,20)            2.3055         estimate D2E/DX2                !
 ! D44   D(9,8,22,21)         -179.5267         estimate D2E/DX2                !
 ! D45   D(8,9,10,11)         -177.9221         estimate D2E/DX2                !
 ! D46   D(8,9,10,19)            1.3124         estimate D2E/DX2                !
 ! D47   D(38,9,10,11)           0.7816         estimate D2E/DX2                !
 ! D48   D(38,9,10,19)        -179.9839         estimate D2E/DX2                !
 ! D49   D(9,10,11,12)         177.5444         estimate D2E/DX2                !
 ! D50   D(9,10,11,39)          -2.135          estimate D2E/DX2                !
 ! D51   D(19,10,11,12)         -1.697          estimate D2E/DX2                !
 ! D52   D(19,10,11,39)        178.6236         estimate D2E/DX2                !
 ! D53   D(9,10,19,17)        -177.6374         estimate D2E/DX2                !
 ! D54   D(9,10,19,20)           1.8692         estimate D2E/DX2                !
 ! D55   D(11,10,19,17)          1.6164         estimate D2E/DX2                !
 ! D56   D(11,10,19,20)       -178.8769         estimate D2E/DX2                !
 ! D57   D(10,11,12,13)          0.38           estimate D2E/DX2                !
 ! D58   D(10,11,12,40)       -179.6237         estimate D2E/DX2                !
 ! D59   D(39,11,12,13)       -179.9519         estimate D2E/DX2                !
 ! D60   D(39,11,12,40)          0.0444         estimate D2E/DX2                !
 ! D61   D(11,12,13,14)       -179.1124         estimate D2E/DX2                !
 ! D62   D(11,12,13,17)          1.003          estimate D2E/DX2                !
 ! D63   D(40,12,13,14)          0.8912         estimate D2E/DX2                !
 ! D64   D(40,12,13,17)       -178.9934         estimate D2E/DX2                !
 ! D65   D(12,13,14,15)       -179.8162         estimate D2E/DX2                !
 ! D66   D(12,13,14,41)          0.1977         estimate D2E/DX2                !
 ! D67   D(17,13,14,15)          0.0677         estimate D2E/DX2                !
 ! D68   D(17,13,14,41)       -179.9185         estimate D2E/DX2                !
 ! D69   D(12,13,17,18)        179.2056         estimate D2E/DX2                !
 ! D70   D(12,13,17,19)         -1.0395         estimate D2E/DX2                !
 ! D71   D(14,13,17,18)         -0.6803         estimate D2E/DX2                !
 ! D72   D(14,13,17,19)        179.0745         estimate D2E/DX2                !
 ! D73   D(13,14,15,16)          0.3905         estimate D2E/DX2                !
 ! D74   D(13,14,15,42)       -179.7612         estimate D2E/DX2                !
 ! D75   D(41,14,15,16)       -179.6233         estimate D2E/DX2                !
 ! D76   D(41,14,15,42)          0.225          estimate D2E/DX2                !
 ! D77   D(14,15,16,18)         -0.23           estimate D2E/DX2                !
 ! D78   D(14,15,16,43)        179.619          estimate D2E/DX2                !
 ! D79   D(42,15,16,18)        179.9225         estimate D2E/DX2                !
 ! D80   D(42,15,16,43)         -0.2285         estimate D2E/DX2                !
 ! D81   D(15,16,18,17)         -0.3843         estimate D2E/DX2                !
 ! D82   D(15,16,18,30)        178.7303         estimate D2E/DX2                !
 ! D83   D(43,16,18,17)        179.7634         estimate D2E/DX2                !
 ! D84   D(43,16,18,30)         -1.122          estimate D2E/DX2                !
 ! D85   D(13,17,18,16)          0.8325         estimate D2E/DX2                !
 ! D86   D(13,17,18,30)       -178.306          estimate D2E/DX2                !
 ! D87   D(19,17,18,16)       -178.9223         estimate D2E/DX2                !
 ! D88   D(19,17,18,30)          1.9393         estimate D2E/DX2                !
 ! D89   D(13,17,19,10)         -0.272          estimate D2E/DX2                !
 ! D90   D(13,17,19,20)       -179.7772         estimate D2E/DX2                !
 ! D91   D(18,17,19,10)        179.4816         estimate D2E/DX2                !
 ! D92   D(18,17,19,20)         -0.0236         estimate D2E/DX2                !
 ! D93   D(16,18,30,29)        179.1303         estimate D2E/DX2                !
 ! D94   D(16,18,30,31)         -2.489          estimate D2E/DX2                !
 ! D95   D(17,18,30,29)         -1.7558         estimate D2E/DX2                !
 ! D96   D(17,18,30,31)        176.6249         estimate D2E/DX2                !
 ! D97   D(10,19,20,22)         -2.9476         estimate D2E/DX2                !
 ! D98   D(10,19,20,29)        178.4283         estimate D2E/DX2                !
 ! D99   D(17,19,20,22)        176.5534         estimate D2E/DX2                !
 ! D100  D(17,19,20,29)         -2.0707         estimate D2E/DX2                !
 ! D101  D(19,20,22,8)           0.8449         estimate D2E/DX2                !
 ! D102  D(19,20,22,21)       -177.3025         estimate D2E/DX2                !
 ! D103  D(29,20,22,8)         179.4653         estimate D2E/DX2                !
 ! D104  D(29,20,22,21)          1.3179         estimate D2E/DX2                !
 ! D105  D(19,20,29,28)       -174.7614         estimate D2E/DX2                !
 ! D106  D(19,20,29,30)          2.257          estimate D2E/DX2                !
 ! D107  D(22,20,29,28)          6.6001         estimate D2E/DX2                !
 ! D108  D(22,20,29,30)       -176.3815         estimate D2E/DX2                !
 ! D109  D(5,21,22,8)          -10.8476         estimate D2E/DX2                !
 ! D110  D(5,21,22,20)         167.2526         estimate D2E/DX2                !
 ! D111  D(23,21,22,8)         169.3878         estimate D2E/DX2                !
 ! D112  D(23,21,22,20)        -12.512          estimate D2E/DX2                !
 ! D113  D(5,21,23,26)          19.4116         estimate D2E/DX2                !
 ! D114  D(5,21,23,28)        -163.7429         estimate D2E/DX2                !
 ! D115  D(22,21,23,26)       -160.8383         estimate D2E/DX2                !
 ! D116  D(22,21,23,28)         16.0071         estimate D2E/DX2                !
 ! D117  D(21,23,26,25)       -176.497          estimate D2E/DX2                !
 ! D118  D(21,23,26,46)          2.8942         estimate D2E/DX2                !
 ! D119  D(28,23,26,25)          6.6067         estimate D2E/DX2                !
 ! D120  D(28,23,26,46)       -174.0021         estimate D2E/DX2                !
 ! D121  D(21,23,28,27)        174.5537         estimate D2E/DX2                !
 ! D122  D(21,23,28,29)         -8.4973         estimate D2E/DX2                !
 ! D123  D(26,23,28,27)         -8.4316         estimate D2E/DX2                !
 ! D124  D(26,23,28,29)        168.5174         estimate D2E/DX2                !
 ! D125  D(27,24,25,26)         -3.7152         estimate D2E/DX2                !
 ! D126  D(27,24,25,45)        176.7137         estimate D2E/DX2                !
 ! D127  D(44,24,25,26)        177.8082         estimate D2E/DX2                !
 ! D128  D(44,24,25,45)         -1.7629         estimate D2E/DX2                !
 ! D129  D(25,24,27,28)          1.7575         estimate D2E/DX2                !
 ! D130  D(25,24,27,32)       -176.5943         estimate D2E/DX2                !
 ! D131  D(44,24,27,28)       -179.7449         estimate D2E/DX2                !
 ! D132  D(44,24,27,32)          1.9032         estimate D2E/DX2                !
 ! D133  D(24,25,26,23)         -0.5872         estimate D2E/DX2                !
 ! D134  D(24,25,26,46)       -179.9935         estimate D2E/DX2                !
 ! D135  D(45,25,26,23)        178.9889         estimate D2E/DX2                !
 ! D136  D(45,25,26,46)         -0.4174         estimate D2E/DX2                !
 ! D137  D(24,27,28,23)          4.3987         estimate D2E/DX2                !
 ! D138  D(24,27,28,29)       -172.6138         estimate D2E/DX2                !
 ! D139  D(32,27,28,23)       -177.2364         estimate D2E/DX2                !
 ! D140  D(32,27,28,29)          5.751          estimate D2E/DX2                !
 ! D141  D(24,27,32,31)        174.3857         estimate D2E/DX2                !
 ! D142  D(24,27,32,48)         -4.9721         estimate D2E/DX2                !
 ! D143  D(28,27,32,31)         -3.9704         estimate D2E/DX2                !
 ! D144  D(28,27,32,48)        176.6718         estimate D2E/DX2                !
 ! D145  D(23,28,29,20)         -2.8699         estimate D2E/DX2                !
 ! D146  D(23,28,29,30)       -179.8963         estimate D2E/DX2                !
 ! D147  D(27,28,29,20)        174.1162         estimate D2E/DX2                !
 ! D148  D(27,28,29,30)         -2.9102         estimate D2E/DX2                !
 ! D149  D(20,29,30,18)         -0.3332         estimate D2E/DX2                !
 ! D150  D(20,29,30,31)       -178.7339         estimate D2E/DX2                !
 ! D151  D(28,29,30,18)        176.6393         estimate D2E/DX2                !
 ! D152  D(28,29,30,31)         -1.7613         estimate D2E/DX2                !
 ! D153  D(18,30,31,32)       -174.7227         estimate D2E/DX2                !
 ! D154  D(18,30,31,47)          4.1438         estimate D2E/DX2                !
 ! D155  D(29,30,31,32)          3.6682         estimate D2E/DX2                !
 ! D156  D(29,30,31,47)       -177.4653         estimate D2E/DX2                !
 ! D157  D(30,31,32,27)         -0.7973         estimate D2E/DX2                !
 ! D158  D(30,31,32,48)        178.5453         estimate D2E/DX2                !
 ! D159  D(47,31,32,27)       -179.6256         estimate D2E/DX2                !
 ! D160  D(47,31,32,48)         -0.283          estimate D2E/DX2                !
 --------------------------------------------------------------------------------
 Trust Radius=3.00D-01 FncErr=1.00D-07 GrdErr=1.00D-06
 Number of steps in this run=    288 maximum allowed number of steps=    288.
 GradGradGradGradGradGradGradGradGradGradGradGradGradGradGradGradGradGrad

 Leave Link  103 at Mon Jul 29 09:50:35 2019, MaxMem=  4194304000 cpu:         0.3
 (Enter /home/minenky/programs//g09/l202.exe)
                          Input orientation:                          
 ---------------------------------------------------------------------
 Center     Atomic      Atomic             Coordinates (Angstroms)
 Number     Number       Type             X           Y           Z
 ---------------------------------------------------------------------
      1          6           0        5.589285    0.352893   -0.689233
      2          6           0        5.763548    1.739214   -0.433527
      3          6           0        4.687919    2.500713   -0.098638
      4          6           0        4.368481   -0.232032   -0.541274
      5          6           0        3.215588    0.511611   -0.129916
      6          6           0        3.384941    1.916847    0.018078
      7          6           0        2.282858    2.743523    0.247866
      8          6           0        0.996751    2.208816    0.248470
      9          6           0       -0.134930    3.076409    0.331548
     10          6           0       -1.407666    2.581637    0.245022
     11          6           0       -2.561499    3.457072    0.283412
     12          6           0       -3.811017    2.973622    0.149149
     13          6           0       -4.052029    1.557583   -0.030944
     14          6           0       -5.341533    1.065765   -0.187280
     15          6           0       -5.554873   -0.305387   -0.356192
     16          6           0       -4.490805   -1.184121   -0.361477
     17          6           0       -2.948651    0.665002   -0.044307
     18          6           0       -3.171759   -0.718081   -0.202083
     19          6           0       -1.614769    1.168036    0.096574
     20          6           0       -0.525853    0.297953    0.079752
     21          6           0        1.932955   -0.061989    0.074108
     22          6           0        0.816408    0.800355    0.146465
     23          6           0        1.691084   -1.500429    0.210015
     24          6           0        1.192624   -4.284908    0.327409
     25          6           0        2.445031   -3.786456    0.594154
     26          6           0        2.688614   -2.406695    0.541333
     27          6           0        0.128382   -3.393454    0.075575
     28          6           0        0.364050   -2.002703    0.062536
     29          6           0       -0.752337   -1.114133   -0.035257
     30          6           0       -2.045896   -1.618210   -0.177114
     31          6           0       -2.241858   -3.029297   -0.261878
     32          6           0       -1.195912   -3.887750   -0.132153
     33          1           0        6.452753   -0.236579   -1.015086
     34          1           0        6.762274    2.177690   -0.525400
     35          1           0        4.793453    3.577339    0.078639
     36          1           0        4.258739   -1.302853   -0.761131
     37          1           0        2.428113    3.822267    0.387078
     38          1           0        0.038286    4.153946    0.445413
     39          1           0       -2.380858    4.529585    0.420492
     40          1           0       -4.681659    3.639256    0.172518
     41          1           0       -6.195369    1.752699   -0.178724
     42          1           0       -6.575825   -0.680767   -0.482424
     43          1           0       -4.654966   -2.265198   -0.487955
     44          1           0        1.003781   -5.364197    0.332004
     45          1           0        3.268267   -4.464130    0.844233
     46          1           0        3.706340   -2.056836    0.762485
     47          1           0       -3.267505   -3.398420   -0.416166
     48          1           0       -1.349641   -4.972148   -0.173597
 ---------------------------------------------------------------------
                    Distance matrix (angstroms):
                    1          2          3          4          5
     1  C    0.000000
     2  C    1.420436   0.000000
     3  C    2.402996   1.359782   0.000000
     4  C    1.361761   2.417361   2.786730   0.000000
     5  C    2.443862   2.844519   2.474927   1.432264   0.000000
     6  C    2.793810   2.427606   1.432576   2.428561   1.423120
     7  C    4.186374   3.686209   2.441996   3.718400   2.448293
     8  C    5.041339   4.838181   3.718926   4.236743   2.819028
     9  C    6.420761   6.096349   4.876101   5.655821   4.244657
    10  C    7.402530   7.252338   6.105802   6.472933   5.079377
    11  C    8.775947   8.530618   7.322203   7.893935   6.497794
    12  C    9.794733   9.671379   8.515689   8.812326   7.450675
    13  C    9.738560   9.825508   8.790948   8.623696   7.343168
    14  C   10.965534  11.128207  10.131972   9.802753   8.575238
    15  C   11.168550  11.501871  10.623339   9.925351   8.811339
    16  C   10.201865  10.663152   9.894244   8.912112   7.894151
    17  C    8.567946   8.786799   7.854298   7.388644   6.166742
    18  C    8.839694   9.269928   8.493873   7.563498   6.505040
    19  C    7.292485   7.419353   6.444999   6.177889   4.880014
    20  C    6.163543   6.472808   5.662808   4.961961   3.753397
    21  C    3.758133   4.263269   3.766577   2.517815   1.419785
    22  C    4.866104   5.068731   4.235551   3.762449   2.432247
    23  C    4.409016   5.243509   5.008535   3.056422   2.547149
    24  C    6.470965   7.600159   7.644819   5.221731   5.225717
    25  C    5.354216   6.526998   6.711110   4.197950   4.426219
    26  C    4.188498   5.253011   5.337549   2.953498   3.040524
    27  C    6.666446   7.639277   7.453920   5.324803   4.982228
    28  C    5.780750   6.588065   6.245204   4.419879   3.806584
    29  C    6.541867   7.124392   6.532038   5.220817   4.289106
    30  C    7.902120   8.504437   7.894045   6.572543   5.676405
    31  C    8.540998   9.319586   8.867326   7.183267   6.506855
    32  C    8.020741   8.954755   8.685220   6.670391   6.230226
    33  H    1.095095   2.171859   3.383383   2.137454   3.438393
    34  H    2.175461   1.094603   2.142292   3.396654   3.938427
    35  H    3.408816   2.140584   1.096216   3.882808   3.454250
    36  H    2.125328   3.409684   3.884612   1.098653   2.186064
    37  H    4.815393   4.017167   2.662546   4.589576   3.442070
    38  H    6.822684   6.275515   4.964702   6.241870   4.867531
    39  H    9.066389   8.651408   7.372478   8.315742   6.911387
    40  H   10.818276  10.633898   9.442394   9.869215   8.499420
    41  H   11.878474  11.961638  10.909257  10.754790   9.492565
    42  H   12.210697  12.574531  11.710723  10.953659   9.870046
    43  H   10.575424  11.161707  10.495474   9.249821   8.353711
    44  H    7.399655   8.584862   8.695696   6.198624   6.295282
    45  H    5.562585   6.807391   7.170317   4.587020   5.070477
    46  H    3.385227   4.480239   4.740916   2.338403   2.762994
    47  H    9.622352  10.390164   9.909055   8.267403   7.576331
    48  H    8.761886   9.783016   9.607362   7.436451   7.135464
                    6          7          8          9         10
     6  C    0.000000
     7  C    1.396704   0.000000
     8  C    2.416977   1.392833   0.000000
     9  C    3.719185   2.442031   1.428398   0.000000
    10  C    4.843814   3.694074   2.433152   1.368263   0.000000
    11  C    6.148402   4.896755   3.771009   2.456717   1.448859
    12  C    7.274322   6.099017   4.869233   3.682045   2.436994
    13  C    7.445803   6.450967   5.098270   4.216858   2.849122
    14  C    8.770283   7.818924   6.455253   5.605408   4.237932
    15  C    9.219473   8.431535   7.043481   6.425365   5.088781
    16  C    8.472746   7.853674   6.480534   6.132376   4.904540
    17  C    6.456423   5.636870   4.246796   3.724671   2.476254
    18  C    7.069768   6.475956   5.113335   4.889299   3.768297
    19  C    5.056083   4.206726   2.815374   2.426319   1.436383
    20  C    4.233075   3.727993   2.449119   2.817098   2.453594
    21  C    2.455034   2.832582   2.462404   3.767222   4.263533
    22  C    2.803640   2.436527   1.423619   2.473808   2.851173
    23  C    3.818870   4.285179   3.773867   4.929152   5.125109
    24  C    6.585112   7.112930   6.497156   7.480067   7.342869
    25  C    5.808869   6.541165   6.177402   7.336489   7.451025
    26  C    4.410406   5.174505   4.924541   6.170967   6.461483
    27  C    6.229589   6.506454   5.671806   6.480276   6.171699
    28  C    4.948801   5.122776   4.262836   5.110648   4.918175
    29  C    5.129011   4.916714   3.765873   4.251633   3.763871
    30  C    6.482956   6.159824   4.907642   5.094112   4.268987
    31  C    7.496905   7.352438   6.179553   6.486212   5.695209
    32  C    7.395954   7.498003   6.490051   7.059760   6.483831
    33  H    3.887948   5.278644   6.111013   7.495791   8.444904
    34  H    3.430712   4.580750   5.817310   7.008101   8.216121
    35  H    2.178258   2.650844   4.039387   4.960228   6.282753
    36  H    3.425954   4.614688   4.898130   6.298906   6.943325
    37  H    2.163864   1.097346   2.161304   2.669940   4.033924
    38  H    4.048126   2.658274   2.177378   1.097295   2.145482
    39  H    6.342931   4.997005   4.101683   2.676532   2.184581
    40  H    8.249884   7.022287   5.856302   4.584194   3.441343
    41  H    9.583736   8.546581   7.219219   6.224267   4.877376
    42  H   10.306064   9.525511   8.138047   7.500937   6.154862
    43  H    9.076655   8.588488   7.245759   7.045216   5.879968
    44  H    7.666947   8.208425   7.573477   8.517071   8.304151
    45  H    6.435294   7.299106   7.074103   8.288807   8.477395
    46  H    4.055564   5.033347   5.079554   6.425828   6.923602
    47  H    8.526176   8.304875   7.075784   7.231564   6.297401
    48  H    8.361295   8.538400   7.566369   8.155364   7.565598
                   11         12         13         14         15
    11  C    0.000000
    12  C    1.346494   0.000000
    13  C    2.434862   1.447649   0.000000
    14  C    3.697092   2.468924   1.388938   0.000000
    15  C    4.850307   3.748107   2.415572   1.397892   0.000000
    16  C    5.067422   4.243781   2.796197   2.411652   1.380016
    17  C    2.837770   2.472009   1.419268   2.430419   2.798450
    18  C    4.247355   3.763069   2.445979   2.808958   2.423490
    19  C    2.484128   2.843662   2.471486   3.738958   4.230886
    20  C    3.763691   4.237491   3.746043   4.883812   5.083809
    21  C    5.712067   6.497213   6.201135   7.366026   7.504131
    22  C    4.299670   5.112354   4.930167   6.172688   6.486028
    23  C    6.531973   7.091823   6.510979   7.496726   7.365638
    24  C    8.604279   8.817848   7.859357   8.461076   7.863371
    25  C    8.810823   9.221433   8.435715   9.207892   8.776074
    26  C    7.874895   8.446705   7.840871   8.779073   8.554305
    27  C    7.362633   7.487586   6.480737   7.062132   6.482436
    28  C    6.198126   6.496345   5.673282   6.483177   6.171699
    29  C    4.926513   5.108745   4.245710   5.082892   4.880720
    30  C    5.122150   4.930216   3.759202   4.250300   3.750800
    31  C    6.517092   6.218219   4.936549   5.136446   4.290064
    32  C    7.482241   7.348220   6.149740   6.459607   5.646597
    33  H    9.827812  10.816922  10.702242  11.894812  12.025887
    34  H    9.445832  10.624641  10.843346  12.159476  12.566082
    35  H    7.358786   8.625912   9.073807  10.444936  11.061307
    36  H    8.382339   9.178117   8.819531   9.904791   9.872482
    37  H    5.004033   6.301076   6.877192   8.264115   9.017652
    38  H    2.696435   4.037087   4.868130   6.235353   7.198032
    39  H    1.096224   2.130729   3.439390   4.597069   5.835629
    40  H    2.130860   1.096190   2.184306   2.680998   4.074586
    41  H    4.040230   2.698756   2.157270   1.095895   2.162741
    42  H    5.815757   4.625755   3.403468   2.158925   1.095074
    43  H    6.141822   5.344473   3.896928   3.414248   2.160568
    44  H    9.514640   9.629899   8.579277   9.048596   8.311506
    45  H    9.851200  10.291723   9.519122  10.284572   9.827714
    46  H    8.361729   9.066000   8.595688   9.618561   9.491528
    47  H    6.927166   6.420118   5.032479   4.927771   3.847402
    48  H    8.528142   8.324530   7.068284   7.238217   6.284582
                   16         17         18         19         20
    16  C    0.000000
    17  C    2.428598   0.000000
    18  C    1.408006   1.409819   0.000000
    19  C    3.743532   1.432527   2.463910   0.000000
    20  C    4.255828   2.453583   2.848258   1.393939   0.000000
    21  C    6.535565   4.936863   5.154109   3.754971   2.485020
    22  C    5.688819   3.772318   4.281659   2.459329   1.434755
    23  C    6.216302   5.126492   4.942584   4.249969   2.857613
    24  C    6.510822   6.464514   5.661311   6.137534   4.900725
    25  C    7.469351   7.022458   6.449592   6.424683   5.076726
    26  C    7.338515   6.446476   6.143944   5.612095   4.226224
    27  C    5.138974   5.094465   4.257422   4.883258   3.748937
    28  C    4.941607   4.254651   3.771236   3.737709   2.466828
    29  C    3.753326   2.826517   2.457293   2.443248   1.434750
    30  C    2.489981   2.458793   1.441674   2.832657   2.459307
    31  C    2.910731   3.767591   2.491989   4.259029   3.759252
    32  C    4.268316   4.879279   3.735728   5.078260   4.244289
    33  H   11.003931   9.494296   9.670783   8.263996   7.084160
    34  H   11.745655   9.839804  10.352537   8.460561   7.550921
    35  H   10.443306   8.272666   9.053952   6.846194   6.248951
    36  H    8.759471   7.505516   7.474409   6.429545   5.114879
    37  H    8.572962   6.250121   7.233287   4.845021   4.608813
    38  H    7.046893   4.618912   5.870289   3.430735   3.914160
    39  H    6.140829   3.933628   5.343325   3.462922   4.632910
    40  H    4.856598   3.449133   4.626717   3.939354   5.333258
    41  H    3.400566   3.426708   3.904807   4.625961   5.858883
    42  H    2.148326   3.893512   3.415795   5.325917   6.154356
    43  H    1.100761   3.419709   2.162221   4.622939   4.893017
    44  H    6.938619   7.219043   6.269512   7.041470   5.870550
    45  H    8.509723   8.108488   7.523403   7.491617   6.136547
    46  H    8.319742   7.235208   7.073253   6.257591   4.891075
    47  H    2.530331   4.092841   2.690579   4.883335   4.628798
    48  H    4.924567   5.860974   4.627959   6.151841   5.340110
                   21         22         23         24         25
    21  C    0.000000
    22  C    1.412639   0.000000
    23  C    1.464951   2.462255   0.000000
    24  C    4.294799   5.102369   2.831178   0.000000
    25  C    3.795303   4.887910   2.437605   1.374093   0.000000
    26  C    2.507382   3.734466   1.387860   2.410692   1.402093
    27  C    3.788819   4.250463   2.458385   1.410928   2.406291
    28  C    2.495590   2.840564   1.426552   2.442366   2.791930
    29  C    2.886133   2.481783   2.485898   3.737407   4.214336
    30  C    4.279742   3.761242   3.758824   4.225378   5.046243
    31  C    5.132920   4.917923   4.245958   3.703982   4.824211
    32  C    4.946595   5.109343   3.761799   2.464556   3.714061
    33  H    4.652461   5.847462   5.076581   6.772017   5.590448
    34  H    5.357041   6.140177   6.307643   8.573999   7.447350
    35  H    4.628949   4.851096   5.951947   8.651172   7.746374
    36  H    2.765256   4.134835   2.752274   4.413460   3.360746
    37  H    3.928177   3.433285   5.376398   8.200992   7.611559
    38  H    4.636997   3.455636   5.895686   8.518255   8.298465
    39  H    6.309636   4.919833   7.279154   9.511767   9.616439
    40  H    7.580371   6.187793   8.187162   9.865270  10.300907
    41  H    8.332266   7.083624   8.539912   9.554648  10.292526
    42  H    8.549384   7.565338   8.336253   8.602003   9.601051
    43  H    6.969272   6.303653   6.429960   6.240060   7.341331
    44  H    5.389183   6.170189   3.926318   1.095696   2.152950
    45  H    4.664226   5.849213   3.416616   2.146514   1.095216
    46  H    2.756479   4.110320   2.162422   3.387088   2.147282
    47  H    6.198140   5.884268   5.346222   4.607767   5.814154
    48  H    5.911554   6.173816   4.630983   2.680750   4.049055
                   26         27         28         29         30
    26  C    0.000000
    27  C    2.783058   0.000000
    28  C    2.407499   1.410638   0.000000
    29  C    3.720660   2.446069   1.430189   0.000000
    30  C    4.853190   2.818302   2.452163   1.395533   0.000000
    31  C    5.034117   2.421678   2.819556   2.436777   1.427148
    32  C    4.211491   1.428718   2.454545   2.810534   2.423903
    33  H    4.615256   7.152137   6.430612   7.324171   8.650903
    34  H    6.224886   8.683740   7.665417   8.218620   9.597604
    35  H    6.360274   8.387780   7.124376   7.264893   8.592778
    36  H    2.319520   4.704310   4.041883   5.066892   6.339475
    37  H    6.236315   7.579738   6.188373   5.887417   7.066389
    38  H    7.076400   7.556993   6.177139   5.348718   6.168399
    39  H    8.592213   8.318041   7.094606   5.891633   6.185848
    40  H    9.539941   8.520851   7.569873   6.170693   5.891557
    41  H    9.835862   8.157045   7.562223   6.153528   5.346135
    42  H    9.479279   7.253719   7.085645   5.856687   4.635976
    43  H    7.416712   4.946812   5.055934   4.093947   2.706005
    44  H    3.410176   2.171614   3.432421   4.613228   4.857175
    45  H    2.158886   3.405298   3.886406   5.306716   6.114142
    46  H    1.098670   3.880744   3.415225   4.626541   5.844951
    47  H    6.113565   3.431310   3.919870   3.418937   2.172239
    48  H    4.837374   2.176905   3.436583   3.906429   3.425446
                   31         32         33         34         35
    31  C    0.000000
    32  C    1.359328   0.000000
    33  H    9.163125   8.521308   0.000000
    34  H   10.404641  10.013837   2.482799   0.000000
    35  H    9.657080   9.573113   4.300637   2.490006   0.000000
    36  H    6.744451   6.068816   2.452576   4.293884   4.980704
    37  H    8.317073   8.535076   5.885407   4.724637   2.397907
    38  H    7.569564   8.156329   7.909181   7.075314   4.804021
    39  H    7.590892   8.518277  10.139520   9.488043   7.245300
    40  H    7.114136   8.300547  11.849372  11.557978   9.475780
    41  H    6.205211   7.537334  12.830888  12.969244  11.142251
    42  H    4.934319   6.273029  13.047025  13.641023  12.153467
    43  H    2.541269   3.837228  11.303742  12.251286  11.123349
    44  H    4.042107   2.689608   7.602527   9.527615   9.714776
    45  H    5.800319   4.605913   5.609831   7.628745   8.220556
    46  H    6.113597   5.308927   3.743778   5.378531   5.778701
    47  H    1.100913   2.147465  10.239110  11.476124  10.671696
    48  H    2.139746   1.096024   9.165755  10.818832  10.530668
                   36         37         38         39         40
    36  H    0.000000
    37  H    5.562053   0.000000
    38  H    7.003187   2.413439   0.000000
    39  H    8.916155   4.860824   2.448261   0.000000
    40  H   10.258015   7.115363   4.755761   2.479489   0.000000
    41  H   10.907060   8.886376   6.709246   4.756117   2.444133
    42  H   10.855987  10.104665   8.245108   6.749872   4.762291
    43  H    8.969664   9.380454   8.006448   7.222598   5.941340
    44  H    5.318290   9.296391   9.567659  10.457081  10.649500
    45  H    3.681290   8.341416   9.212115  10.629161  11.371780
    46  H    1.787468   6.028155   7.220040   8.975070  10.156380
    47  H    7.820151   9.231663   8.289078   8.021185   7.202449
    48  H    6.727767   9.587884   9.251763   9.575974   9.240044
                   41         42         43         44         45
    41  H    0.000000
    42  H    2.481680   0.000000
    43  H    4.314158   2.490011   0.000000
    44  H   10.136016   8.946969   6.503657   0.000000
    45  H   11.369072  10.629205   8.329925   2.490059   0.000000
    46  H   10.650928  10.448268   8.456859   4.292759   2.448194
    47  H    5.929822   4.281940   1.792873   4.761085   6.740969
    48  H    8.288828   6.769366   4.283873   2.438839   4.755958
                   46         47         48
    46  H    0.000000
    47  H    7.198860   0.000000
    48  H    5.910858   2.492722   0.000000
 Stoichiometry    C32H16
 Framework group  C1[X(C32H16)]
 Deg. of freedom   138
 Full point group                 C1      NOp   1
 Largest Abelian subgroup         C1      NOp   1
 Largest concise Abelian subgroup C1      NOp   1
                         Standard orientation:                         
 ---------------------------------------------------------------------
 Center     Atomic      Atomic             Coordinates (Angstroms)
 Number     Number       Type             X           Y           Z
 ---------------------------------------------------------------------
      1          6           0        5.580781   -0.352547    0.688536
      2          6           0        5.755595   -1.739090    0.434418
      3          6           0        4.680281   -2.501386    0.100334
      4          6           0        4.359759    0.231737    0.539840
      5          6           0        3.207179   -0.512819    0.129262
      6          6           0        3.377083   -1.918158   -0.017122
      7          6           0        2.275334   -2.745521   -0.246034
      8          6           0        0.989020   -2.211312   -0.247320
      9          6           0       -0.142321   -3.079437   -0.329477
     10          6           0       -1.415253   -2.585059   -0.243587
     11          6           0       -2.568745   -3.460983   -0.281048
     12          6           0       -3.818458   -2.977864   -0.147408
     13          6           0       -4.060028   -1.561715    0.031059
     14          6           0       -5.349732   -1.070217    0.186761
     15          6           0       -5.563612    0.301043    0.354100
     16          6           0       -4.499883    1.180194    0.358446
     17          6           0       -2.956996   -0.668693    0.043471
     18          6           0       -3.180648    0.714483    0.199658
     19          6           0       -1.622911   -1.171370   -0.096761
     20          6           0       -0.534332   -0.300847   -0.080867
     21          6           0        1.924336    0.060051   -0.075489
     22          6           0        0.808126   -0.802806   -0.146929
     23          6           0        1.681916    1.498242   -0.213047
     24          6           0        1.182386    4.282392   -0.333640
     25          6           0        2.435001    3.784122   -0.599745
     26          6           0        2.679115    2.404516   -0.545340
     27          6           0        0.118474    3.390815   -0.080854
     28          6           0        0.354679    2.000170   -0.066218
     29          6           0       -0.761370    1.111281    0.032522
     30          6           0       -2.055131    1.615019    0.173730
     31          6           0       -2.251644    3.026125    0.256877
     32          6           0       -1.206023    3.884834    0.126235
     33          1           0        6.444002    0.237629    1.013767
     34          1           0        6.754485   -2.177076    0.526847
     35          1           0        4.786241   -3.578172   -0.075712
     36          1           0        4.249591    1.302766    0.758471
     37          1           0        2.421014   -3.824366   -0.384009
     38          1           0        0.031319   -4.157036   -0.442105
     39          1           0       -2.387681   -4.533582   -0.416896
     40          1           0       -4.688841   -3.643862   -0.170070
     41          1           0       -6.203300   -1.757491    0.178937
     42          1           0       -6.584716    0.676171    0.479845
     43          1           0       -4.664470    2.261351    0.483684
     44          1           0        0.993126    5.361603   -0.339475
     45          1           0        3.257990    4.461829   -0.850548
     46          1           0        3.696989    2.054800   -0.766034
     47          1           0       -3.277444    3.395027    0.410685
     48          1           0       -1.360174    4.969219    0.166436
 ---------------------------------------------------------------------
 Rotational constants (GHZ):      0.2424988      0.1253430      0.0836383
 Leave Link  202 at Mon Jul 29 09:50:35 2019, MaxMem=  4194304000 cpu:         0.2
 (Enter /home/minenky/programs//g09/l301.exe)
 Standard basis: def2TZVP (5D, 7F)
 ======================================================================================================
                                       Pseudopotential Parameters
 ======================================================================================================
  Center     Atomic      Valence      Angular      Power
  Number     Number     Electrons     Momentum     of R      Exponent        Coefficient   SO-Coeffient
 ======================================================================================================
    1          6
                                   No pseudopotential on this center.
    2          6
                                   No pseudopotential on this center.
    3          6
                                   No pseudopotential on this center.
    4          6
                                   No pseudopotential on this center.
    5          6
                                   No pseudopotential on this center.
    6          6
                                   No pseudopotential on this center.
    7          6
                                   No pseudopotential on this center.
    8          6
                                   No pseudopotential on this center.
    9          6
                                   No pseudopotential on this center.
   10          6
                                   No pseudopotential on this center.
   11          6
                                   No pseudopotential on this center.
   12          6
                                   No pseudopotential on this center.
   13          6
                                   No pseudopotential on this center.
   14          6
                                   No pseudopotential on this center.
   15          6
                                   No pseudopotential on this center.
   16          6
                                   No pseudopotential on this center.
   17          6
                                   No pseudopotential on this center.
   18          6
                                   No pseudopotential on this center.
   19          6
                                   No pseudopotential on this center.
   20          6
                                   No pseudopotential on this center.
   21          6
                                   No pseudopotential on this center.
   22          6
                                   No pseudopotential on this center.
   23          6
                                   No pseudopotential on this center.
   24          6
                                   No pseudopotential on this center.
   25          6
                                   No pseudopotential on this center.
   26          6
                                   No pseudopotential on this center.
   27          6
                                   No pseudopotential on this center.
   28          6
                                   No pseudopotential on this center.
   29          6
                                   No pseudopotential on this center.
   30          6
                                   No pseudopotential on this center.
   31          6
                                   No pseudopotential on this center.
   32          6
                                   No pseudopotential on this center.
   33          1
                                   No pseudopotential on this center.
   34          1
                                   No pseudopotential on this center.
   35          1
                                   No pseudopotential on this center.
   36          1
                                   No pseudopotential on this center.
   37          1
                                   No pseudopotential on this center.
   38          1
                                   No pseudopotential on this center.
   39          1
                                   No pseudopotential on this center.
   40          1
                                   No pseudopotential on this center.
   41          1
                                   No pseudopotential on this center.
   42          1
                                   No pseudopotential on this center.
   43          1
                                   No pseudopotential on this center.
   44          1
                                   No pseudopotential on this center.
   45          1
                                   No pseudopotential on this center.
   46          1
                                   No pseudopotential on this center.
   47          1
                                   No pseudopotential on this center.
   48          1
                                   No pseudopotential on this center.
 ======================================================================================================
 Ernie: Thresh=  0.10000D-02 Tol=  0.10000D-05 Strict=F.
 AO basis set (Overlap normalization):
 Atom C1       Shell     1 S   6     bf    1 -     1         10.546147595357         -0.666217530288          1.301143771232
      0.1357534968D+05  0.6064550360D-03
      0.2035233368D+04  0.4697908888D-02
      0.4632256236D+03  0.2433247765D-01
      0.1312001960D+03  0.9739996831D-01
      0.4285301589D+02  0.3019558425D+00
      0.1558418577D+02  0.6623360914D+00
 Atom C1       Shell     2 S   2     bf    2 -     2         10.546147595357         -0.666217530288          1.301143771232
      0.6206713851D+01  0.6559530854D+00
      0.2576489653D+01  0.3758563329D+00
 Atom C1       Shell     3 S   1     bf    3 -     3         10.546147595357         -0.666217530288          1.301143771232
      0.5769633942D+00  0.1000000000D+01
 Atom C1       Shell     4 S   1     bf    4 -     4         10.546147595357         -0.666217530288          1.301143771232
      0.2297283136D+00  0.1000000000D+01
 Atom C1       Shell     5 S   1     bf    5 -     5         10.546147595357         -0.666217530288          1.301143771232
      0.9516444003D-01  0.1000000000D+01
 Atom C1       Shell     6 P   4     bf    6 -     8         10.546147595357         -0.666217530288          1.301143771232
      0.3469723224D+02  0.1132722000D-01
      0.7958262283D+01  0.7616965920D-01
      0.2378082688D+01  0.3019225220D+00
      0.8143320818D+00  0.7278502735D+00
 Atom C1       Shell     7 P   1     bf    9 -    11         10.546147595357         -0.666217530288          1.301143771232
      0.2888754725D+00  0.1000000000D+01
 Atom C1       Shell     8 P   1     bf   12 -    14         10.546147595357         -0.666217530288          1.301143771232
      0.1005682367D+00  0.1000000000D+01
 Atom C1       Shell     9 D   1     bf   15 -    19         10.546147595357         -0.666217530288          1.301143771232
      0.1097000000D+01  0.1000000000D+01
 Atom C1       Shell    10 D   1     bf   20 -    24         10.546147595357         -0.666217530288          1.301143771232
      0.3180000000D+00  0.1000000000D+01
 Atom C1       Shell    11 F   1     bf   25 -    31         10.546147595357         -0.666217530288          1.301143771232
      0.7610000000D+00  0.1000000000D+01
 Atom C2       Shell    12 S   6     bf   32 -    32         10.876497866598         -3.286404525906          0.820930948608
      0.1357534968D+05  0.6064550360D-03
      0.2035233368D+04  0.4697908888D-02
      0.4632256236D+03  0.2433247765D-01
      0.1312001960D+03  0.9739996831D-01
      0.4285301589D+02  0.3019558425D+00
      0.1558418577D+02  0.6623360914D+00
 Atom C2       Shell    13 S   2     bf   33 -    33         10.876497866598         -3.286404525906          0.820930948608
      0.6206713851D+01  0.6559530854D+00
      0.2576489653D+01  0.3758563329D+00
 Atom C2       Shell    14 S   1     bf   34 -    34         10.876497866598         -3.286404525906          0.820930948608
      0.5769633942D+00  0.1000000000D+01
 Atom C2       Shell    15 S   1     bf   35 -    35         10.876497866598         -3.286404525906          0.820930948608
      0.2297283136D+00  0.1000000000D+01
 Atom C2       Shell    16 S   1     bf   36 -    36         10.876497866598         -3.286404525906          0.820930948608
      0.9516444003D-01  0.1000000000D+01
 Atom C2       Shell    17 P   4     bf   37 -    39         10.876497866598         -3.286404525906          0.820930948608
      0.3469723224D+02  0.1132722000D-01
      0.7958262283D+01  0.7616965920D-01
      0.2378082688D+01  0.3019225220D+00
      0.8143320818D+00  0.7278502735D+00
 Atom C2       Shell    18 P   1     bf   40 -    42         10.876497866598         -3.286404525906          0.820930948608
      0.2888754725D+00  0.1000000000D+01
 Atom C2       Shell    19 P   1     bf   43 -    45         10.876497866598         -3.286404525906          0.820930948608
      0.1005682367D+00  0.1000000000D+01
 Atom C2       Shell    20 D   1     bf   46 -    50         10.876497866598         -3.286404525906          0.820930948608
      0.1097000000D+01  0.1000000000D+01
 Atom C2       Shell    21 D   1     bf   51 -    55         10.876497866598         -3.286404525906          0.820930948608
      0.3180000000D+00  0.1000000000D+01
 Atom C2       Shell    22 F   1     bf   56 -    62         10.876497866598         -3.286404525906          0.820930948608
      0.7610000000D+00  0.1000000000D+01
 Atom C3       Shell    23 S   6     bf   63 -    63          8.844448582698         -4.726934185956          0.189603012465
      0.1357534968D+05  0.6064550360D-03
      0.2035233368D+04  0.4697908888D-02
      0.4632256236D+03  0.2433247765D-01
      0.1312001960D+03  0.9739996831D-01
      0.4285301589D+02  0.3019558425D+00
      0.1558418577D+02  0.6623360914D+00
 Atom C3       Shell    24 S   2     bf   64 -    64          8.844448582698         -4.726934185956          0.189603012465
      0.6206713851D+01  0.6559530854D+00
      0.2576489653D+01  0.3758563329D+00
 Atom C3       Shell    25 S   1     bf   65 -    65          8.844448582698         -4.726934185956          0.189603012465
      0.5769633942D+00  0.1000000000D+01
 Atom C3       Shell    26 S   1     bf   66 -    66          8.844448582698         -4.726934185956          0.189603012465
      0.2297283136D+00  0.1000000000D+01
 Atom C3       Shell    27 S   1     bf   67 -    67          8.844448582698         -4.726934185956          0.189603012465
      0.9516444003D-01  0.1000000000D+01
 Atom C3       Shell    28 P   4     bf   68 -    70          8.844448582698         -4.726934185956          0.189603012465
      0.3469723224D+02  0.1132722000D-01
      0.7958262283D+01  0.7616965920D-01
      0.2378082688D+01  0.3019225220D+00
      0.8143320818D+00  0.7278502735D+00
 Atom C3       Shell    29 P   1     bf   71 -    73          8.844448582698         -4.726934185956          0.189603012465
      0.2888754725D+00  0.1000000000D+01
 Atom C3       Shell    30 P   1     bf   74 -    76          8.844448582698         -4.726934185956          0.189603012465
      0.1005682367D+00  0.1000000000D+01
 Atom C3       Shell    31 D   1     bf   77 -    81          8.844448582698         -4.726934185956          0.189603012465
      0.1097000000D+01  0.1000000000D+01
 Atom C3       Shell    32 D   1     bf   82 -    86          8.844448582698         -4.726934185956          0.189603012465
      0.3180000000D+00  0.1000000000D+01
 Atom C3       Shell    33 F   1     bf   87 -    93          8.844448582698         -4.726934185956          0.189603012465
      0.7610000000D+00  0.1000000000D+01
 Atom C4       Shell    34 S   6     bf   94 -    94          8.238750860029          0.437919999601          1.020149857301
      0.1357534968D+05  0.6064550360D-03
      0.2035233368D+04  0.4697908888D-02
      0.4632256236D+03  0.2433247765D-01
      0.1312001960D+03  0.9739996831D-01
      0.4285301589D+02  0.3019558425D+00
      0.1558418577D+02  0.6623360914D+00
 Atom C4       Shell    35 S   2     bf   95 -    95          8.238750860029          0.437919999601          1.020149857301
      0.6206713851D+01  0.6559530854D+00
      0.2576489653D+01  0.3758563329D+00
 Atom C4       Shell    36 S   1     bf   96 -    96          8.238750860029          0.437919999601          1.020149857301
      0.5769633942D+00  0.1000000000D+01
 Atom C4       Shell    37 S   1     bf   97 -    97          8.238750860029          0.437919999601          1.020149857301
      0.2297283136D+00  0.1000000000D+01
 Atom C4       Shell    38 S   1     bf   98 -    98          8.238750860029          0.437919999601          1.020149857301
      0.9516444003D-01  0.1000000000D+01
 Atom C4       Shell    39 P   4     bf   99 -   101          8.238750860029          0.437919999601          1.020149857301
      0.3469723224D+02  0.1132722000D-01
      0.7958262283D+01  0.7616965920D-01
      0.2378082688D+01  0.3019225220D+00
      0.8143320818D+00  0.7278502735D+00
 Atom C4       Shell    40 P   1     bf  102 -   104          8.238750860029          0.437919999601          1.020149857301
      0.2888754725D+00  0.1000000000D+01
 Atom C4       Shell    41 P   1     bf  105 -   107          8.238750860029          0.437919999601          1.020149857301
      0.1005682367D+00  0.1000000000D+01
 Atom C4       Shell    42 D   1     bf  108 -   112          8.238750860029          0.437919999601          1.020149857301
      0.1097000000D+01  0.1000000000D+01
 Atom C4       Shell    43 D   1     bf  113 -   117          8.238750860029          0.437919999601          1.020149857301
      0.3180000000D+00  0.1000000000D+01
 Atom C4       Shell    44 F   1     bf  118 -   124          8.238750860029          0.437919999601          1.020149857301
      0.7610000000D+00  0.1000000000D+01
 Atom C5       Shell    45 S   6     bf  125 -   125          6.060689117516         -0.969088038535          0.244269713340
      0.1357534968D+05  0.6064550360D-03
      0.2035233368D+04  0.4697908888D-02
      0.4632256236D+03  0.2433247765D-01
      0.1312001960D+03  0.9739996831D-01
      0.4285301589D+02  0.3019558425D+00
      0.1558418577D+02  0.6623360914D+00
 Atom C5       Shell    46 S   2     bf  126 -   126          6.060689117516         -0.969088038535          0.244269713340
      0.6206713851D+01  0.6559530854D+00
      0.2576489653D+01  0.3758563329D+00
 Atom C5       Shell    47 S   1     bf  127 -   127          6.060689117516         -0.969088038535          0.244269713340
      0.5769633942D+00  0.1000000000D+01
 Atom C5       Shell    48 S   1     bf  128 -   128          6.060689117516         -0.969088038535          0.244269713340
      0.2297283136D+00  0.1000000000D+01
 Atom C5       Shell    49 S   1     bf  129 -   129          6.060689117516         -0.969088038535          0.244269713340
      0.9516444003D-01  0.1000000000D+01
 Atom C5       Shell    50 P   4     bf  130 -   132          6.060689117516         -0.969088038535          0.244269713340
      0.3469723224D+02  0.1132722000D-01
      0.7958262283D+01  0.7616965920D-01
      0.2378082688D+01  0.3019225220D+00
      0.8143320818D+00  0.7278502735D+00
 Atom C5       Shell    51 P   1     bf  133 -   135          6.060689117516         -0.969088038535          0.244269713340
      0.2888754725D+00  0.1000000000D+01
 Atom C5       Shell    52 P   1     bf  136 -   138          6.060689117516         -0.969088038535          0.244269713340
      0.1005682367D+00  0.1000000000D+01
 Atom C5       Shell    53 D   1     bf  139 -   143          6.060689117516         -0.969088038535          0.244269713340
      0.1097000000D+01  0.1000000000D+01
 Atom C5       Shell    54 D   1     bf  144 -   148          6.060689117516         -0.969088038535          0.244269713340
      0.3180000000D+00  0.1000000000D+01
 Atom C5       Shell    55 F   1     bf  149 -   155          6.060689117516         -0.969088038535          0.244269713340
      0.7610000000D+00  0.1000000000D+01
 Atom C6       Shell    56 S   6     bf  156 -   156          6.381762317384         -3.624792485261         -0.032356450329
      0.1357534968D+05  0.6064550360D-03
      0.2035233368D+04  0.4697908888D-02
      0.4632256236D+03  0.2433247765D-01
[...]
 35,-0.00006937,-0.00003917,0.00005284,-0.00002091,-0.00003376,-0.00003
 392,0.00003255,0.00001417,0.00004806,-0.00006273,-0.00001809,0.0000594
 3,-0.00004350,-0.00003910,0.00000182,-0.00003508,-0.00001107,-0.000022
 86,-0.00000156,0.00000086,-0.00000041,0.00001364,0.00000114,0.00000517
 ,-0.00000364,0.00000009,0.00005910,-0.00001292,0.00000304,-0.00003870,
 -0.00003956,-0.00000807,-0.00001028,0.00006644,0.00000789,0.00007030,-
 0.00000454,0.00000417,-0.00012637,-0.00006095,-0.00001460,-0.00010721,
 0.00010359,-0.00000155,0.00015871,-0.00000461,0.00001038,-0.00015050,0
 .00010929,0.00002876,0.00139446,-0.00005848,0.00032856,-0.00019882,-0.
 00042540,0.00003398,-0.00235834,-0.00500329,0.00068715,-0.01005927,0.0
 1137845,-0.00360929,0.12766656,-0.16589550,0.04759539,0.02477518,-0.01
 371971,0.00870850,-0.00323912,-0.00007922,-0.00013054,-0.00110394,-0.0
 0040490,-0.00034704,0.00022153,-0.00005444,-0.00004084,0.00002334,-0.0
 0032275,-0.00000210,-0.00024585,0.00023647,-0.00007127,0.00002539,0.00
 048191,0.00008980,-0.00002625,-0.00001067,0.00002015,-0.00000597,-0.00
 000277,0.00000682,-0.00000712,-0.00000523,-0.00000117,0.00007320,-0.00
 002284,0.00004443,-0.00000249,-0.00000623,0.00000767,0.00001151,-0.000
 01415,-0.00000407,-0.00000074,-0.00000290,-0.00000004,0.00000371,-0.00
 000033,0.00000058,0.00000159,-0.00000220,-0.00000053,0.00000172,0.0000
 0167,0.00000083,0.00000472,0.00000390,-0.00000025,0.00053110,0.0007137
 3,-0.00028000,-0.13721355,0.17235905,-0.00008884,-0.00008909,0.0000058
 9,-0.00000789,0.00009134,0.00004493,0.00008637,-0.00001631,-0.00002330
 ,0.00018899,0.00014108,-0.00017348,-0.00018095,-0.00006515,0.00005554,
 -0.00009298,0.00005611,-0.00001541,0.00011358,-0.00002474,-0.00001011,
 -0.00006536,-0.00002854,-0.00002794,0.00003517,0.00000619,-0.00000096,
 -0.00001074,-0.00002633,-0.00000880,0.00000532,0.00000527,-0.00000262,
 0.00000041,-0.00000525,0.00000065,0.00009485,-0.00002850,0.00000621,-0
 .00006107,-0.00008259,-0.00001733,-0.00004493,0.00010390,0.00002299,0.
 00012154,-0.00000318,0.00000127,-0.00018479,-0.00008052,-0.00002827,-0
 .00019907,0.00014915,0.00005628,0.00023388,-0.00002848,0.00005205,-0.0
 0022266,0.00010011,0.00004971,0.00010998,0.00043527,0.00010689,0.00014
 576,0.00001260,-0.00016808,0.00009305,-0.00032260,0.00665846,-0.003214
 51,0.00564213,0.00179134,-0.06456174,0.04579043,-0.06048361,-0.0010559
 7,0.00249928,0.00227521,-0.00354337,-0.00050953,0.00761072,-0.00027371
 ,-0.00090797,-0.00084403,0.00010176,-0.00007664,-0.00077339,0.00008567
 ,-0.00036617,0.00007992,-0.00024836,0.00026137,-0.00054179,0.00026138,
 0.00050562,0.00026423,0.00001134,0.00001444,-0.00002462,0.00000022,0.0
 0000042,0.00000558,0.00000295,-0.00000328,0.00000104,-0.00001325,0.000
 08327,0.00005382,0.00000305,-0.00000317,0.00000622,0.00000158,-0.00000
 098,0.00000136,0.00000012,0.00000068,0.00000126,-0.00000091,0.00000168
 ,0.00000086,-0.00000196,0.00000086,-0.00000340,-0.00000186,0.00000170,
 0.00000096,0.00000935,0.00000227,-0.00001168,0.00135169,-0.00038426,-0
 .00400914,0.06981671,-0.05246487,0.05106822,-0.00000935,-0.00040909,0.
 00001623,-0.00012918,-0.00012940,-0.00026625,-0.00016466,-0.00008480,0
 .00005909,-0.00084081,-0.00084289,0.00306160,0.00081325,-0.00037363,0.
 00003744,0.00008863,0.00062720,-0.00014097,0.00013456,-0.00005243,-0.0
 0000052,-0.00019753,-0.00007380,-0.00002733,0.00010636,0.00005470,0.00
 000548,-0.00005984,-0.00009572,-0.00000240,0.00001207,0.00003173,0.000
 00565,-0.00000413,-0.00004087,-0.00000493,0.00001297,-0.00000569,0.000
 00179,-0.00001719,0.00001618,0.00000011,-0.00001380,0.00000471,0.00000
 100,-0.00001268,0.00005415,0.00001990,-0.00000686,0.00003154,-0.000007
 20,-0.00004286,-0.00010252,-0.00000744,-0.00005696,0.00012718,-0.00000
 385,0.00013511,-0.00018324,-0.00006734,-0.00037882,-0.00163424,0.00174
 734,-0.00025148,0.00032990,0.00005117,-0.01741947,-0.00887680,-0.00522
 178,0.00184218,-0.00075761,-0.00153116,-0.00034695,0.00084569,-0.00139
 063,-0.29237027,-0.08829240,-0.07761389,0.00022549,0.00027000,0.000350
 20,-0.00059246,0.00351101,-0.00292450,-0.00053643,-0.00078155,-0.00013
 851,-0.00023685,0.00024601,0.00015337,-0.00002852,0.00014243,-0.000033
 68,0.00012248,-0.00006908,0.00026634,-0.00002267,-0.00001897,0.0001147
 4,-0.00001241,-0.00003492,-0.00002133,-0.00000032,-0.00001097,0.000035
 07,-0.00004798,-0.00264814,0.00152086,0.00001149,-0.00000849,0.0000048
 3,-0.00000132,0.00000465,-0.00000795,-0.00000043,0.00000286,-0.0000005
 1,-0.00000109,0.00000475,-0.00000016,-0.00000310,0.00000210,0.00000023
 ,-0.00000519,0.00000393,-0.00000414,0.00000771,-0.00000123,0.00000034,
 -0.00014277,0.00009722,-0.00004502,0.00047064,-0.00014202,0.00126284,0
 .30999545,-0.00033380,-0.00030245,-0.00004311,-0.00010055,0.00004152,-
 0.00016001,-0.00005234,0.00003943,0.00006634,-0.00171899,-0.00139187,0
 .00317087,0.00088866,-0.00070923,0.00038283,0.00011410,-0.00018173,-0.
 00026114,-0.00021727,0.00004547,0.00002762,0.00014037,0.00008404,0.000
 05738,-0.00008272,-0.00003182,-0.00000837,0.00004219,0.00009898,0.0000
 0939,-0.00000778,-0.00003152,-0.00000779,0.00000002,0.00003714,0.00000
 659,-0.00005788,0.00001501,-0.00000709,0.00002712,0.00003507,0.0000063
 9,0.00004132,-0.00004591,0.00000091,-0.00005889,-0.00003858,-0.0000241
 5,0.00007794,0.00003762,0.00001723,0.00017384,-0.00002315,0.00000876,-
 0.00009679,-0.00008516,0.00000250,-0.00002567,0.00003618,0.00003757,-0
 .00021100,0.00070157,-0.00037205,0.00013444,-0.00008431,-0.00012073,0.
 01864653,0.01088692,0.00515990,-0.00022155,-0.00569191,0.00115108,-0.0
 2998626,-0.00663356,-0.00781853,-0.08946194,-0.09228943,-0.02546118,0.
 00092976,-0.00065017,0.00026477,0.00294136,-0.00268494,0.00170308,0.00
 059432,0.00086097,-0.00005021,0.00018915,0.00004077,-0.00003314,0.0001
 4759,-0.00027422,0.00004200,-0.00041926,0.00008293,-0.00022058,0.00008
 648,0.00000177,0.00005382,0.00000553,0.00001009,-0.00001805,0.00001616
 ,0.00001046,0.00003211,-0.00059208,-0.00108107,0.00140522,-0.00001688,
 0.00002439,0.00000044,-0.00000453,0.00000770,0.00000736,0.00000104,0.0
 0000105,0.00000011,-0.00000141,-0.00000315,-0.00000010,0.00000226,0.00
 000070,-0.00000048,0.00000148,-0.00000502,0.00000280,-0.00000405,0.000
 00172,-0.00000172,-0.00132574,-0.00045655,-0.00039453,0.00044227,0.000
 82187,-0.00040478,0.09928849,0.09872807,0.00022598,0.00026335,0.000002
 59,0.00028575,-0.00022241,-0.00024375,-0.00047208,-0.00018571,-0.00000
 671,0.00053889,0.00138441,-0.00053320,-0.00091432,0.00114924,-0.000337
 99,0.00046357,-0.00052435,0.00014451,-0.00040150,0.00018828,0.00003267
 ,0.00044917,0.00011737,0.00011063,-0.00025565,0.00010024,0.00000242,0.
 00019289,0.00022406,-0.00000522,-0.00003970,0.00003854,0.00000846,0.00
 003882,0.00003696,0.00000415,0.00000955,-0.00008663,-0.00001591,0.0000
 1385,0.00003920,0.00000601,0.00000969,-0.00003209,-0.00000791,-0.00004
 555,0.00004933,-0.00006265,-0.00014365,-0.00006231,0.00002264,-0.00002
 071,-0.00000310,-0.00003282,0.00031331,-0.00033205,-0.00002178,-0.0004
 0388,0.00010036,0.00003095,0.00138683,0.00069604,-0.00381109,0.0007192
 9,-0.00053908,0.00007774,-0.00505701,-0.00654732,0.00260428,-0.0003683
 7,0.00085289,0.00625290,0.00121541,0.00051622,0.00410343,-0.07768452,-
 0.02288102,-0.06086728,0.00013353,0.00114936,-0.00101417,-0.00275370,0
 .00209558,0.00635851,-0.00036132,-0.00096209,0.00025492,-0.00010346,0.
 00024355,-0.00032082,0.00004841,0.00009292,0.00011428,0.00013774,-0.00
 009875,-0.00076113,0.00005619,-0.00000075,0.00008556,-0.00002126,-0.00
 006690,-0.00000724,0.00002913,-0.00000303,0.00000083,0.00082934,0.0018
 7318,-0.00279255,0.00000296,-0.00000500,-0.00003331,-0.00000234,-0.000
 00664,0.00002995,-0.00000023,-0.00000139,0.00000156,0.00000166,0.00000
 314,0.00000187,-0.00000132,0.00000093,-0.00000031,-0.00000439,0.000000
 24,0.00001529,0.00000274,-0.00000079,0.00000163,0.00010687,0.00007928,
 0.00005232,0.00110377,-0.00046406,-0.00314076,0.08079020,0.02176249,0.
 05358487,-0.00001697,0.00000506,0.00000495,-0.00000137,0.00000851,0.00
 000455,0.00000447,0.00000833,-0.00000126,0.00000442,-0.00001111,-0.000
 00034,-0.00000304,-0.00002334,-0.00000690,0.00000065,0.00000078,0.0000
 0535,0.00001824,-0.00001622,-0.00000934,-0.00005846,0.00000094,0.00001
 588,0.00004512,-0.00003379,-0.00001685,-0.00004472,-0.00000493,0.00000
 802,-0.00000506,0.00000670,-0.00000084,0.00002636,-0.00001433,-0.00000
 055,-0.00001508,-0.00004208,-0.00002288,-0.00010992,0.00000031,0.00002
 736,0.00023992,0.00037138,0.00005793,-0.00167436,0.00243509,-0.0000686
 9,0.00002112,-0.00020888,-0.00001816,-0.00165284,-0.00003083,0.0001344
 8,0.00009473,-0.00001268,0.00001374,-0.00010811,0.00020893,-0.00004339
 ,-0.00001033,0.00002791,-0.00001653,0.00002802,-0.00007928,0.00000096,
 0.00010937,-0.00005625,0.00015973,-0.00058345,-0.00097320,-0.00007106,
 -0.00041108,0.00025530,-0.00003285,0.00004625,0.00017108,-0.00000908,-
 0.00132162,0.00411963,-0.00170541,0.00018636,0.00044964,0.00016315,0.0
 0141901,-0.00003350,-0.00051297,-0.00015442,-0.00152275,-0.00035473,-0
 .29643593,-0.10082399,-0.03915375,-0.01944527,-0.01194327,-0.00348451,
 -0.00000394,0.00000189,0.00000003,-0.00000490,-0.00000201,0.00000065,0
 .00000013,-0.00000368,-0.00000158,0.00000298,0.00000383,-0.00000218,-0
 .00000295,-0.00000386,0.00000113,-0.00000259,-0.00000596,0.00000220,0.
 00000049,-0.00000687,-0.00000044,0.00000806,-0.00001124,-0.00000097,0.
 00000733,0.00002539,0.00000060,-0.00000048,-0.00000071,-0.00001281,-0.
 00207481,0.00354248,-0.00033110,0.00000035,0.00005262,-0.00002078,-0.0
 0010201,-0.00004764,-0.00003818,-0.00001147,-0.00000685,-0.00001994,0.
 32120228,-0.00001298,0.00000215,0.00000067,-0.00000240,0.00000511,0.00
 000043,0.00000237,0.00000403,0.00000011,0.00000684,-0.00001507,-0.0000
 0312,-0.00002120,0.00001909,0.00000625,0.00000597,-0.00000237,0.000001
 56,0.00001496,-0.00006215,-0.00000873,-0.00015764,0.00000047,0.0000109
 9,0.00000442,-0.00009480,-0.00001099,0.00002184,0.00011221,0.00001448,
 -0.00006050,0.00010086,0.00001410,0.00009288,-0.00008456,-0.00000335,-
 0.00014207,0.00012999,0.00000159,0.00001503,0.00018003,0.00002336,0.00
 049215,0.00047473,0.00010521,0.00004018,-0.00180243,-0.00012377,-0.000
 01418,-0.00007844,-0.00000919,-0.00046343,0.00130177,0.00017096,-0.000
 04401,0.00004610,-0.00000573,-0.00161009,0.00022538,-0.00001760,0.0000
 7272,0.00003901,-0.00001148,0.00016131,-0.00052805,-0.00006466,-0.0002
 7496,0.00013273,-0.00001232,0.00034178,0.00071879,0.00002319,0.0003231
 8,0.00001405,0.00011071,0.00003651,-0.00026748,0.00001994,0.00323150,-
 0.00248234,0.00036899,0.00074764,-0.00057421,0.00007184,0.00094081,-0.
 00575591,-0.00051399,-0.02909123,-0.00525346,-0.00397449,-0.10226766,-
 0.10233495,-0.01638309,0.02068327,0.01113004,0.00301887,-0.00000174,-0
 .00000030,0.00000112,-0.00000147,-0.00000005,0.00000087,0.00000028,-0.
 00000095,-0.00000048,0.00000025,0.00000143,0.00000426,-0.00001825,-0.0
 0000967,-0.00000273,-0.00000026,-0.00000722,-0.00000115,0.00001800,-0.
 00000891,-0.00000126,0.00000236,0.00000878,0.00000083,0.00001134,0.000
 09399,0.00001295,0.00000052,-0.00002470,-0.00000162,0.00300029,-0.0007
 7207,0.00037889,-0.00000739,-0.00003239,-0.00001212,0.00008442,0.00003
 535,0.00003787,-0.00000788,0.00000720,-0.00001345,0.10389629,0.1045405
 1,-0.00000471,0.00000097,-0.00000606,0.00000106,0.00000010,-0.00000209
 ,-0.00000200,-0.00000043,0.00000048,0.00000247,0.00000742,0.00000687,0
 .00000631,0.00000372,0.00001766,0.00000481,-0.00000648,-0.00001153,-0.
 00001509,-0.00000322,0.00000062,0.00001215,-0.00000363,-0.00006071,-0.
 00002592,-0.00001835,0.00006143,0.00002010,0.00003072,-0.00000431,-0.0
 0001226,0.00000773,0.00000757,0.00001707,0.00000009,-0.00001141,-0.000
 08507,-0.00000893,0.00006182,0.00003862,0.00007742,0.00002993,0.000120
 31,-0.00002546,-0.00020014,-0.00024575,0.00034727,-0.00051292,0.000095
 84,-0.00001915,-0.00007086,-0.00003958,0.00021175,-0.00182998,-0.00005
 100,-0.00002827,-0.00009555,-0.00008384,0.00005346,0.00024523,-0.00000
 231,0.00000157,0.00003942,-0.00001080,-0.00001540,-0.00002097,0.000157
 54,-0.00006428,-0.00072021,0.00000456,-0.00002787,0.00008255,0.0001651
 5,0.00003694,-0.00072455,-0.00001336,0.00002561,0.00009890,-0.00149280
 ,0.00093011,0.01001691,0.00036331,-0.00037912,-0.00074947,-0.00046878,
 -0.00052095,0.00446500,-0.00104505,0.00019739,0.00183775,-0.03832219,-
 0.01671592,-0.04230938,-0.00396559,-0.00114765,0.00349575,0.00000091,-
 0.00000039,0.00000183,-0.00000018,-0.00000043,0.00000154,-0.00000007,-
 0.00000056,0.00000008,0.00000236,-0.00000288,0.00000619,-0.00000102,-0
 .00000147,0.00000149,-0.00000076,0.00000087,-0.00001748,0.00000135,-0.
 00000124,-0.00000072,0.00000065,-0.00000194,0.00000383,-0.00000442,-0.
 00000162,0.00006806,0.00000231,0.00000282,-0.00002615,-0.00041534,0.00
 029512,0.00174996,-0.00005817,0.00001576,0.00019829,-0.00001385,-0.000
 01337,-0.00002066,-0.00002741,0.00001129,0.00007816,0.04443168,0.01670
 818,0.03027815,-0.00000102,-0.00000858,-0.00000358,-0.00000222,0.00000
 212,-0.00000045,0.00000478,-0.00001881,-0.00000779,0.00001182,0.000000
 41,-0.00000105,0.00002771,-0.00015419,0.00000491,-0.00004610,0.0000025
 1,0.00002892,0.00000465,-0.00001906,-0.00000138,0.00001946,0.00000941,
 -0.00000600,-0.00003548,0.00002253,0.00000909,0.00005582,0.00000675,-0
 .00002178,-0.00000246,0.00000375,0.00000320,-0.00003174,0.00000166,0.0
 0000263,0.00001816,0.00010373,0.00001770,0.00004185,0.00004407,-0.0000
 0012,-0.00001110,-0.00009267,-0.00000085,-0.00001544,0.00000029,-0.000
 02981,-0.00026374,0.00016533,0.00010731,0.00081498,0.00091447,0.000141
 30,-0.00013288,-0.00005197,-0.00004361,0.00009847,-0.00013506,0.000166
 51,-0.00043290,0.00008732,-0.00003737,0.00001074,0.00006279,-0.0000006
 7,0.00028414,-0.00147100,0.00021029,0.00125987,-0.00161281,0.00080075,
 0.00012613,0.00038920,0.00003484,0.00006361,-0.00010359,0.00004589,-0.
 00052746,-0.02911503,-0.00048741,-0.00500019,-0.00047383,-0.00171498,-
 0.00078014,0.00036264,-0.00000108,-0.00356947,0.00249925,-0.00194501,0
 .00734679,0.02626915,0.00063475,-0.06496570,-0.04295893,-0.00524181,-0
 .00000307,-0.00000067,-0.00000008,-0.00000025,-0.00000126,0.00000059,-
 0.00000445,-0.00000296,0.00000215,0.00001105,-0.00000124,-0.00000770,-
 0.00000017,-0.00000184,-0.00000307,0.00000391,-0.00000204,0.00000019,0
 .00000266,0.00000145,0.,-0.00000064,0.00001498,0.00000084,-0.00000553,
 0.00000227,-0.00000092,-0.00001599,0.00000908,-0.00000127,-0.00002188,
 0.00000051,-0.00001069,-0.00048986,0.00098524,-0.00022852,-0.00000558,
 0.00000440,-0.00002448,-0.00001255,0.00007179,-0.00003064,0.00078950,-
 0.00004976,0.00095873,0.06538194,-0.00000999,-0.00000876,-0.00000076,-
 0.00000886,0.00000592,0.00000483,0.00000954,-0.00000148,-0.00000323,0.
 00000360,-0.00000201,0.00001168,0.00002454,-0.00007268,-0.00001567,-0.
 00003387,0.00000282,0.00000926,0.00001865,-0.00001418,-0.00000253,-0.0
 0003355,0.00000587,0.00000431,0.00000166,0.00000158,-0.00000068,0.0000
 0600,-0.00001048,-0.00000241,-0.00000366,-0.00000966,-0.00000189,0.000
 03392,0.00000206,0.00000279,-0.00004364,-0.00007165,-0.00001075,0.0000
 1771,-0.00003999,-0.00000451,0.00000143,0.00002364,0.00000342,0.000018
 85,-0.00003181,-0.00000216,0.00033421,-0.00010984,0.00001121,-0.000688
 24,-0.00069163,-0.00014379,0.00004309,0.00003090,0.00000641,-0.0000275
 1,0.00003376,-0.00000063,-0.00018476,0.00006760,-0.00001747,0.00001098
 ,-0.00001001,0.00000783,0.00057926,-0.00055750,0.00015450,0.00162693,0
 .00102705,0.00040465,-0.00039080,-0.00004964,-0.00008883,-0.00006204,0
 .00034688,-0.00003091,0.00079039,-0.00832370,0.00021407,-0.00194772,0.
 00103430,-0.00039250,0.00010156,0.00052209,0.00002338,0.00354442,0.000
 15422,0.00054027,-0.00562101,-0.01536578,-0.00086280,-0.04197748,-0.33
 276472,-0.00678540,-0.00000545,0.00000196,-0.00000005,-0.00000473,-0.0
 0000293,0.00000065,-0.00000228,-0.00000550,-0.00000022,0.00001048,-0.0
 0000047,-0.00001078,-0.00000252,-0.00000675,-0.00000021,-0.00000124,-0
 .00000830,-0.00000163,-0.00000209,-0.00000720,-0.00000082,0.00000358,-
 0.00001552,-0.00000161,0.00000675,-0.00000694,0.00000010,0.00002316,-0
 .00000778,0.00000173,-0.00000288,-0.00001179,0.00000489,-0.00065513,0.
 00038426,-0.00020223,-0.00004859,-0.00001503,-0.00002011,-0.00001804,0
 .00003713,-0.00001825,0.00032716,0.00086868,0.00004268,0.04423820,0.35
 367301,0.00002378,0.00001349,-0.00000572,0.00000757,-0.00002356,-0.000
 00675,-0.00001831,-0.00001498,0.00000070,-0.00002514,0.00001189,0.0000
 2688,0.00007925,-0.00001815,-0.00001389,-0.00001235,-0.00002255,-0.000
 04784,-0.00003815,-0.00000037,0.00001769,0.00006394,0.00000926,0.00003
 523,-0.00006946,0.00001413,-0.00002002,0.00004172,0.00001001,0.0001229
 1,-0.00000588,0.00000398,-0.00001143,-0.00000147,0.00000187,-0.0000254
 5,-0.00003889,0.00003590,-0.00001246,0.00003825,0.00004491,0.00006113,
 0.00002401,-0.00006546,-0.00007422,-0.00008636,-0.00003010,0.00019138,
 0.00007236,0.00017895,-0.00060577,0.00036238,0.00018594,0.00033347,-0.
 00018294,-0.00003321,0.00011869,0.00007633,-0.00008423,-0.00084059,-0.
 00020206,0.00001414,0.00013566,0.00006546,0.00001762,0.00003174,-0.000
 07616,-0.00025892,0.00004589,0.00043668,-0.00053053,-0.00227432,0.0001
 9048,0.00022772,-0.00012755,0.00006332,-0.00018711,-0.00000834,0.00088
 414,-0.00378669,0.00294537,-0.00118983,-0.00090081,0.00418720,-0.00075
 396,0.00038642,-0.00108545,-0.00187846,0.00067271,0.00939716,0.0013592
 7,0.00296519,0.00386491,-0.00660541,-0.00626749,-0.03737379,0.00000198
 ,-0.00000025,0.00000282,0.00000051,-0.00000104,-0.00000012,-0.00000396
 ,-0.00000050,-0.00000525,0.00000741,-0.00000416,-0.00000038,-0.0000001
 3,-0.00000418,0.00001165,0.00000175,-0.00000039,-0.00001641,0.00000135
 ,0.00000004,0.00000113,-0.00000103,0.00000377,0.00000594,-0.00000128,0
 .00000200,0.00000074,-0.00000399,0.00000034,0.00000800,0.00000267,-0.0
 0000676,-0.00000551,-0.00015671,0.00017176,0.00018534,-0.00004299,0.00
 001130,0.00010778,-0.00001690,0.00001687,0.00003348,0.00092571,0.00006
 707,-0.00546034,0.00668151,0.00717415,0.02614866\\-0.00000040,-0.00000
 095,-0.00000028,0.00000031,-0.00000016,-0.00000026,-0.00000039,-0.0000
 0007,-0.00000033,0.00000012,-0.00000031,0.00000012,0.00000023,0.000001
 15,-0.00000029,-0.00000005,-0.00000155,-0.00000017,0.00000002,0.000000
 64,-0.00000022,0.00000001,-0.00000050,-0.00000028,0.00000046,0.0000003
 6,-0.00000015,-0.00000030,-0.00000015,-0.00000033,0.00000053,0.0000004
 4,-0.00000015,-0.00000036,0.00000016,-0.00000029,0.00000064,0.00000027
 ,0.00000011,-0.00000035,-0.00000010,-0.00000004,-0.00000020,0.00000059
 ,0.00000012,0.00000020,0.00000022,0.00000022,-0.00000026,0.00000047,0.
 ,-0.00000047,-0.00000042,0.,0.00000002,0.00000040,0.00000002,0.0000005
 0,0.00000002,0.00000007,0.00000005,-0.00000099,-0.00000030,0.00000051,
 -0.00000023,-0.00000005,-0.00000116,0.00000045,-0.00000017,-0.00000183
 ,0.00000008,0.00000002,0.00000131,0.00000134,0.00000028,-0.00000014,-0
 .00000107,0.00000035,0.00000037,-0.00000095,0.00000063,0.00000090,0.00
 000082,0.00000034,-0.00000026,0.00000007,0.00000004,0.00000003,0.00000
 027,0.00000008,-0.00000017,-0.00000016,0.00000043,-0.00000027,-0.00000
 003,0.00000014,0.00000009,-0.00000029,0.00000003,0.00000005,-0.0000002
 5,-0.00000043,0.00000045,-0.00000020,-0.00000040,0.00000001,-0.0000000
 3,0.00000006,0.00000030,-0.00000013,-0.00000034,0.00000022,0.00000005,
 -0.00000030,0.00000023,0.00000018,-0.00000032,0.00000022,0.00000024,-0
 .00000020,0.00000016,0.00000031,-0.00000003,0.00000003,0.00000029,0.00
 000020,-0.00000022,0.00000009,0.00000049,-0.00000003,-0.00000004,0.000
 00061,-0.00000043,-0.00000031,0.00000030,-0.00000016,-0.00000025,0.000
 00010,-0.00000026,0.00000013,0.00000003,-0.00000022,0.00000009,0.00000
 053\\\@


 IF AT FIRST YOU DON'T SUCCEED, TRY LOOKING IN 
 THE WASTEBASKET FOR THE DIRECTIONS.
 Job cpu time:       8 days  6 hours 51 minutes 33.7 seconds.
 File lengths (MBytes):  RWF=   4419 Int=      0 D2E=      0 Chk=     85 Scr=      1
 Normal termination of Gaussian 09 at Tue Jul 30 06:20:29 2019.
