 Entering Gaussian System, Link 0=g09
 Initial command:
 /home/minenky/programs//g09/l1.exe "/local/scratch/minenky/m1_00_120835-97-4-C32H16_wB97XD/Gau-40302.inp" -scrdir="/local/scratch/minenky/m1_00_120835-97-4-C32H16_wB97XD/"
 Entering Link 1 = /home/minenky/programs//g09/l1.exe PID=     40303.
  
 Copyright (c) 1988,1990,1992,1993,1995,1998,2003,2009,2013,
            Gaussian, Inc.  All Rights Reserved.
  
 This is part of the Gaussian(R) 09 program.  It is based on
 the Gaussian(R) 03 system (copyright 2003, Gaussian, Inc.),
 the Gaussian(R) 98 system (copyright 1998, Gaussian, Inc.),
 the Gaussian(R) 94 system (copyright 1995, Gaussian, Inc.),
 the Gaussian 92(TM) system (copyright 1992, Gaussian, Inc.),
 the Gaussian 90(TM) system (copyright 1990, Gaussian, Inc.),
 the Gaussian 88(TM) system (copyright 1988, Gaussian, Inc.),
 the Gaussian 86(TM) system (copyright 1986, Carnegie Mellon
 University), and the Gaussian 82(TM) system (copyright 1983,
 Carnegie Mellon University). Gaussian is a federally registered
 trademark of Gaussian, Inc.
  
 This software contains proprietary and confidential information,
 including trade secrets, belonging to Gaussian, Inc.
  
 This software is provided under written license and may be
 used, copied, transmitted, or stored only in accord with that
 written license.
  
 The following legend is applicable only to US Government
 contracts under FAR:
  
                    RESTRICTED RIGHTS LEGEND
  
 Use, reproduction and disclosure by the US Government is
 subject to restrictions as set forth in subparagraphs (a)
 and (c) of the Commercial Computer Software - Restricted
 Rights clause in FAR 52.227-19.
  
 Gaussian, Inc.
 340 Quinnipiac St., Bldg. 40, Wallingford CT 06492
  
  
 ---------------------------------------------------------------
 Warning -- This program may not be used in any manner that
 competes with the business of Gaussian, Inc. or will provide
 assistance to any competitor of Gaussian, Inc.  The licensee
 of this program is prohibited from giving any competitor of
 Gaussian, Inc. access to this program.  By using this program,
 the user acknowledges that Gaussian, Inc. is engaged in the
 business of creating and licensing software in the field of
 computational chemistry and represents and warrants to the
 licensee that it is not a competitor of Gaussian, Inc. and that
 it will not use this program in any manner prohibited above.
 ---------------------------------------------------------------
  

 Cite this work as:
 Gaussian 09, Revision D.01,
 M. J. Frisch, G. W. Trucks, H. B. Schlegel, G. E. Scuseria, 
 M. A. Robb, J. R. Cheeseman, G. Scalmani, V. Barone, B. Mennucci, 
 G. A. Petersson, H. Nakatsuji, M. Caricato, X. Li, H. P. Hratchian, 
 A. F. Izmaylov, J. Bloino, G. Zheng, J. L. Sonnenberg, M. Hada, 
 M. Ehara, K. Toyota, R. Fukuda, J. Hasegawa, M. Ishida, T. Nakajima, 
 Y. Honda, O. Kitao, H. Nakai, T. Vreven, J. A. Montgomery, Jr., 
 J. E. Peralta, F. Ogliaro, M. Bearpark, J. J. Heyd, E. Brothers, 
 K. N. Kudin, V. N. Staroverov, T. Keith, R. Kobayashi, J. Normand, 
 K. Raghavachari, A. Rendell, J. C. Burant, S. S. Iyengar, J. Tomasi, 
 M. Cossi, N. Rega, J. M. Millam, M. Klene, J. E. Knox, J. B. Cross, 
 V. Bakken, C. Adamo, J. Jaramillo, R. Gomperts, R. E. Stratmann, 
 O. Yazyev, A. J. Austin, R. Cammi, C. Pomelli, J. W. Ochterski, 
 R. L. Martin, K. Morokuma, V. G. Zakrzewski, G. A. Voth, 
 P. Salvador, J. J. Dannenberg, S. Dapprich, A. D. Daniels, 
 O. Farkas, J. B. Foresman, J. V. Ortiz, J. Cioslowski, 
 and D. J. Fox, Gaussian, Inc., Wallingford CT, 2013.
 
 ******************************************
 Gaussian 09:  AM64L-G09RevD.01 24-Apr-2013
                27-Jul-2019 
 ******************************************
 %Mem=32000MB
 %NProcShared=16
 Will use up to   16 processors via shared memory.
 %Chk=m1_00_120835-97-4-C32H16_wB97XD
 ----------------------------------------------------------------------
 #P wB97XD/def2tzvp opt=(tight) freq integral(Grid=ultrafine) # SCF(Max
 Cycle=380) 5d 7f GFPrint
 ----------------------------------------------------------------------
 1/7=10,14=-1,18=20,19=15,26=4,38=1/1,3;
 2/9=110,12=2,17=6,18=5,40=1/2;
 3/5=44,7=101,8=11,11=2,16=1,24=100,25=1,30=1,71=1,74=-58,75=-5/1,2,3;
 4//1;
 5/5=2,7=380,38=5/2;
 6/7=2,8=2,9=2,10=2,28=1/1;
 7//1,2,3,16;
 1/7=10,14=-1,18=20,19=15,26=4/3(2);
 2/9=110/2;
 99//99;
 2/9=110/2;
 3/5=44,7=101,8=11,11=2,16=1,25=1,30=1,71=1,74=-58,75=-5/1,2,3;
 4/5=5,16=3,69=1/1;
 5/5=2,7=380,38=5/2;
 7//1,2,3,16;
 1/7=10,14=-1,18=20,19=15,26=4/3(-5);
 2/9=110/2;
 6/7=2,8=2,9=2,10=2,19=2,28=1/1;
 99/9=1/99;
 Leave Link    1 at Sat Jul 27 11:52:01 2019, MaxMem=  4194304000 cpu:         0.9
 (Enter /home/minenky/programs//g09/l101.exe)
 ---------------------------------------
 The PBEPBE optimization and frequencies
 ---------------------------------------
 Symbolic Z-matrix:
 Charge =  0 Multiplicity = 1
 C                     4.31861  -2.25969   0. 
 C                     2.98362  -2.45988   0. 
 C                     2.0487   -1.35988   0. 
 C                     0.28738   0.86729   0. 
 C                    -0.6218    1.96042   0. 
 C                    -1.98124   1.75978   0. 
 C                    -2.91572   2.86571   0. 
 C                    -4.24829   2.65896   0. 
 C                    -4.80245   1.3221    0. 
 C                    -6.17071   1.09922   0. 
 C                    -6.67385  -0.20976   0. 
 C                    -5.82337  -1.29365   0. 
 C                    -3.91194   0.2141    0. 
 C                    -4.42415  -1.10189   0. 
 C                    -3.52135  -2.20235   0. 
 C                    -2.50298   0.42652   0. 
 C                    -1.62772  -0.66668   0. 
 C                    -2.16236  -1.9982    0. 
 C                    -1.23232  -3.10583   0. 
 C                     0.09939  -2.8983    0. 
 C                     0.66717  -1.56816   0. 
 C                    -0.21681  -0.45372   0. 
 C                     4.86846  -0.92643   0. 
 C                     6.24478  -0.70755   0. 
 C                     6.74978   0.5918    0. 
 C                     5.89458   1.68109   0. 
 C                     3.98166   0.17756   0. 
 C                     4.50473   1.48892   0. 
 C                     3.59573   2.5994    0. 
 C                     2.25571   2.39654   0. 
 C                     1.69623   1.07465   0. 
 C                     2.56211  -0.03184   0. 
 H                     5.01694  -3.1045    0. 
 H                     2.56262  -3.47716   0. 
 H                    -0.20695   2.98119   0. 
 H                    -2.50202   3.88083   0. 
 H                    -4.95057   3.50063   0. 
 H                    -6.86513   1.94696   0. 
 H                    -7.75809  -0.36458   0. 
 H                    -6.22292  -2.31408   0. 
 H                    -3.93043  -3.22021   0. 
 H                    -1.64564  -4.1211    0. 
 H                     0.80507  -3.74346   0. 
 H                     6.9318   -1.56137   0. 
 H                     7.83349   0.74979   0. 
 H                     6.29805   2.7       0. 
 H                     4.01285   3.61291   0. 
 H                     1.55463   3.24537   0. 
 
 NAtoms=     48 NQM=       48 NQMF=       0 NMMI=      0 NMMIF=      0
                NMic=       0 NMicF=      0.
                    Isotopes and Nuclear Properties:
 (Nuclear quadrupole moments (NQMom) in fm**2, nuclear magnetic moments (NMagM)
  in nuclear magnetons)

  Atom         1           2           3           4           5           6           7           8           9          10
 IAtWgt=          12          12          12          12          12          12          12          12          12          12
 AtmWgt=  12.0000000  12.0000000  12.0000000  12.0000000  12.0000000  12.0000000  12.0000000  12.0000000  12.0000000  12.0000000
 NucSpn=           0           0           0           0           0           0           0           0           0           0
 AtZEff=   0.0000000   0.0000000   0.0000000   0.0000000   0.0000000   0.0000000   0.0000000   0.0000000   0.0000000   0.0000000
 NQMom=    0.0000000   0.0000000   0.0000000   0.0000000   0.0000000   0.0000000   0.0000000   0.0000000   0.0000000   0.0000000
 NMagM=    0.0000000   0.0000000   0.0000000   0.0000000   0.0000000   0.0000000   0.0000000   0.0000000   0.0000000   0.0000000
 AtZNuc=   6.0000000   6.0000000   6.0000000   6.0000000   6.0000000   6.0000000   6.0000000   6.0000000   6.0000000   6.0000000

  Atom        11          12          13          14          15          16          17          18          19          20
 IAtWgt=          12          12          12          12          12          12          12          12          12          12
 AtmWgt=  12.0000000  12.0000000  12.0000000  12.0000000  12.0000000  12.0000000  12.0000000  12.0000000  12.0000000  12.0000000
 NucSpn=           0           0           0           0           0           0           0           0           0           0
 AtZEff=   0.0000000   0.0000000   0.0000000   0.0000000   0.0000000   0.0000000   0.0000000   0.0000000   0.0000000   0.0000000
 NQMom=    0.0000000   0.0000000   0.0000000   0.0000000   0.0000000   0.0000000   0.0000000   0.0000000   0.0000000   0.0000000
 NMagM=    0.0000000   0.0000000   0.0000000   0.0000000   0.0000000   0.0000000   0.0000000   0.0000000   0.0000000   0.0000000
 AtZNuc=   6.0000000   6.0000000   6.0000000   6.0000000   6.0000000   6.0000000   6.0000000   6.0000000   6.0000000   6.0000000

  Atom        21          22          23          24          25          26          27          28          29          30
 IAtWgt=          12          12          12          12          12          12          12          12          12          12
 AtmWgt=  12.0000000  12.0000000  12.0000000  12.0000000  12.0000000  12.0000000  12.0000000  12.0000000  12.0000000  12.0000000
 NucSpn=           0           0           0           0           0           0           0           0           0           0
 AtZEff=   0.0000000   0.0000000   0.0000000   0.0000000   0.0000000   0.0000000   0.0000000   0.0000000   0.0000000   0.0000000
 NQMom=    0.0000000   0.0000000   0.0000000   0.0000000   0.0000000   0.0000000   0.0000000   0.0000000   0.0000000   0.0000000
 NMagM=    0.0000000   0.0000000   0.0000000   0.0000000   0.0000000   0.0000000   0.0000000   0.0000000   0.0000000   0.0000000
 AtZNuc=   6.0000000   6.0000000   6.0000000   6.0000000   6.0000000   6.0000000   6.0000000   6.0000000   6.0000000   6.0000000

  Atom        31          32          33          34          35          36          37          38          39          40
 IAtWgt=          12          12           1           1           1           1           1           1           1           1
 AtmWgt=  12.0000000  12.0000000   1.0078250   1.0078250   1.0078250   1.0078250   1.0078250   1.0078250   1.0078250   1.0078250
 NucSpn=           0           0           1           1           1           1           1           1           1           1
 AtZEff=   0.0000000   0.0000000   0.0000000   0.0000000   0.0000000   0.0000000   0.0000000   0.0000000   0.0000000   0.0000000
 NQMom=    0.0000000   0.0000000   0.0000000   0.0000000   0.0000000   0.0000000   0.0000000   0.0000000   0.0000000   0.0000000
 NMagM=    0.0000000   0.0000000   2.7928460   2.7928460   2.7928460   2.7928460   2.7928460   2.7928460   2.7928460   2.7928460
 AtZNuc=   6.0000000   6.0000000   1.0000000   1.0000000   1.0000000   1.0000000   1.0000000   1.0000000   1.0000000   1.0000000

  Atom        41          42          43          44          45          46          47          48
 IAtWgt=           1           1           1           1           1           1           1           1
 AtmWgt=   1.0078250   1.0078250   1.0078250   1.0078250   1.0078250   1.0078250   1.0078250   1.0078250
 NucSpn=           1           1           1           1           1           1           1           1
 AtZEff=   0.0000000   0.0000000   0.0000000   0.0000000   0.0000000   0.0000000   0.0000000   0.0000000
 NQMom=    0.0000000   0.0000000   0.0000000   0.0000000   0.0000000   0.0000000   0.0000000   0.0000000
 NMagM=    2.7928460   2.7928460   2.7928460   2.7928460   2.7928460   2.7928460   2.7928460   2.7928460
 AtZNuc=   1.0000000   1.0000000   1.0000000   1.0000000   1.0000000   1.0000000   1.0000000   1.0000000
 Leave Link  101 at Sat Jul 27 11:52:01 2019, MaxMem=  4194304000 cpu:         9.7
 (Enter /home/minenky/programs//g09/l103.exe)

 GradGradGradGradGradGradGradGradGradGradGradGradGradGradGradGradGradGrad
 Berny optimization.
 Initialization pass.
                           ----------------------------
                           !    Initial Parameters    !
                           ! (Angstroms and Degrees)  !
 --------------------------                            --------------------------
 ! Name  Definition              Value          Derivative Info.                !
 --------------------------------------------------------------------------------
 ! R1    R(1,2)                  1.3499         estimate D2E/DX2                !
 ! R2    R(1,23)                 1.4422         estimate D2E/DX2                !
 ! R3    R(1,33)                 1.0961         estimate D2E/DX2                !
 ! R4    R(2,3)                  1.4436         estimate D2E/DX2                !
 ! R5    R(2,34)                 1.101          estimate D2E/DX2                !
 ! R6    R(3,21)                 1.3971         estimate D2E/DX2                !
 ! R7    R(3,32)                 1.4238         estimate D2E/DX2                !
 ! R8    R(4,5)                  1.4218         estimate D2E/DX2                !
 ! R9    R(4,22)                 1.414          estimate D2E/DX2                !
 ! R10   R(4,31)                 1.424          estimate D2E/DX2                !
 ! R11   R(5,6)                  1.3742         estimate D2E/DX2                !
 ! R12   R(5,35)                 1.1018         estimate D2E/DX2                !
 ! R13   R(6,7)                  1.4479         estimate D2E/DX2                !
 ! R14   R(6,16)                 1.4317         estimate D2E/DX2                !
 ! R15   R(7,8)                  1.3485         estimate D2E/DX2                !
 ! R16   R(7,36)                 1.0962         estimate D2E/DX2                !
 ! R17   R(8,9)                  1.4472         estimate D2E/DX2                !
 ! R18   R(8,37)                 1.0962         estimate D2E/DX2                !
 ! R19   R(9,10)                 1.3863         estimate D2E/DX2                !
 ! R20   R(9,13)                 1.4215         estimate D2E/DX2                !
 ! R21   R(10,11)                1.4024         estimate D2E/DX2                !
 ! R22   R(10,38)                1.0958         estimate D2E/DX2                !
 ! R23   R(11,12)                1.3777         estimate D2E/DX2                !
 ! R24   R(11,39)                1.0952         estimate D2E/DX2                !
 ! R25   R(12,14)                1.4123         estimate D2E/DX2                !
 ! R26   R(12,40)                1.0959         estimate D2E/DX2                !
 ! R27   R(13,14)                1.4122         estimate D2E/DX2                !
 ! R28   R(13,16)                1.4249         estimate D2E/DX2                !
 ! R29   R(14,15)                1.4234         estimate D2E/DX2                !
 ! R30   R(15,18)                1.3742         estimate D2E/DX2                !
 ! R31   R(15,41)                1.097          estimate D2E/DX2                !
 ! R32   R(16,17)                1.4004         estimate D2E/DX2                !
 ! R33   R(17,18)                1.4348         estimate D2E/DX2                !
 ! R34   R(17,22)                1.4269         estimate D2E/DX2                !
 ! R35   R(18,19)                1.4463         estimate D2E/DX2                !
 ! R36   R(19,20)                1.3478         estimate D2E/DX2                !
 ! R37   R(19,42)                1.0962         estimate D2E/DX2                !
 ! R38   R(20,21)                1.4463         estimate D2E/DX2                !
 ! R39   R(20,43)                1.101          estimate D2E/DX2                !
 ! R40   R(21,22)                1.4225         estimate D2E/DX2                !
 ! R41   R(23,24)                1.3936         estimate D2E/DX2                !
 ! R42   R(23,27)                1.4161         estimate D2E/DX2                !
 ! R43   R(24,25)                1.394          estimate D2E/DX2                !
 ! R44   R(24,44)                1.0959         estimate D2E/DX2                !
 ! R45   R(25,26)                1.3849         estimate D2E/DX2                !
 ! R46   R(25,45)                1.0952         estimate D2E/DX2                !
 ! R47   R(26,28)                1.4031         estimate D2E/DX2                !
 ! R48   R(26,46)                1.0959         estimate D2E/DX2                !
 ! R49   R(27,28)                1.4118         estimate D2E/DX2                !
 ! R50   R(27,32)                1.4349         estimate D2E/DX2                !
 ! R51   R(28,29)                1.4351         estimate D2E/DX2                !
 ! R52   R(29,30)                1.3553         estimate D2E/DX2                !
 ! R53   R(29,47)                1.096          estimate D2E/DX2                !
 ! R54   R(30,31)                1.4354         estimate D2E/DX2                !
 ! R55   R(30,48)                1.1009         estimate D2E/DX2                !
 ! R56   R(31,32)                1.405          estimate D2E/DX2                !
 ! A1    A(2,1,23)             120.9403         estimate D2E/DX2                !
 ! A2    A(2,1,33)             121.0492         estimate D2E/DX2                !
 ! A3    A(23,1,33)            118.0106         estimate D2E/DX2                !
 ! A4    A(1,2,3)              121.8338         estimate D2E/DX2                !
 ! A5    A(1,2,34)             121.0101         estimate D2E/DX2                !
 ! A6    A(3,2,34)             117.1561         estimate D2E/DX2                !
 ! A7    A(2,3,21)             121.7886         estimate D2E/DX2                !
 ! A8    A(2,3,32)             118.5015         estimate D2E/DX2                !
 ! A9    A(21,3,32)            119.7099         estimate D2E/DX2                !
 ! A10   A(5,4,22)             119.3586         estimate D2E/DX2                !
 ! A11   A(5,4,31)             121.3783         estimate D2E/DX2                !
 ! A12   A(22,4,31)            119.2631         estimate D2E/DX2                !
 ! A13   A(4,5,6)              121.3556         estimate D2E/DX2                !
 ! A14   A(4,5,35)             118.1316         estimate D2E/DX2                !
 ! A15   A(6,5,35)             120.5128         estimate D2E/DX2                !
 ! A16   A(5,6,7)              121.8013         estimate D2E/DX2                !
 ! A17   A(5,6,16)             119.7673         estimate D2E/DX2                !
 ! A18   A(7,6,16)             118.4313         estimate D2E/DX2                !
 ! A19   A(6,7,8)              121.3778         estimate D2E/DX2                !
 ! A20   A(6,7,36)             117.6308         estimate D2E/DX2                !
 ! A21   A(8,7,36)             120.9914         estimate D2E/DX2                !
 ! A22   A(7,8,9)              121.334          estimate D2E/DX2                !
 ! A23   A(7,8,37)             121.022          estimate D2E/DX2                !
 ! A24   A(9,8,37)             117.6439         estimate D2E/DX2                !
 ! A25   A(8,9,10)             121.7669         estimate D2E/DX2                !
 ! A26   A(8,9,13)             118.6959         estimate D2E/DX2                !
 ! A27   A(10,9,13)            119.5372         estimate D2E/DX2                !
 ! A28   A(9,10,11)            120.2772         estimate D2E/DX2                !
 ! A29   A(9,10,38)            120.0703         estimate D2E/DX2                !
 ! A30   A(11,10,38)           119.6525         estimate D2E/DX2                !
 ! A31   A(10,11,12)           120.8547         estimate D2E/DX2                !
 ! A32   A(10,11,39)           119.1516         estimate D2E/DX2                !
 ! A33   A(12,11,39)           119.9937         estimate D2E/DX2                !
 ! A34   A(11,12,14)           120.3163         estimate D2E/DX2                !
 ! A35   A(11,12,40)           120.4971         estimate D2E/DX2                !
 ! A36   A(14,12,40)           119.1866         estimate D2E/DX2                !
 ! A37   A(9,13,14)            119.9439         estimate D2E/DX2                !
 ! A38   A(9,13,16)            120.2155         estimate D2E/DX2                !
 ! A39   A(14,13,16)           119.8406         estimate D2E/DX2                !
 ! A40   A(12,14,13)           119.0705         estimate D2E/DX2                !
 ! A41   A(12,14,15)           121.5613         estimate D2E/DX2                !
 ! A42   A(13,14,15)           119.3682         estimate D2E/DX2                !
 ! A43   A(14,15,18)           120.8217         estimate D2E/DX2                !
 ! A44   A(14,15,41)           118.7401         estimate D2E/DX2                !
 ! A45   A(18,15,41)           120.4382         estimate D2E/DX2                !
 ! A46   A(6,16,13)            119.9454         estimate D2E/DX2                !
 ! A47   A(6,16,17)            119.946          estimate D2E/DX2                !
 ! A48   A(13,16,17)           120.1085         estimate D2E/DX2                !
 ! A49   A(16,17,18)           119.4409         estimate D2E/DX2                !
 ! A50   A(16,17,22)           120.0986         estimate D2E/DX2                !
 ! A51   A(18,17,22)           120.4604         estimate D2E/DX2                !
 ! A52   A(15,18,17)           120.4201         estimate D2E/DX2                !
 ! A53   A(15,18,19)           121.476          estimate D2E/DX2                !
 ! A54   A(17,18,19)           118.1039         estimate D2E/DX2                !
 ! A55   A(18,19,20)           121.1618         estimate D2E/DX2                !
 ! A56   A(18,19,42)           117.8295         estimate D2E/DX2                !
 ! A57   A(20,19,42)           121.0087         estimate D2E/DX2                !
 ! A58   A(19,20,21)           121.9728         estimate D2E/DX2                !
 ! A59   A(19,20,43)           121.0032         estimate D2E/DX2                !
 ! A60   A(21,20,43)           117.024          estimate D2E/DX2                !
 ! A61   A(3,21,20)            121.689          estimate D2E/DX2                !
 ! A62   A(3,21,22)            119.848          estimate D2E/DX2                !
 ! A63   A(20,21,22)           118.463          estimate D2E/DX2                !
 ! A64   A(4,22,17)            119.4739         estimate D2E/DX2                !
 ! A65   A(4,22,21)            120.6881         estimate D2E/DX2                !
 ! A66   A(17,22,21)           119.838          estimate D2E/DX2                !
 ! A67   A(1,23,24)            121.448          estimate D2E/DX2                !
 ! A68   A(1,23,27)            118.8144         estimate D2E/DX2                !
 ! A69   A(24,23,27)           119.7375         estimate D2E/DX2                !
 ! A70   A(23,24,25)           120.275          estimate D2E/DX2                !
 ! A71   A(23,24,44)           119.7853         estimate D2E/DX2                !
 ! A72   A(25,24,44)           119.9397         estimate D2E/DX2                !
 ! A73   A(24,25,26)           120.6257         estimate D2E/DX2                !
 ! A74   A(24,25,45)           119.5335         estimate D2E/DX2                !
 ! A75   A(26,25,45)           119.8407         estimate D2E/DX2                !
 ! A76   A(25,26,28)           120.2633         estimate D2E/DX2                !
 ! A77   A(25,26,46)           120.2623         estimate D2E/DX2                !
 ! A78   A(28,26,46)           119.4744         estimate D2E/DX2                !
 ! A79   A(23,27,28)           119.4807         estimate D2E/DX2                !
 ! A80   A(23,27,32)           120.382          estimate D2E/DX2                !
 ! A81   A(28,27,32)           120.1373         estimate D2E/DX2                !
 ! A82   A(26,28,27)           119.6177         estimate D2E/DX2                !
 ! A83   A(26,28,29)           121.4304         estimate D2E/DX2                !
 ! A84   A(27,28,29)           118.9519         estimate D2E/DX2                !
 ! A85   A(28,29,30)           120.6942         estimate D2E/DX2                !
 ! A86   A(28,29,47)           118.3278         estimate D2E/DX2                !
 ! A87   A(30,29,47)           120.978          estimate D2E/DX2                !
 ! A88   A(29,30,31)           121.5484         estimate D2E/DX2                !
 ! A89   A(29,30,48)           120.9465         estimate D2E/DX2                !
 ! A90   A(31,30,48)           117.5051         estimate D2E/DX2                !
 ! A91   A(4,31,30)            121.3129         estimate D2E/DX2                !
 ! A92   A(4,31,32)            119.6719         estimate D2E/DX2                !
 ! A93   A(30,31,32)           119.0152         estimate D2E/DX2                !
 ! A94   A(3,32,27)            119.528          estimate D2E/DX2                !
 ! A95   A(3,32,31)            120.819          estimate D2E/DX2                !
 ! A96   A(27,32,31)           119.653          estimate D2E/DX2                !
 ! D1    D(23,1,2,3)             0.0            estimate D2E/DX2                !
 ! D2    D(23,1,2,34)          180.0            estimate D2E/DX2                !
 ! D3    D(33,1,2,3)           180.0            estimate D2E/DX2                !
 ! D4    D(33,1,2,34)            0.0            estimate D2E/DX2                !
 ! D5    D(2,1,23,24)          180.0            estimate D2E/DX2                !
 ! D6    D(2,1,23,27)            0.0            estimate D2E/DX2                !
 ! D7    D(33,1,23,24)           0.0            estimate D2E/DX2                !
 ! D8    D(33,1,23,27)         180.0            estimate D2E/DX2                !
 ! D9    D(1,2,3,21)           180.0            estimate D2E/DX2                !
 ! D10   D(1,2,3,32)             0.0            estimate D2E/DX2                !
 ! D11   D(34,2,3,21)            0.0            estimate D2E/DX2                !
 ! D12   D(34,2,3,32)          180.0            estimate D2E/DX2                !
 ! D13   D(2,3,21,20)            0.0            estimate D2E/DX2                !
 ! D14   D(2,3,21,22)          180.0            estimate D2E/DX2                !
 ! D15   D(32,3,21,20)         180.0            estimate D2E/DX2                !
 ! D16   D(32,3,21,22)           0.0            estimate D2E/DX2                !
 ! D17   D(2,3,32,27)            0.0            estimate D2E/DX2                !
 ! D18   D(2,3,32,31)          180.0            estimate D2E/DX2                !
 ! D19   D(21,3,32,27)         180.0            estimate D2E/DX2                !
 ! D20   D(21,3,32,31)           0.0            estimate D2E/DX2                !
 ! D21   D(22,4,5,6)             0.0            estimate D2E/DX2                !
 ! D22   D(22,4,5,35)          180.0            estimate D2E/DX2                !
 ! D23   D(31,4,5,6)           180.0            estimate D2E/DX2                !
 ! D24   D(31,4,5,35)            0.0            estimate D2E/DX2                !
 ! D25   D(5,4,22,17)            0.0            estimate D2E/DX2                !
 ! D26   D(5,4,22,21)          180.0            estimate D2E/DX2                !
 ! D27   D(31,4,22,17)         180.0            estimate D2E/DX2                !
 ! D28   D(31,4,22,21)           0.0            estimate D2E/DX2                !
 ! D29   D(5,4,31,30)            0.0            estimate D2E/DX2                !
 ! D30   D(5,4,31,32)          180.0            estimate D2E/DX2                !
 ! D31   D(22,4,31,30)         180.0            estimate D2E/DX2                !
 ! D32   D(22,4,31,32)           0.0            estimate D2E/DX2                !
 ! D33   D(4,5,6,7)            180.0            estimate D2E/DX2                !
 ! D34   D(4,5,6,16)             0.0            estimate D2E/DX2                !
 ! D35   D(35,5,6,7)             0.0            estimate D2E/DX2                !
 ! D36   D(35,5,6,16)          180.0            estimate D2E/DX2                !
 ! D37   D(5,6,7,8)            180.0            estimate D2E/DX2                !
 ! D38   D(5,6,7,36)             0.0            estimate D2E/DX2                !
 ! D39   D(16,6,7,8)             0.0            estimate D2E/DX2                !
 ! D40   D(16,6,7,36)          180.0            estimate D2E/DX2                !
 ! D41   D(5,6,16,13)          180.0            estimate D2E/DX2                !
 ! D42   D(5,6,16,17)            0.0            estimate D2E/DX2                !
 ! D43   D(7,6,16,13)            0.0            estimate D2E/DX2                !
 ! D44   D(7,6,16,17)          180.0            estimate D2E/DX2                !
 ! D45   D(6,7,8,9)              0.0            estimate D2E/DX2                !
 ! D46   D(6,7,8,37)           180.0            estimate D2E/DX2                !
 ! D47   D(36,7,8,9)           180.0            estimate D2E/DX2                !
 ! D48   D(36,7,8,37)            0.0            estimate D2E/DX2                !
 ! D49   D(7,8,9,10)           180.0            estimate D2E/DX2                !
 ! D50   D(7,8,9,13)             0.0            estimate D2E/DX2                !
 ! D51   D(37,8,9,10)            0.0            estimate D2E/DX2                !
 ! D52   D(37,8,9,13)          180.0            estimate D2E/DX2                !
 ! D53   D(8,9,10,11)          180.0            estimate D2E/DX2                !
 ! D54   D(8,9,10,38)            0.0            estimate D2E/DX2                !
 ! D55   D(13,9,10,11)           0.0            estimate D2E/DX2                !
 ! D56   D(13,9,10,38)         180.0            estimate D2E/DX2                !
 ! D57   D(8,9,13,14)          180.0            estimate D2E/DX2                !
 ! D58   D(8,9,13,16)            0.0            estimate D2E/DX2                !
 ! D59   D(10,9,13,14)           0.0            estimate D2E/DX2                !
 ! D60   D(10,9,13,16)         180.0            estimate D2E/DX2                !
 ! D61   D(9,10,11,12)           0.0            estimate D2E/DX2                !
 ! D62   D(9,10,11,39)         180.0            estimate D2E/DX2                !
 ! D63   D(38,10,11,12)        180.0            estimate D2E/DX2                !
 ! D64   D(38,10,11,39)          0.0            estimate D2E/DX2                !
 ! D65   D(10,11,12,14)          0.0            estimate D2E/DX2                !
 ! D66   D(10,11,12,40)        180.0            estimate D2E/DX2                !
 ! D67   D(39,11,12,14)        180.0            estimate D2E/DX2                !
 ! D68   D(39,11,12,40)          0.0            estimate D2E/DX2                !
 ! D69   D(11,12,14,13)          0.0            estimate D2E/DX2                !
 ! D70   D(11,12,14,15)        180.0            estimate D2E/DX2                !
 ! D71   D(40,12,14,13)        180.0            estimate D2E/DX2                !
 ! D72   D(40,12,14,15)          0.0            estimate D2E/DX2                !
 ! D73   D(9,13,14,12)           0.0            estimate D2E/DX2                !
 ! D74   D(9,13,14,15)         180.0            estimate D2E/DX2                !
 ! D75   D(16,13,14,12)        180.0            estimate D2E/DX2                !
 ! D76   D(16,13,14,15)          0.0            estimate D2E/DX2                !
 ! D77   D(9,13,16,6)            0.0            estimate D2E/DX2                !
 ! D78   D(9,13,16,17)         180.0            estimate D2E/DX2                !
 ! D79   D(14,13,16,6)         180.0            estimate D2E/DX2                !
 ! D80   D(14,13,16,17)          0.0            estimate D2E/DX2                !
 ! D81   D(12,14,15,18)        180.0            estimate D2E/DX2                !
 ! D82   D(12,14,15,41)          0.0            estimate D2E/DX2                !
 ! D83   D(13,14,15,18)          0.0            estimate D2E/DX2                !
 ! D84   D(13,14,15,41)        180.0            estimate D2E/DX2                !
 ! D85   D(14,15,18,17)          0.0            estimate D2E/DX2                !
 ! D86   D(14,15,18,19)        180.0            estimate D2E/DX2                !
 ! D87   D(41,15,18,17)        180.0            estimate D2E/DX2                !
 ! D88   D(41,15,18,19)          0.0            estimate D2E/DX2                !
 ! D89   D(6,16,17,18)         180.0            estimate D2E/DX2                !
 ! D90   D(6,16,17,22)           0.0            estimate D2E/DX2                !
 ! D91   D(13,16,17,18)          0.0            estimate D2E/DX2                !
 ! D92   D(13,16,17,22)        180.0            estimate D2E/DX2                !
 ! D93   D(16,17,18,15)          0.0            estimate D2E/DX2                !
 ! D94   D(16,17,18,19)        180.0            estimate D2E/DX2                !
 ! D95   D(22,17,18,15)        180.0            estimate D2E/DX2                !
 ! D96   D(22,17,18,19)          0.0            estimate D2E/DX2                !
 ! D97   D(16,17,22,4)           0.0            estimate D2E/DX2                !
 ! D98   D(16,17,22,21)        180.0            estimate D2E/DX2                !
 ! D99   D(18,17,22,4)         180.0            estimate D2E/DX2                !
 ! D100  D(18,17,22,21)          0.0            estimate D2E/DX2                !
 ! D101  D(15,18,19,20)        180.0            estimate D2E/DX2                !
 ! D102  D(15,18,19,42)          0.0            estimate D2E/DX2                !
 ! D103  D(17,18,19,20)          0.0            estimate D2E/DX2                !
 ! D104  D(17,18,19,42)        180.0            estimate D2E/DX2                !
 ! D105  D(18,19,20,21)          0.0            estimate D2E/DX2                !
 ! D106  D(18,19,20,43)        180.0            estimate D2E/DX2                !
 ! D107  D(42,19,20,21)        180.0            estimate D2E/DX2                !
 ! D108  D(42,19,20,43)          0.0            estimate D2E/DX2                !
 ! D109  D(19,20,21,3)         180.0            estimate D2E/DX2                !
 ! D110  D(19,20,21,22)          0.0            estimate D2E/DX2                !
 ! D111  D(43,20,21,3)           0.0            estimate D2E/DX2                !
 ! D112  D(43,20,21,22)        180.0            estimate D2E/DX2                !
 ! D113  D(3,21,22,4)            0.0            estimate D2E/DX2                !
 ! D114  D(3,21,22,17)         180.0            estimate D2E/DX2                !
 ! D115  D(20,21,22,4)         180.0            estimate D2E/DX2                !
 ! D116  D(20,21,22,17)          0.0            estimate D2E/DX2                !
 ! D117  D(1,23,24,25)         180.0            estimate D2E/DX2                !
 ! D118  D(1,23,24,44)           0.0            estimate D2E/DX2                !
 ! D119  D(27,23,24,25)          0.0            estimate D2E/DX2                !
 ! D120  D(27,23,24,44)        180.0            estimate D2E/DX2                !
 ! D121  D(1,23,27,28)         180.0            estimate D2E/DX2                !
 ! D122  D(1,23,27,32)           0.0            estimate D2E/DX2                !
 ! D123  D(24,23,27,28)          0.0            estimate D2E/DX2                !
 ! D124  D(24,23,27,32)        180.0            estimate D2E/DX2                !
 ! D125  D(23,24,25,26)          0.0            estimate D2E/DX2                !
 ! D126  D(23,24,25,45)        180.0            estimate D2E/DX2                !
 ! D127  D(44,24,25,26)        180.0            estimate D2E/DX2                !
 ! D128  D(44,24,25,45)          0.0            estimate D2E/DX2                !
 ! D129  D(24,25,26,28)          0.0            estimate D2E/DX2                !
 ! D130  D(24,25,26,46)        180.0            estimate D2E/DX2                !
 ! D131  D(45,25,26,28)        180.0            estimate D2E/DX2                !
 ! D132  D(45,25,26,46)          0.0            estimate D2E/DX2                !
 ! D133  D(25,26,28,27)          0.0            estimate D2E/DX2                !
 ! D134  D(25,26,28,29)        180.0            estimate D2E/DX2                !
 ! D135  D(46,26,28,27)        180.0            estimate D2E/DX2                !
 ! D136  D(46,26,28,29)          0.0            estimate D2E/DX2                !
 ! D137  D(23,27,28,26)          0.0            estimate D2E/DX2                !
 ! D138  D(23,27,28,29)        180.0            estimate D2E/DX2                !
 ! D139  D(32,27,28,26)        180.0            estimate D2E/DX2                !
 ! D140  D(32,27,28,29)          0.0            estimate D2E/DX2                !
 ! D141  D(23,27,32,3)           0.0            estimate D2E/DX2                !
 ! D142  D(23,27,32,31)        180.0            estimate D2E/DX2                !
 ! D143  D(28,27,32,3)         180.0            estimate D2E/DX2                !
 ! D144  D(28,27,32,31)          0.0            estimate D2E/DX2                !
 ! D145  D(26,28,29,30)        180.0            estimate D2E/DX2                !
 ! D146  D(26,28,29,47)          0.0            estimate D2E/DX2                !
 ! D147  D(27,28,29,30)          0.0            estimate D2E/DX2                !
 ! D148  D(27,28,29,47)        180.0            estimate D2E/DX2                !
 ! D149  D(28,29,30,31)          0.0            estimate D2E/DX2                !
 ! D150  D(28,29,30,48)        180.0            estimate D2E/DX2                !
 ! D151  D(47,29,30,31)        180.0            estimate D2E/DX2                !
 ! D152  D(47,29,30,48)          0.0            estimate D2E/DX2                !
 ! D153  D(29,30,31,4)         180.0            estimate D2E/DX2                !
 ! D154  D(29,30,31,32)          0.0            estimate D2E/DX2                !
 ! D155  D(48,30,31,4)           0.0            estimate D2E/DX2                !
 ! D156  D(48,30,31,32)        180.0            estimate D2E/DX2                !
 ! D157  D(4,31,32,3)            0.0            estimate D2E/DX2                !
 ! D158  D(4,31,32,27)         180.0            estimate D2E/DX2                !
 ! D159  D(30,31,32,3)         180.0            estimate D2E/DX2                !
 ! D160  D(30,31,32,27)          0.0            estimate D2E/DX2                !
 --------------------------------------------------------------------------------
 Trust Radius=3.00D-01 FncErr=1.00D-07 GrdErr=1.00D-06
 Number of steps in this run=    288 maximum allowed number of steps=    288.
 GradGradGradGradGradGradGradGradGradGradGradGradGradGradGradGradGradGrad

 Leave Link  103 at Sat Jul 27 11:52:02 2019, MaxMem=  4194304000 cpu:         0.2
 (Enter /home/minenky/programs//g09/l202.exe)
                          Input orientation:                          
 ---------------------------------------------------------------------
 Center     Atomic      Atomic             Coordinates (Angstroms)
 Number     Number       Type             X           Y           Z
 ---------------------------------------------------------------------
      1          6           0        4.318608   -2.259686    0.000000
      2          6           0        2.983618   -2.459877    0.000000
      3          6           0        2.048699   -1.359878    0.000000
      4          6           0        0.287380    0.867292    0.000000
      5          6           0       -0.621800    1.960420    0.000000
      6          6           0       -1.981242    1.759783    0.000000
      7          6           0       -2.915718    2.865710    0.000000
      8          6           0       -4.248294    2.658963    0.000000
      9          6           0       -4.802450    1.322101    0.000000
     10          6           0       -6.170713    1.099220    0.000000
     11          6           0       -6.673850   -0.209765    0.000000
     12          6           0       -5.823370   -1.293647    0.000000
     13          6           0       -3.911942    0.214102    0.000000
     14          6           0       -4.424152   -1.101889    0.000000
     15          6           0       -3.521353   -2.202348    0.000000
     16          6           0       -2.502984    0.426523    0.000000
     17          6           0       -1.627720   -0.666682    0.000000
     18          6           0       -2.162363   -1.998198    0.000000
     19          6           0       -1.232321   -3.105827    0.000000
     20          6           0        0.099393   -2.898302    0.000000
     21          6           0        0.667171   -1.568162    0.000000
     22          6           0       -0.216809   -0.453717    0.000000
     23          6           0        4.868461   -0.926430    0.000000
     24          6           0        6.244784   -0.707553    0.000000
     25          6           0        6.749784    0.591798    0.000000
     26          6           0        5.894583    1.681090    0.000000
     27          6           0        3.981663    0.177565    0.000000
     28          6           0        4.504726    1.488922    0.000000
     29          6           0        3.595734    2.599395    0.000000
     30          6           0        2.255713    2.396538    0.000000
     31          6           0        1.696235    1.074650    0.000000
     32          6           0        2.562113   -0.031845    0.000000
     33          1           0        5.016938   -3.104499    0.000000
     34          1           0        2.562624   -3.477161    0.000000
     35          1           0       -0.206950    2.981190    0.000000
     36          1           0       -2.502024    3.880833    0.000000
     37          1           0       -4.950571    3.500634    0.000000
     38          1           0       -6.865131    1.946964    0.000000
     39          1           0       -7.758092   -0.364582    0.000000
     40          1           0       -6.222925   -2.314080    0.000000
     41          1           0       -3.930429   -3.220213    0.000000
     42          1           0       -1.645643   -4.121100    0.000000
     43          1           0        0.805067   -3.743462    0.000000
     44          1           0        6.931796   -1.561371    0.000000
     45          1           0        7.833494    0.749791    0.000000
     46          1           0        6.298047    2.700003    0.000000
     47          1           0        4.012845    3.612906    0.000000
     48          1           0        1.554629    3.245366    0.000000
 ---------------------------------------------------------------------
                    Distance matrix (angstroms):
                    1          2          3          4          5
     1  C    0.000000
     2  C    1.349916   0.000000
     3  C    2.441750   1.443631   0.000000
     4  C    5.101842   4.282494   2.839460   0.000000
     5  C    6.497455   5.704214   4.260979   1.421807   0.000000
     6  C    7.472900   6.515778   5.096342   2.437865   1.374168
     7  C    8.865955   7.947581   6.519281   3.775382   2.466092
     8  C    9.878508   8.860196   7.470154   4.876722   3.693159
     9  C    9.799128   8.655994   7.357395   5.110110   4.229100
    10  C   11.013996   9.821861   8.579388   6.462257   5.615346
    11  C   11.181964   9.916133   8.798047   7.044060   6.429387
    12  C   10.187882   8.883869   7.872348   6.481584   6.135575
    13  C    8.594276   7.395872   6.164954   4.249819   3.724871
    14  C    8.819089   7.531214   6.477990   5.106486   4.882173
    15  C    7.840170   6.510067   5.633403   4.891742   5.073070
    16  C    7.331428   6.199525   4.889688   2.824961   2.427281
    17  C    6.156011   4.947726   3.741200   2.453709   2.813101
    18  C    6.486244   5.166650   4.259166   3.769917   4.247822
    19  C    5.615048   4.265138   3.716642   4.253841   5.102900
    20  C    4.267271   2.917357   2.483252   3.770284   4.911955
    21  C    3.716342   2.482153   1.397141   2.464889   3.756638
    22  C    4.881755   3.777223   2.440011   1.413956   2.447871
    23  C    1.442190   2.429834   2.852882   4.919730   6.202972
    24  C    2.473716   3.702139   4.246487   6.162045   7.366685
    25  C    3.747210   4.847342   5.090112   6.468273   7.497557
    26  C    4.244222   5.061751   4.902888   5.665951   6.522367
    27  C    2.460432   2.819963   2.469834   3.758118   4.936643
    28  C    3.753226   4.231640   3.761347   4.262913   5.148162
    29  C    4.912558   5.096167   4.250784   3.734352   4.265662
    30  C    5.092736   4.910663   3.762116   2.492574   2.910374
    31  C    4.242009   3.761680   2.459910   1.424033   2.481506
    32  C    2.836997   2.464347   1.423821   2.445988   3.755851
    33  H    1.096072   2.133056   3.442985   6.176070   7.579496
    34  H    2.136755   1.100956   2.178762   4.904183   6.301416
    35  H    6.924410   6.307530   4.892118   2.170927   1.101850
    36  H    9.177527   8.384323   6.940759   4.106361   2.687607
    37  H   10.913247   9.923661   8.521406   5.862646   4.594619
    38  H   11.948721  10.789723   9.507448   7.233541   6.243346
    39  H   12.224488  10.944158   9.857168   8.139234   7.505485
    40  H   10.541673   9.207697   8.326479   7.246047   7.045846
    41  H    8.304770   6.955728   6.261854   5.873467   6.147030
    42  H    6.247971   4.918305   4.612213   5.349826   6.167102
    43  H    3.813995   2.528572   2.688511   4.639726   5.879644
    44  H    2.704884   4.049126   4.887252   7.074367   8.334256
    45  H    4.627244   5.815777   6.157480   7.547029   8.541523
    46  H    5.340103   6.132683   5.877040   6.283864   6.959257
    47  H    5.880547   6.159383   5.346630   4.627903   4.920431
    48  H    6.159965   5.881479   4.631671   2.694653   2.527435
                    6          7          8          9         10
     6  C    0.000000
     7  C    1.447867   0.000000
     8  C    2.438862   1.348519   0.000000
     9  C    2.854958   2.437721   1.447165   0.000000
    10  C    4.241228   3.703442   2.475580   1.386297   0.000000
    11  C    5.089174   4.856141   3.756717   2.418419   1.402350
    12  C    4.907686   5.074908   4.254878   2.807920   2.417945
    13  C    2.473203   2.832576   2.467889   1.421502   2.426001
    14  C    3.762575   4.244668   3.764961   2.453332   2.809868
    15  C    4.250932   5.104116   4.915362   3.750060   4.233138
    16  C    1.431711   2.473859   2.833707   2.467713   3.728909
    17  C    2.452083   3.759884   4.234067   3.746221   4.874136
    18  C    3.762343   4.921904   5.102965   4.241986   5.065656
    19  C    4.922910   6.204278   6.506065   5.687914   6.486149
    20  C    5.101647   6.504977   7.055890   6.468375   7.436022
    21  C    4.253152   5.700553   6.483083   6.186305   7.339726
    22  C    2.830690   4.278166   5.093294   4.917483   6.153096
    23  C    7.357593   8.658740   9.796442   9.928868  11.223486
    24  C    8.588087   9.832751  11.019896  11.232136  12.546274
    25  C    8.808802   9.929380  11.190660  11.575295  12.930457
    26  C    7.876218   8.889585  10.189906  10.703056  12.079320
    27  C    6.169250   7.402702   8.595902   8.858364  10.194126
    28  C    6.491621   7.547088   8.830875   9.308671  10.682550
    29  C    5.639823   6.516895   7.844254   8.494761   9.880993
    30  C    4.284535   5.192670   6.509299   7.139474   8.525708
    31  C    3.740754   4.947525   6.152030   6.503395   7.866987
    32  C    4.883851   6.196971   7.322710   7.487988   8.805769
    33  H    8.522661   9.928264  10.911554  10.771034  11.951351
    34  H    6.933419   8.381184   9.167367   8.790748   9.859739
    35  H    2.154054   2.711229   4.054170   4.885816   6.253662
    36  H    2.184048   1.096183   2.131296   3.440794   4.603982
    37  H    3.442017   2.131609   1.096177   2.183562   2.693611
    38  H    4.887476   4.054869   2.711970   2.155251   1.095850
    39  H    6.155073   5.820942   4.632548   3.403045   2.159279
    40  H    5.881176   6.145554   5.350731   3.903788   3.413699
    41  H    5.347868   6.169935   5.887762   4.625261   4.865837
    42  H    5.890451   7.101310   7.262441   6.292367   6.908546
    43  H    6.168405   7.584550   8.156439   7.556731   8.491942
    44  H    9.511693  10.796878  11.950131  12.083333  13.369910
    45  H    9.866566  10.955486  12.231702  12.648899  14.008566
    46  H    8.332505   9.215255  10.546421  11.185690  12.571098
    47  H    6.274005   6.968736   8.316034   9.108085  10.489208
    48  H    3.835276   4.486440   5.832477   6.641642   8.017909
                   11         12         13         14         15
    11  C    0.000000
    12  C    1.377721   0.000000
    13  C    2.794244   2.434515   0.000000
    14  C    2.420130   1.412297   1.412158   0.000000
    15  C    3.729427   2.474878   2.447813   1.423396   0.000000
    16  C    4.219122   3.739512   1.424881   2.454980   2.819227
    17  C    5.066774   4.242236   2.448153   2.830094   2.438055
    18  C    4.853041   3.728185   2.820514   2.432911   1.374238
    19  C    6.164204   4.935760   4.266415   3.768759   2.460882
    20  C    7.287322   6.136289   5.077192   4.867192   3.687025
    21  C    7.465643   6.496343   4.913730   5.112629   4.236263
    22  C    6.461648   5.669127   3.754995   4.256977   3.738679
    23  C   11.564539  10.698136   8.854169   9.294269   8.486280
    24  C   12.928221  12.082377  10.198457  10.676220   9.879870
    25  C   13.447544  12.713736  10.668414  11.301566  10.644411
    26  C   12.709872  12.089644   9.915644  10.687435  10.185330
    27  C   10.662551   9.914794   7.893690   8.502630   7.871419
    28  C   11.306905  10.696366   8.512665   9.297158   8.834218
    29  C   10.646865  10.191923   7.877488   8.832783   8.585433
    30  C    9.302146   8.881951   6.542400   7.540529   7.384053
    31  C    8.468060   7.883736   5.673816   6.495879   6.161326
    32  C    9.237677   8.479886   6.478725   7.067736   6.459074
    33  H   12.043837  10.990517   9.525651   9.651146   8.585819
    34  H    9.797364   8.665601   7.452881   7.379496   6.216102
    35  H    7.211310   7.058216   4.624256   5.869951   6.152587
    36  H    5.842698   6.148705   3.928458   5.340607   6.167991
    37  H    4.091058   4.873080   3.446743   4.632530   5.879342
    38  H    2.165195   3.403942   3.424053   3.905622   5.328944
    39  H    1.095239   2.146232   3.889440   3.414496   4.618154
    40  H    2.152087   1.095869   3.425251   2.169100   2.703881
    41  H    4.072979   2.700904   3.434365   2.175100   1.096993
    42  H    6.370354   5.044591   4.891840   4.103139   2.683263
    43  H    8.271712   7.066667   6.157312   5.858553   4.592706
    44  H   13.672617  12.757975  10.988128  11.365239  10.472782
    45  H   14.539044  13.808895  11.757646  12.396717  11.732335
    46  H   13.294242  12.762366  10.508263  11.376288  10.975138
    47  H   11.349814  10.992060   8.622884   9.664999   9.517422
    48  H    8.924450   8.662419   6.250757   7.392188   7.446017
                   16         17         18         19         20
    16  C    0.000000
    17  C    1.400423   0.000000
    18  C    2.448529   1.434844   0.000000
    19  C    3.753942   2.470985   1.446312   0.000000
    20  C    4.222183   2.821888   2.434282   1.347787   0.000000
    21  C    3.745483   2.465601   2.862026   2.443867   1.446252
    22  C    2.449779   1.426893   2.484070   2.839886   2.464951
    23  C    7.494577   6.501372   7.112045   6.478373   5.160648
    24  C    8.820973   7.872610   8.505638   7.852313   6.524201
    25  C    9.254243   8.471502   9.280864   8.796956   7.510559
    26  C    8.490764   7.880170   8.857288   8.585298   7.386140
    27  C    6.489424   5.672560   6.517899   6.161680   4.953078
    28  C    7.087784   6.500271   7.523967   7.350199   6.217290
    29  C    6.474235   6.160497   7.368415   7.473933   6.515295
    30  C    5.150355   4.946147   6.231621   6.514783   5.717084
    31  C    4.248942   3.752454   4.932664   5.104197   4.281852
    32  C    5.085795   4.237655   5.117345   4.883349   3.779096
    33  H    8.307668   7.077742   7.264040   6.249260   4.921866
    34  H    6.395243   5.045570   4.951044   3.813070   2.530333
    35  H    3.434835   3.914787   5.349574   6.172776   5.887468
    36  H    3.454309   4.630799   5.888834   7.101095   7.261133
    37  H    3.929483   5.329902   6.165327   7.580943   8.151596
    38  H    4.619532   5.853343   6.138431   7.566984   8.484174
    39  H    5.314321   6.137811   5.829312   7.078143   8.255896
    40  H    4.620484   4.881580   4.072830   5.053017   6.349253
    41  H    3.916157   3.438457   2.149274   2.700531   4.042659
    42  H    4.627733   3.454465   2.184883   1.096182   2.130818
    43  H    5.322779   3.922376   3.442614   2.134838   1.101032
    44  H    9.641929   8.606148   9.104644   8.308920   6.961976
    45  H   10.341532   9.566659  10.366707   9.851640   8.551310
    46  H    9.089931   8.611176   9.677377   9.508633   8.352504
    47  H    7.253210   7.080314   8.343721   8.523681   7.596772
    48  H    4.940657   5.042962   6.427363   6.935758   6.313665
                   21         22         23         24         25
    21  C    0.000000
    22  C    1.422465   0.000000
    23  C    4.250019   5.107194   0.000000
    24  C    5.643617   6.466577   1.393617   0.000000
    25  C    6.454735   7.044609   2.417517   1.394037   0.000000
    26  C    6.154956   6.473525   2.802158   2.414178   1.384891
    27  C    3.746121   4.245667   1.416056   2.430051   2.798942
    28  C    4.906383   5.105560   2.442586   2.802196   2.417667
    29  C    5.093625   4.884360   3.748504   4.237142   3.738780
    30  C    4.271102   3.773237   4.227123   5.054509   4.842907
    31  C    2.836094   2.448600   3.750646   4.885237   5.076564
    32  C    2.439483   2.810762   2.473767   3.744148   4.233853
    33  H    4.613113   5.866750   2.183123   2.693131   4.082323
    34  H    2.690172   4.106880   3.438475   4.607497   5.838556
    35  H    4.632568   3.434921   6.405411   7.431802   7.355632
    36  H    6.303597   4.900054   8.799650   9.877243   9.819048
    37  H    7.566486   6.168094  10.770900  11.960134  12.056518
    38  H    8.312141   7.068483  12.080298  13.375961  13.682192
    39  H    8.510796   7.541810  12.639048  14.007075  14.539364
    40  H    6.930354   6.287637  11.177854  12.570787  13.294182
    41  H    4.885406   4.630817   9.092959  10.480859  11.340122
    42  H    3.444793   3.935895   7.255307   8.597158   9.627803
    43  H    2.179667   3.444801   4.944375   6.229547   7.357590
    44  H    6.264629   7.233910   2.158819   1.095898   2.160849
    45  H    7.531872   8.139768   3.406044   2.155888   1.095167
    46  H    7.065692   7.238045   3.898042   3.407972   2.156059
    47  H    6.167415   5.867487   4.619270   4.862912   4.076509
    48  H    4.894653   4.101366   5.327791   6.133768   5.833613
                   26         27         28         29         30
    26  C    0.000000
    27  C    2.433074   0.000000
    28  C    1.403080   1.411826   0.000000
    29  C    2.475479   2.452388   1.435067   0.000000
    30  C    3.708536   2.811182   2.425248   1.355288   0.000000
    31  C    4.241922   2.455187   2.838881   2.435763   1.435411
    32  C    3.746933   1.434913   2.467078   2.826976   2.447636
    33  H    4.865400   3.441473   4.621891   5.878284   6.155141
    34  H    6.140807   3.920547   5.332329   6.163753   5.881712
    35  H    6.238507   5.040317   4.942343   3.821801   2.531112
    36  H    8.679971   7.466753   7.403769   6.230950   4.983894
    37  H   10.996732   9.530351   9.666935   8.593692   7.290374
    38  H   12.762485  10.990165  11.379080  10.481191   9.131918
    39  H   13.805083  11.752267  12.402104  11.734331  10.387496
    40  H   12.759129  10.504376  11.381797  10.979448   9.699341
    41  H   10.979692   8.610813   9.660631   9.513725   8.355611
    42  H    9.514222   7.081320   8.324625   8.522739   7.596064
    43  H    7.438343   5.046307   6.408222   6.929622   6.309039
    44  H    3.404316   3.424497   3.898071   5.333038   6.126238
    45  H    2.150975   3.894104   3.409840   4.623813   5.815790
    46  H    1.095886   3.424665   2.163959   2.704186   4.053709
    47  H    2.696822   3.435483   2.180196   1.095987   2.137069
    48  H    4.613259   3.911764   3.433390   2.140884   1.100921
                   31         32         33         34         35
    31  C    0.000000
    32  C    1.405018   0.000000
    33  H    5.337823   3.932857   0.000000
    34  H    4.633531   3.445316   2.482445   0.000000
    35  H    2.693883   4.092198   8.020262   7.027150   0.000000
    36  H    5.049757   6.399573  10.263024   8.932566   2.465102
    37  H    7.075693   8.301736  11.957383  10.253669   4.771977
    38  H    8.605692   9.632685  12.911268  10.876751   6.738027
    39  H    9.563247  10.325568  13.065548  10.779858   8.259173
    40  H    8.613744   9.076645  11.267621   8.862202   8.014477
    41  H    7.078502   7.233173   8.948115   6.498135   7.233374
    42  H    6.177699   5.867471   6.739693   4.257249   7.246542
    43  H    4.899835   4.106496   4.260062   1.777617   6.800377
    44  H    5.861715   4.629641   2.459252   4.770735   8.461474
    45  H    6.145851   5.329016   4.773734   6.756419   8.344332
    46  H    4.880415   4.628196   5.944197   7.218777   6.511071
    47  H    3.436485   3.922860   6.792034   7.236863   4.266818
    48  H    2.175330   3.428576   7.232452   6.797677   1.781277
                   36         37         38         39         40
    36  H    0.000000
    37  H    2.477888   0.000000
    38  H    4.772479   2.465651   0.000000
    39  H    6.756463   4.777245   2.478028   0.000000
    40  H    7.226482   5.952292   4.309168   2.481387   0.000000
    41  H    7.243286   6.797829   5.942407   4.775525   2.465079
    42  H    8.047628   8.307429   8.004028   7.174501   4.921060
    43  H    8.310639   9.252259   9.550544   9.205679   7.171876
    44  H   10.891031  12.915670  14.235997  14.738559  13.176238
    45  H   10.799369  13.076676  14.747299  15.631359  14.386460
    46  H    8.878942  11.277075  13.184701  14.386338  13.487615
    47  H    6.520377   8.964119  11.004805  12.424789  11.827939
    48  H    4.106125   6.510207   8.519285   9.987918   9.560219
                   41         42         43         44         45
    41  H    0.000000
    42  H    2.455981   0.000000
    43  H    4.764317   2.479635   0.000000
    44  H   10.988161   8.951238   6.503716   0.000000
    45  H   12.415749  10.657374   8.341949   2.480833   0.000000
    46  H   11.818235  10.470418   8.467058   4.308242   2.482121
    47  H   10.477935   9.582972   8.025334   5.940827   4.774388
    48  H    8.478772   8.031598   7.028909   7.212395   6.756629
                   46         47         48
    46  H    0.000000
    47  H    2.460801   0.000000
    48  H    4.774666   2.485540   0.000000
 Stoichiometry    C32H16
 Framework group  CS[SG(C32H16)]
 Deg. of freedom    93
 Full point group                 CS      NOp   2
 Largest Abelian subgroup         CS      NOp   2
 Largest concise Abelian subgroup C1      NOp   1
                         Standard orientation:                         
 ---------------------------------------------------------------------
 Center     Atomic      Atomic             Coordinates (Angstroms)
 Number     Number       Type             X           Y           Z
 ---------------------------------------------------------------------
      1          6           0       -4.870019    0.167054    0.000000
      2          6           0       -3.753717    0.926093    0.000000
      3          6           0       -2.434404    0.340018    0.000000
      4          6           0        0.118204   -0.903657    0.000000
      5          6           0        1.411342   -1.494697    0.000000
      6          6           0        2.549488   -0.724657    0.000000
      7          6           0        3.870971   -1.316266    0.000000
      8          6           0        4.982257   -0.552364    0.000000
      9          6           0        4.902212    0.892586    0.000000
     10          6           0        6.038665    1.686497    0.000000
     11          6           0        5.924725    3.084211    0.000000
     12          6           0        4.688493    3.692361    0.000000
     13          6           0        3.619454    1.505121    0.000000
     14          6           0        3.510653    2.913081    0.000000
     15          6           0        2.220087    3.513494    0.000000
     16          6           0        2.441793    0.702998    0.000000
     17          6           0        1.179185    1.308808    0.000000
     18          6           0        1.083872    2.740483    0.000000
     19          6           0       -0.234353    3.335549    0.000000
     20          6           0       -1.344526    2.571319    0.000000
     21          6           0       -1.279669    1.126522    0.000000
     22          6           0        0.000000    0.505349    0.000000
     23          6           0       -4.787659   -1.272783    0.000000
     24          6           0       -5.933111   -2.066578    0.000000
     25          6           0       -5.825025   -3.456418    0.000000
     26          6           0       -4.582194   -4.067398    0.000000
     27          6           0       -3.509980   -1.883317    0.000000
     28          6           0       -3.412969   -3.291806    0.000000
     29          6           0       -2.112480   -3.898558    0.000000
     30          6           0       -0.992800   -3.134935    0.000000
     31          6           0       -1.061559   -1.701172    0.000000
     32          6           0       -2.321469   -1.079317    0.000000
     33          1           0       -5.865515    0.625705    0.000000
     34          1           0       -3.815250    2.025328    0.000000
     35          1           0        1.479923   -2.594410    0.000000
     36          1           0        3.938147   -2.410389    0.000000
     37          1           0        5.979948   -1.006474    0.000000
     38          1           0        7.031906    1.223507    0.000000
     39          1           0        6.834724    3.693678    0.000000
     40          1           0        4.606274    4.785141    0.000000
     41          1           0        2.147562    4.608086    0.000000
     42          1           0       -0.301929    4.429646    0.000000
     43          1           0       -2.346790    3.027101    0.000000
     44          1           0       -6.922311   -1.594905    0.000000
     45          1           0       -6.733169   -4.068517    0.000000
     46          1           0       -4.504158   -5.160502    0.000000
     47          1           0       -2.049084   -4.992710    0.000000
     48          1           0        0.006918   -3.596011    0.000000
 ---------------------------------------------------------------------
 Rotational constants (GHZ):      0.4030197      0.0834027      0.0691023
 Leave Link  202 at Sat Jul 27 11:52:02 2019, MaxMem=  4194304000 cpu:         0.8
 (Enter /home/minenky/programs//g09/l301.exe)
 Standard basis: def2TZVP (5D, 7F)
 ======================================================================================================
                                       Pseudopotential Parameters
 ======================================================================================================
  Center     Atomic      Valence      Angular      Power
  Number     Number     Electrons     Momentum     of R      Exponent        Coefficient   SO-Coeffient
 ======================================================================================================
    1          6
                                   No pseudopotential on this center.
    2          6
                                   No pseudopotential on this center.
    3          6
                                   No pseudopotential on this center.
    4          6
                                   No pseudopotential on this center.
    5          6
                                   No pseudopotential on this center.
    6          6
                                   No pseudopotential on this center.
    7          6
                                   No pseudopotential on this center.
    8          6
                                   No pseudopotential on this center.
    9          6
                                   No pseudopotential on this center.
   10          6
                                   No pseudopotential on this center.
   11          6
                                   No pseudopotential on this center.
   12          6
                                   No pseudopotential on this center.
   13          6
                                   No pseudopotential on this center.
   14          6
                                   No pseudopotential on this center.
   15          6
                                   No pseudopotential on this center.
   16          6
                                   No pseudopotential on this center.
   17          6
                                   No pseudopotential on this center.
   18          6
                                   No pseudopotential on this center.
   19          6
                                   No pseudopotential on this center.
   20          6
                                   No pseudopotential on this center.
   21          6
                                   No pseudopotential on this center.
   22          6
                                   No pseudopotential on this center.
   23          6
                                   No pseudopotential on this center.
   24          6
                                   No pseudopotential on this center.
   25          6
                                   No pseudopotential on this center.
   26          6
                                   No pseudopotential on this center.
   27          6
                                   No pseudopotential on this center.
   28          6
                                   No pseudopotential on this center.
   29          6
                                   No pseudopotential on this center.
   30          6
                                   No pseudopotential on this center.
   31          6
                                   No pseudopotential on this center.
   32          6
                                   No pseudopotential on this center.
   33          1
                                   No pseudopotential on this center.
   34          1
                                   No pseudopotential on this center.
   35          1
                                   No pseudopotential on this center.
   36          1
                                   No pseudopotential on this center.
   37          1
                                   No pseudopotential on this center.
   38          1
                                   No pseudopotential on this center.
   39          1
                                   No pseudopotential on this center.
   40          1
                                   No pseudopotential on this center.
   41          1
                                   No pseudopotential on this center.
   42          1
                                   No pseudopotential on this center.
   43          1
                                   No pseudopotential on this center.
   44          1
                                   No pseudopotential on this center.
   45          1
                                   No pseudopotential on this center.
   46          1
                                   No pseudopotential on this center.
   47          1
                                   No pseudopotential on this center.
   48          1
                                   No pseudopotential on this center.
 ======================================================================================================
 Ernie: Thresh=  0.10000D-02 Tol=  0.10000D-05 Strict=F.
 AO basis set (Overlap normalization):
 Atom C1       Shell     1 S   6     bf    1 -     1         -9.203002882201          0.315685473141          0.000000000000
      0.1357534968D+05  0.6064550360D-03
      0.2035233368D+04  0.4697908888D-02
      0.4632256236D+03  0.2433247765D-01
      0.1312001960D+03  0.9739996831D-01
      0.4285301589D+02  0.3019558425D+00
      0.1558418577D+02  0.6623360914D+00
 Atom C1       Shell     2 S   2     bf    2 -     2         -9.203002882201          0.315685473141          0.000000000000
      0.6206713851D+01  0.6559530854D+00
      0.2576489653D+01  0.3758563329D+00
 Atom C1       Shell     3 S   1     bf    3 -     3         -9.203002882201          0.315685473141          0.000000000000
      0.5769633942D+00  0.1000000000D+01
 Atom C1       Shell     4 S   1     bf    4 -     4         -9.203002882201          0.315685473141          0.000000000000
      0.2297283136D+00  0.1000000000D+01
 Atom C1       Shell     5 S   1     bf    5 -     5         -9.203002882201          0.315685473141          0.000000000000
      0.9516444003D-01  0.1000000000D+01
 Atom C1       Shell     6 P   4     bf    6 -     8         -9.203002882201          0.315685473141          0.000000000000
      0.3469723224D+02  0.1132722000D-01
      0.7958262283D+01  0.7616965920D-01
      0.2378082688D+01  0.3019225220D+00
      0.8143320818D+00  0.7278502735D+00
 Atom C1       Shell     7 P   1     bf    9 -    11         -9.203002882201          0.315685473141          0.000000000000
      0.2888754725D+00  0.1000000000D+01
 Atom C1       Shell     8 P   1     bf   12 -    14         -9.203002882201          0.315685473141          0.000000000000
      0.1005682367D+00  0.1000000000D+01
 Atom C1       Shell     9 D   1     bf   15 -    19         -9.203002882201          0.315685473141          0.000000000000
      0.1097000000D+01  0.1000000000D+01
 Atom C1       Shell    10 D   1     bf   20 -    24         -9.203002882201          0.315685473141          0.000000000000
      0.3180000000D+00  0.1000000000D+01
 Atom C1       Shell    11 F   1     bf   25 -    31         -9.203002882201          0.315685473141          0.000000000000
      0.7610000000D+00  0.1000000000D+01
 Atom C2       Shell    12 S   6     bf   32 -    32         -7.093496461109          1.750062210877          0.000000000000
      0.1357534968D+05  0.6064550360D-03
      0.2035233368D+04  0.4697908888D-02
      0.4632256236D+03  0.2433247765D-01
      0.1312001960D+03  0.9739996831D-01
      0.4285301589D+02  0.3019558425D+00
      0.1558418577D+02  0.6623360914D+00
 Atom C2       Shell    13 S   2     bf   33 -    33         -7.093496461109          1.750062210877          0.000000000000
      0.6206713851D+01  0.6559530854D+00
      0.2576489653D+01  0.3758563329D+00
 Atom C2       Shell    14 S   1     bf   34 -    34         -7.093496461109          1.750062210877          0.000000000000
      0.5769633942D+00  0.1000000000D+01
 Atom C2       Shell    15 S   1     bf   35 -    35         -7.093496461109          1.750062210877          0.000000000000
      0.2297283136D+00  0.1000000000D+01
 Atom C2       Shell    16 S   1     bf   36 -    36         -7.093496461109          1.750062210877          0.000000000000
      0.9516444003D-01  0.1000000000D+01
 Atom C2       Shell    17 P   4     bf   37 -    39         -7.093496461109          1.750062210877          0.000000000000
      0.3469723224D+02  0.1132722000D-01
      0.7958262283D+01  0.7616965920D-01
      0.2378082688D+01  0.3019225220D+00
      0.8143320818D+00  0.7278502735D+00
 Atom C2       Shell    18 P   1     bf   40 -    42         -7.093496461109          1.750062210877          0.000000000000
      0.2888754725D+00  0.1000000000D+01
 Atom C2       Shell    19 P   1     bf   43 -    45         -7.093496461109          1.750062210877          0.000000000000
      0.1005682367D+00  0.1000000000D+01
 Atom C2       Shell    20 D   1     bf   46 -    50         -7.093496461109          1.750062210877          0.000000000000
      0.1097000000D+01  0.1000000000D+01
 Atom C2       Shell    21 D   1     bf   51 -    55         -7.093496461109          1.750062210877          0.000000000000
      0.3180000000D+00  0.1000000000D+01
 Atom C2       Shell    22 F   1     bf   56 -    62         -7.093496461109          1.750062210877          0.000000000000
      0.7610000000D+00  0.1000000000D+01
 Atom C3       Shell    23 S   6     bf   63 -    63         -4.600356068159          0.642540329374          0.000000000000
      0.1357534968D+05  0.6064550360D-03
      0.2035233368D+04  0.4697908888D-02
      0.4632256236D+03  0.2433247765D-01
      0.1312001960D+03  0.9739996831D-01
      0.4285301589D+02  0.3019558425D+00
      0.1558418577D+02  0.6623360914D+00
 Atom C3       Shell    24 S   2     bf   64 -    64         -4.600356068159          0.642540329374          0.000000000000
      0.6206713851D+01  0.6559530854D+00
      0.2576489653D+01  0.3758563329D+00
 Atom C3       Shell    25 S   1     bf   65 -    65         -4.600356068159          0.642540329374          0.000000000000
      0.5769633942D+00  0.1000000000D+01
 Atom C3       Shell    26 S   1     bf   66 -    66         -4.600356068159          0.642540329374          0.000000000000
      0.2297283136D+00  0.1000000000D+01
 Atom C3       Shell    27 S   1     bf   67 -    67         -4.600356068159          0.642540329374          0.000000000000
      0.9516444003D-01  0.1000000000D+01
 Atom C3       Shell    28 P   4     bf   68 -    70         -4.600356068159          0.642540329374          0.000000000000
      0.3469723224D+02  0.1132722000D-01
      0.7958262283D+01  0.7616965920D-01
      0.2378082688D+01  0.3019225220D+00
      0.8143320818D+00  0.7278502735D+00
 Atom C3       Shell    29 P   1     bf   71 -    73         -4.600356068159          0.642540329374          0.000000000000
      0.2888754725D+00  0.1000000000D+01
 Atom C3       Shell    30 P   1     bf   74 -    76         -4.600356068159          0.642540329374          0.000000000000
      0.1005682367D+00  0.1000000000D+01
 Atom C3       Shell    31 D   1     bf   77 -    81         -4.600356068159          0.642540329374          0.000000000000
      0.1097000000D+01  0.1000000000D+01
 Atom C3       Shell    32 D   1     bf   82 -    86         -4.600356068159          0.642540329374          0.000000000000
      0.3180000000D+00  0.1000000000D+01
 Atom C3       Shell    33 F   1     bf   87 -    93         -4.600356068159          0.642540329374          0.000000000000
      0.7610000000D+00  0.1000000000D+01
 Atom C4       Shell    34 S   6     bf   94 -    94          0.223372811032         -1.707665161023          0.000000000000
      0.1357534968D+05  0.6064550360D-03
      0.2035233368D+04  0.4697908888D-02
      0.4632256236D+03  0.2433247765D-01
      0.1312001960D+03  0.9739996831D-01
      0.4285301589D+02  0.3019558425D+00
      0.1558418577D+02  0.6623360914D+00
 Atom C4       Shell    35 S   2     bf   95 -    95          0.223372811032         -1.707665161023          0.000000000000
      0.6206713851D+01  0.6559530854D+00
      0.2576489653D+01  0.3758563329D+00
 Atom C4       Shell    36 S   1     bf   96 -    96          0.223372811032         -1.707665161023          0.000000000000
      0.5769633942D+00  0.1000000000D+01
 Atom C4       Shell    37 S   1     bf   97 -    97          0.223372811032         -1.707665161023          0.000000000000
      0.2297283136D+00  0.1000000000D+01
 Atom C4       Shell    38 S   1     bf   98 -    98          0.223372811032         -1.707665161023          0.000000000000
      0.9516444003D-01  0.1000000000D+01
 Atom C4       Shell    39 P   4     bf   99 -   101          0.223372811032         -1.707665161023          0.000000000000
      0.3469723224D+02  0.1132722000D-01
      0.7958262283D+01  0.7616965920D-01
      0.2378082688D+01  0.3019225220D+00
      0.8143320818D+00  0.7278502735D+00
 Atom C4       Shell    40 P   1     bf  102 -   104          0.223372811032         -1.707665161023          0.000000000000
      0.2888754725D+00  0.1000000000D+01
 Atom C4       Shell    41 P   1     bf  105 -   107          0.223372811032         -1.707665161023          0.000000000000
      0.1005682367D+00  0.1000000000D+01
 Atom C4       Shell    42 D   1     bf  108 -   112          0.223372811032         -1.707665161023          0.000000000000
      0.1097000000D+01  0.1000000000D+01
 Atom C4       Shell    43 D   1     bf  113 -   117          0.223372811032         -1.707665161023          0.000000000000
      0.3180000000D+00  0.1000000000D+01
 Atom C4       Shell    44 F   1     bf  118 -   124          0.223372811032         -1.707665161023          0.000000000000
      0.7610000000D+00  0.1000000000D+01
 Atom C5       Shell    45 S   6     bf  125 -   125          2.667050482821         -2.824567932635          0.000000000000
      0.1357534968D+05  0.6064550360D-03
      0.2035233368D+04  0.4697908888D-02
      0.4632256236D+03  0.2433247765D-01
      0.1312001960D+03  0.9739996831D-01
      0.4285301589D+02  0.3019558425D+00
      0.1558418577D+02  0.6623360914D+00
 Atom C5       Shell    46 S   2     bf  126 -   126          2.667050482821         -2.824567932635          0.000000000000
      0.6206713851D+01  0.6559530854D+00
      0.2576489653D+01  0.3758563329D+00
 Atom C5       Shell    47 S   1     bf  127 -   127          2.667050482821         -2.824567932635          0.000000000000
      0.5769633942D+00  0.1000000000D+01
 Atom C5       Shell    48 S   1     bf  128 -   128          2.667050482821         -2.824567932635          0.000000000000
      0.2297283136D+00  0.1000000000D+01
 Atom C5       Shell    49 S   1     bf  129 -   129          2.667050482821         -2.824567932635          0.000000000000
      0.9516444003D-01  0.1000000000D+01
 Atom C5       Shell    50 P   4     bf  130 -   132          2.667050482821         -2.824567932635          0.000000000000
      0.3469723224D+02  0.1132722000D-01
      0.7958262283D+01  0.7616965920D-01
      0.2378082688D+01  0.3019225220D+00
      0.8143320818D+00  0.7278502735D+00
 Atom C5       Shell    51 P   1     bf  133 -   135          2.667050482821         -2.824567932635          0.000000000000
      0.2888754725D+00  0.1000000000D+01
 Atom C5       Shell    52 P   1     bf  136 -   138          2.667050482821         -2.824567932635          0.000000000000
      0.1005682367D+00  0.1000000000D+01
 Atom C5       Shell    53 D   1     bf  139 -   143          2.667050482821         -2.824567932635          0.000000000000
      0.1097000000D+01  0.1000000000D+01
 Atom C5       Shell    54 D   1     bf  144 -   148          2.667050482821         -2.824567932635          0.000000000000
      0.3180000000D+00  0.1000000000D+01
 Atom C5       Shell    55 F   1     bf  149 -   155          2.667050482821         -2.824567932635          0.000000000000
      0.7610000000D+00  0.1000000000D+01
 Atom C6       Shell    56 S   6     bf  156 -   156          4.817834017648         -1.369402684034          0.000000000000
      0.1357534968D+05  0.6064550360D-03
      0.2035233368D+04  0.4697908888D-02
      0.4632256236D+03  0.2433247765D-01
      0.1312001960D+03  0.9739996831D-01
      0.4285301589D+02  0.3019558425D+00
      0.1558418577D+02  0.6623360914D+00
[...]
 0150796,0.00031239,0.,0.00145033,-0.00055542,0.,-0.00038552,-0.0003504
 6,0.,0.00000224,0.00007029,0.,0.00000670,0.00004298,0.,0.00002286,-0.0
 0001760,0.,0.00001828,-0.00003782,0.,-0.00002468,0.00002573,0.,0.00002
 156,0.00002273,0.,0.00000466,0.00002784,0.,-0.00008148,-0.00004711,0.,
 -0.00004679,0.00003326,0.,0.00005524,0.00020821,0.,0.00014574,0.000000
 63,0.,-0.00069962,0.00015397,0.,-0.00175601,0.00084899,0.,-0.00514091,
 0.00696473,0.,0.13907273,-0.24427525,0.,0.01890420,-0.01729909,0.,-0.0
 0390705,-0.00334926,0.,0.00012908,-0.00005372,0.,-0.00003867,0.0001708
 5,0.,0.00003171,-0.00000946,0.,-0.00002434,0.00008213,0.,0.00016541,0.
 00004199,0.,0.00001946,-0.00013673,0.,-0.00003457,-0.00009126,0.,-0.00
 007819,0.00016719,0.,0.00002254,0.00001697,0.,-0.00011416,-0.00008408,
 0.,-0.00000519,-0.00001889,0.,-0.00079486,0.00211052,0.,0.00010217,-0.
 00012680,0.,-0.00000346,-0.00000040,0.,0.00000717,0.00000103,0.,0.0000
 0269,-0.00000172,0.,-0.00000112,0.00000325,0.,0.00000549,0.00000290,0.
 ,0.00001251,-0.00000706,0.,-0.00002222,0.00110945,0.,-0.14905261,0.253
 99768,0.,0.,0.00007897,0.,0.,-0.00110646,0.,0.,-0.00061035,0.,0.,0.000
 64964,0.,0.,-0.00021491,0.,0.,0.00008021,0.,0.,0.00001348,0.,0.,-0.000
 01288,0.,0.,0.00008204,0.,0.,-0.00002392,0.,0.,0.00011535,0.,0.,-0.000
 05120,0.,0.,0.00011244,0.,0.,-0.00112140,0.,0.,0.00000948,0.,0.,-0.000
 56938,0.,0.,-0.00068497,0.,0.,0.01130723,0.,0.,0.00438555,0.,0.,-0.035
 63755,0.,0.,0.00136062,0.,0.,0.00321200,0.,0.,-0.00000223,0.,0.,0.0000
 2867,0.,0.,-0.00001674,0.,0.,0.00000492,0.,0.,0.00006703,0.,0.,0.00000
 146,0.,0.,-0.00003356,0.,0.,0.00017683,0.,0.,-0.00042660,0.,0.,-0.0001
 2184,0.,0.,-0.00005199,0.,0.,0.00205934,0.,0.,-0.00000834,0.,0.,0.0000
 0766,0.,0.,0.00000006,0.,0.,-0.00001119,0.,0.,0.00000792,0.,0.,-0.0000
 2192,0.,0.,0.00034409,0.,0.,-0.00617793,0.,0.,0.02281973,0.00120343,0.
 00196277,0.,0.00016952,-0.00043555,0.,0.00004466,0.00013958,0.,-0.0001
 2545,0.00013465,0.,-0.00001432,-0.00005987,0.,-0.00003716,-0.00001508,
 0.,0.00000338,-0.00001028,0.,-0.00001120,-0.00000456,0.,0.00001550,0.0
 0000385,0.,-0.00001251,-0.00001715,0.,-0.00001010,0.00001802,0.,0.0000
 2175,-0.00000479,0.,-0.00000650,-0.00000385,0.,-0.00002967,0.00001691,
 0.,0.00002992,-0.00001217,0.,0.00000131,0.00002045,0.,0.00003875,-0.00
 000536,0.,-0.00003507,0.00001379,0.,0.00001458,-0.00001614,0.,-0.00005
 186,-0.00000040,0.,0.00016844,-0.00014511,0.,-0.00006490,0.00009443,0.
 ,-0.01490673,0.02621641,0.,-0.16828153,0.13557597,0.,0.01118830,-0.010
 79091,0.,0.00017234,-0.00283751,0.,-0.00497435,-0.00257664,0.,-0.00078
 373,-0.00075464,0.,0.00036545,-0.00004079,0.,-0.00020401,-0.00022569,0
 .,-0.00033368,-0.00008283,0.,-0.00009506,0.00165427,0.,-0.00020290,-0.
 00131269,0.,-0.00004153,-0.00002318,0.,0.00000895,-0.00000284,0.,0.000
 00125,-0.00000030,0.,-0.00000194,0.00000038,0.,-0.00000082,0.00000055,
 0.,-0.00000072,0.00000022,0.,-0.00000116,-0.00000157,0.,-0.00000267,-0
 .00000281,0.,-0.00000481,-0.00000349,0.,-0.00000202,-0.00001321,0.,0.1
 7571510,-0.00172027,0.00105866,0.,0.00046565,0.00005941,0.,-0.00029358
 ,0.00015073,0.,-0.00018807,-0.00001602,0.,0.00006425,-0.00002321,0.,-0
 .00005135,-0.00002581,0.,0.00000896,0.00000614,0.,-0.00000724,-0.00001
 244,0.,0.00002702,0.00000120,0.,-0.00001195,-0.00001763,0.,-0.00000583
 ,0.00002523,0.,0.00003099,-0.00001305,0.,-0.00002508,-0.00000316,0.,-0
 .00003101,0.00003621,0.,0.00005165,-0.00001803,0.,0.00002572,0.0000320
 0,0.,0.00002443,0.00000542,0.,-0.00004139,0.00000598,0.,0.00004374,-0.
 00000615,0.,-0.00002672,-0.00004866,0.,0.00021821,-0.00002291,0.,-0.00
 004351,0.00013903,0.,-0.00389084,0.00581988,0.,0.13602531,-0.23094779,
 0.,0.02077362,-0.01727640,0.,-0.00356315,-0.00404416,0.,-0.00159099,0.
 00080236,0.,-0.00091098,0.00012953,0.,0.00024017,-0.00003225,0.,-0.000
 10611,-0.00011248,0.,0.00013430,0.00009468,0.,-0.00026107,0.00019504,0
 .,0.00040971,0.00005611,0.,0.00004610,0.00000283,0.,-0.00000549,0.0000
 0169,0.,-0.00000205,-0.00000171,0.,0.00000250,-0.00000120,0.,0.0000005
 5,-0.00000242,0.,0.00000334,0.00000075,0.,0.00000020,0.00000219,0.,0.0
 0000179,0.00000173,0.,0.00000457,0.00000234,0.,-0.00000384,-0.00000418
 ,0.,-0.14643023,0.24412543,0.,0.,-0.00414963,0.,0.,-0.00014924,0.,0.,0
 .00021570,0.,0.,0.00000891,0.,0.,-0.00012506,0.,0.,-0.00000365,0.,0.,0
 .00002501,0.,0.,-0.00000138,0.,0.,0.00000280,0.,0.,-0.00000136,0.,0.,-
 0.00000086,0.,0.,-0.00000032,0.,0.,0.00000028,0.,0.,0.00000237,0.,0.,-
 0.00000490,0.,0.,-0.00000765,0.,0.,-0.00000709,0.,0.,-0.00000469,0.,0.
 ,-0.00001230,0.,0.,0.00001922,0.,0.,-0.00003607,0.,0.,0.00003902,0.,0.
 ,0.00320340,0.,0.,-0.03583418,0.,0.,0.00269109,0.,0.,0.00706355,0.,0.,
 0.00690223,0.,0.,-0.00098115,0.,0.,-0.00093379,0.,0.,0.00009897,0.,0.,
 -0.00012929,0.,0.,0.00014185,0.,0.,0.00023731,0.,0.,0.00026365,0.,0.,0
 .00000548,0.,0.,0.00000114,0.,0.,-0.00000321,0.,0.,0.00000041,0.,0.,0.
 00000057,0.,0.,0.00000089,0.,0.,0.00000257,0.,0.,0.00000762,0.,0.,0.00
 000783,0.,0.,0.02487628,-0.00052018,0.00030443,0.,0.00002049,-0.000288
 43,0.,-0.00004998,-0.00000912,0.,-0.00004794,-0.00002314,0.,0.00000295
 ,-0.00002188,0.,-0.00001366,0.00000891,0.,0.00000684,-0.00002416,0.,-0
 .00000655,0.00000804,0.,-0.00000271,0.00000463,0.,-0.00002692,0.000001
 08,0.,0.00001142,0.00001448,0.,-0.00000085,0.00000372,0.,-0.00000934,0
 .00000428,0.,-0.00000279,-0.00001927,0.,0.00000463,0.00000060,0.,0.000
 00690,0.00002103,0.,0.00001836,0.00000734,0.,-0.00002444,-0.00001802,0
 .,0.00001103,-0.00002561,0.,-0.00001468,0.00002817,0.,0.00004390,-0.00
 001767,0.,0.00000703,0.00001998,0.,0.00143909,-0.00199383,0.,-0.007275
 46,0.00123979,0.,-0.33609919,-0.04041449,0.,-0.01475901,-0.00593267,0.
 ,0.00060749,0.00026856,0.,-0.00010038,0.00360561,0.,-0.00064495,-0.000
 69730,0.,-0.00020728,0.00035336,0.,0.00008652,0.00007384,0.,0.00000436
 ,-0.00002032,0.,0.00000985,-0.00002915,0.,-0.00005602,-0.00000345,0.,0
 .00001080,-0.00000345,0.,0.00000343,0.00000447,0.,-0.00000455,0.000001
 46,0.,-0.00000101,0.00000311,0.,-0.00000582,-0.00000036,0.,0.00000118,
 -0.00000332,0.,-0.00000056,-0.00000137,0.,-0.00000590,-0.00000164,0.,0
 .00000629,0.00000287,0.,0.00075708,-0.00033554,0.,0.35609157,-0.001137
 53,0.00067352,0.,-0.00031630,-0.00043570,0.,0.00041576,-0.00008221,0.,
 0.00024964,0.00008484,0.,-0.00009635,0.00004042,0.,0.00007992,0.000053
 84,0.,-0.00001953,0.00000659,0.,0.00001758,0.00001580,0.,-0.00003766,-
 0.00000604,0.,0.00003017,0.00002870,0.,0.00000821,-0.00004207,0.,-0.00
 004377,0.00001511,0.,0.00003327,0.00000412,0.,0.00004882,-0.00003922,0
 .,-0.00006764,0.00002484,0.,-0.00002661,-0.00005479,0.,-0.00005181,-0.
 00000487,0.,0.00006356,-0.00000676,0.,-0.00004837,0.00002288,0.,0.0000
 3933,0.00003209,0.,-0.00028495,0.00008093,0.,0.00009323,-0.00018898,0.
 ,-0.00151158,-0.00548207,0.,-0.03034987,0.00109742,0.,-0.04054476,-0.0
 6673151,0.,0.02574422,0.00844379,0.,0.00036960,-0.00112572,0.,0.003124
 02,-0.00398368,0.,0.00065947,0.00084488,0.,0.00045641,-0.00016173,0.,-
 0.00035155,-0.00026511,0.,-0.00010129,0.00007558,0.,0.00002455,-0.0000
 3704,0.,-0.00013994,-0.00002031,0.,-0.00000905,0.00001139,0.,-0.000000
 51,0.00000115,0.,0.00000004,0.00000030,0.,0.00000037,0.00000087,0.,-0.
 00000079,-0.00000068,0.,-0.00000002,-0.00000007,0.,-0.00000032,0.00000
 029,0.,-0.00000194,-0.00000029,0.,0.00000472,0.00001489,0.,0.00046426,
 0.00083294,0.,0.04355621,0.06547952,0.,0.,0.00018503,0.,0.,-0.00035168
 ,0.,0.,0.00007457,0.,0.,0.00006235,0.,0.,-0.00000785,0.,0.,0.00001081,
 0.,0.,-0.00000187,0.,0.,-0.00000061,0.,0.,0.00000016,0.,0.,-0.00000034
 ,0.,0.,-0.00000063,0.,0.,0.00000087,0.,0.,-0.00000467,0.,0.,-0.0000003
 8,0.,0.,-0.00000426,0.,0.,0.00000188,0.,0.,0.00000333,0.,0.,0.00000210
 ,0.,0.,0.00000455,0.,0.,-0.00000864,0.,0.,0.00004047,0.,0.,-0.00000276
 ,0.,0.,0.00753573,0.,0.,0.00252532,0.,0.,-0.03773063,0.,0.,0.00278009,
 0.,0.,-0.00087070,0.,0.,0.00825594,0.,0.,0.00018118,0.,0.,-0.00045954,
 0.,0.,0.00008019,0.,0.,-0.00088090,0.,0.,0.00006637,0.,0.,-0.00002087,
 0.,0.,-0.00001035,0.,0.,0.00000158,0.,0.,0.00000077,0.,0.,0.00000056,0
 .,0.,0.00000027,0.,0.,0.00000057,0.,0.,0.00000085,0.,0.,0.00000179,0.,
 0.,-0.00000262,0.,0.,-0.00370056,0.,0.,0.02631054,0.00032977,0.0001036
 7,0.,-0.00021794,0.00013429,0.,-0.00026759,0.00006588,0.,0.00019725,0.
 00016149,0.,-0.00009726,0.00000320,0.,0.00005661,0.00003019,0.,-0.0000
 1724,0.00000057,0.,0.00000868,0.00000833,0.,-0.00002471,-0.00000734,0.
 ,0.00002695,0.00001455,0.,-0.00000568,-0.00002924,0.,-0.00002271,0.000
 01130,0.,0.00002927,0.00000456,0.,0.00002462,-0.00001745,0.,-0.0000408
 4,0.00001656,0.,-0.00003261,-0.00004405,0.,-0.00002621,0.00000778,0.,0
 .00004420,0.00000560,0.,-0.00003325,0.00000123,0.,-0.00003095,0.000028
 43,0.,-0.00015800,-0.00012975,0.,0.00003686,-0.00011806,0.,-0.00116060
 ,0.00045873,0.,-0.00192390,0.00342387,0.,0.01155761,0.01961396,0.,-0.0
 9786119,-0.09522061,0.,-0.00553996,0.00064069,0.,-0.00685357,-0.029988
 79,0.,0.00127093,-0.00182708,0.,0.00019474,0.00045889,0.,-0.00001677,-
 0.00017892,0.,0.00020915,-0.00165025,0.,-0.00001925,-0.00007621,0.,0.0
 0000786,-0.00001698,0.,-0.00000934,0.00001072,0.,-0.00000096,0.0000023
 7,0.,-0.00000119,0.00000060,0.,-0.00000088,0.00000060,0.,0.00000055,-0
 .00000035,0.,-0.00000091,0.00000003,0.,-0.00000087,-0.00000074,0.,-0.0
 0000642,-0.00000225,0.,0.00000438,0.00000274,0.,0.00034922,0.00096791,
 0.,0.00081726,-0.00044759,0.,0.09965935,-0.00009058,-0.00003321,0.,0.0
 0003033,-0.00002878,0.,-0.00022512,0.00002384,0.,-0.00013504,0.0000091
 8,0.,0.00003293,-0.00005501,0.,-0.00004816,-0.00001914,0.,0.00001324,-
 0.00002293,0.,-0.00001561,-0.00000321,0.,0.00001350,0.00000415,0.,-0.0
 0002701,-0.00001379,0.,-0.00000334,0.00002486,0.,0.00001898,-0.0000010
 5,0.,-0.00001386,0.00000474,0.,-0.00002444,0.00000410,0.,0.00002596,-0
 .00000595,0.,0.00000518,0.00002951,0.,0.00003716,0.00001530,0.,-0.0000
 3594,-0.00000451,0.,0.00001718,-0.00001589,0.,-0.00003103,0.00000083,0
 .,0.00013569,-0.00004278,0.,-0.00006001,0.00009290,0.,0.00051502,0.000
 47649,0.,0.00419557,-0.00189529,0.,-0.01204658,-0.01779776,0.,-0.09540
 280,-0.30160315,0.,-0.00041222,0.00145214,0.,0.00012453,-0.00202994,0.
 ,0.00173037,0.00099578,0.,-0.00045910,0.00000460,0.,0.00020948,0.00025
 774,0.,0.00037085,-0.00020260,0.,0.00002550,0.00002330,0.,-0.00001361,
 -0.00001351,0.,0.00000434,0.00000093,0.,0.00000235,0.00000421,0.,-0.00
 000413,0.00000152,0.,-0.00000174,0.00000230,0.,-0.00000357,0.00000003,
 0.,0.00000019,-0.00000273,0.,-0.00000080,-0.00000219,0.,-0.00000467,-0
 .00000257,0.,0.00000559,0.00000365,0.,-0.00056683,-0.00098640,0.,0.000
 32323,0.00079840,0.,0.10240129,0.32027928,0.,0.,-0.00101482,0.,0.,0.00
 009979,0.,0.,0.00006445,0.,0.,-0.00003804,0.,0.,0.00002828,0.,0.,-0.00
 001585,0.,0.,0.00000213,0.,0.,-0.00000176,0.,0.,0.00000065,0.,0.,-0.00
 000087,0.,0.,-0.00000118,0.,0.,-0.00000097,0.,0.,0.00000023,0.,0.,-0.0
 0000130,0.,0.,0.00000203,0.,0.,0.00000062,0.,0.,-0.00000544,0.,0.,-0.0
 0001720,0.,0.,-0.00000200,0.,0.,-0.00016158,0.,0.,0.00002511,0.,0.,0.0
 0005217,0.,0.,-0.00103908,0.,0.,0.00768333,0.,0.,0.00297129,0.,0.,-0.0
 3573902,0.,0.,0.00628279,0.,0.,0.00299712,0.,0.,-0.00367341,0.,0.,-0.0
 0018717,0.,0.,0.00016461,0.,0.,0.00005030,0.,0.,0.00004252,0.,0.,0.000
 10300,0.,0.,0.00000562,0.,0.,0.00000243,0.,0.,0.00000142,0.,0.,0.00000
 075,0.,0.,0.00000065,0.,0.,0.00000128,0.,0.,0.00000243,0.,0.,0.0000276
 9,0.,0.,0.00000638,0.,0.,0.00013285,0.,0.,-0.00414979,0.,0.,0.02483539
 ,-0.00027188,0.00016169,0.,-0.00001326,-0.00003652,0.,0.00020318,0.000
 07273,0.,0.00038395,-0.00157138,0.,-0.00004001,0.00000138,0.,0.0000757
 4,0.00008958,0.,-0.00003674,-0.00004152,0.,0.00000616,0.00003411,0.,-0
 .00004406,-0.00000722,0.,0.00001854,0.00002597,0.,0.00000410,-0.000031
 18,0.,-0.00003467,0.00001922,0.,0.00003925,0.00001046,0.,0.00003554,-0
 .00004227,0.,-0.00004864,-0.00000360,0.,-0.00002186,-0.00003641,0.,-0.
 00000653,-0.00016841,0.,-0.00001344,0.00001438,0.,-0.00002690,-0.00000
 266,0.,0.00002759,0.00003359,0.,-0.00014043,0.00008429,0.,-0.00043874,
 -0.00001643,0.,0.00053942,0.00087478,0.,0.00021789,0.00017351,0.,0.000
 06797,-0.00048257,0.,0.00137240,0.00140997,0.,-0.00262981,0.00267285,0
 .,0.01017766,0.01852217,0.,-0.09668034,-0.09452835,0.,-0.00759471,-0.0
 3116313,0.,-0.00546229,0.00092337,0.,-0.00065734,0.00023671,0.,0.00004
 541,0.00009331,0.,0.00001365,-0.00001355,0.,-0.00002397,0.00000785,0.,
 -0.00000043,0.00001246,0.,-0.00000866,0.00000126,0.,-0.00000260,0.0000
 0317,0.,-0.00000382,-0.00000077,0.,-0.00000014,-0.00000217,0.,-0.00000
 763,-0.00000303,0.,-0.00000356,-0.00000380,0.,-0.00000035,-0.00001528,
 0.,-0.00002802,-0.00004122,0.,0.00000517,-0.00001440,0.,-0.00042419,-0
 .00055699,0.,0.10066292,0.00041089,-0.00015092,0.,-0.00005573,0.000009
 90,0.,-0.00001541,-0.00004073,0.,0.00002888,-0.00018037,0.,-0.00000801
 ,-0.00003601,0.,-0.00001847,-0.00001613,0.,0.00000212,-0.00001956,0.,-
 0.00001162,0.00000249,0.,0.00000385,0.00000115,0.,-0.00000950,-0.00000
 857,0.,-0.00000788,0.00000835,0.,0.00000785,0.00000177,0.,0.00000098,0
 .00000250,0.,-0.00001377,0.00000002,0.,0.00000567,-0.00000676,0.,-0.00
 000828,0.00000574,0.,0.00002144,-0.00001533,0.,-0.00001889,0.00001136,
 0.,-0.00000900,0.00000658,0.,-0.00000742,-0.00000328,0.,0.00002823,0.0
 0000319,0.,-0.00013075,0.00007990,0.,-0.00124441,-0.00077205,0.,0.0001
 4424,0.00020161,0.,0.00032850,-0.00001279,0.,-0.00175911,0.00111890,0.
 ,0.00413628,-0.00165175,0.,-0.01171055,-0.01860883,0.,-0.09576451,-0.3
 0213869,0.,0.00101659,-0.00044554,0.,-0.00014836,0.00179096,0.,0.00059
 807,0.00037713,0.,-0.00004088,-0.00013215,0.,-0.00001081,-0.00001423,0
 .,0.00000525,-0.00001618,0.,0.00000168,0.00000406,0.,-0.00000444,0.000
 00145,0.,-0.00000197,0.00000204,0.,-0.00000236,-0.00000018,0.,-0.00000
 065,-0.00000223,0.,-0.00000259,-0.00000288,0.,-0.00000413,-0.00000413,
 0.,0.00000644,0.00000820,0.,0.00006038,0.00003359,0.,0.00004224,-0.000
 03277,0.,0.00116368,0.00027898,0.,0.10326576,0.31930488,0.,0.,0.000033
 52,0.,0.,0.00003148,0.,0.,-0.00075782,0.,0.,0.00008968,0.,0.,0.0004033
 1,0.,0.,-0.00008758,0.,0.,-0.00001399,0.,0.,-0.00001155,0.,0.,0.000010
 85,0.,0.,-0.00000626,0.,0.,-0.00000155,0.,0.,0.00000288,0.,0.,-0.00000
 019,0.,0.,-0.00001978,0.,0.,-0.00000129,0.,0.,0.00007199,0.,0.,-0.0000
 0505,0.,0.,-0.00002929,0.,0.,-0.00002398,0.,0.,0.00014706,0.,0.,0.0000
 9789,0.,0.,-0.00075417,0.,0.,0.00007407,0.,0.,-0.00002331,0.,0.,-0.000
 18222,0.,0.,-0.00209968,0.,0.,0.00417318,0.,0.,0.00275294,0.,0.,-0.036
 27967,0.,0.,0.00362971,0.,0.,0.01013051,0.,0.,-0.00093161,0.,0.,-0.000
 02138,0.,0.,0.00001815,0.,0.,-0.00006364,0.,0.,0.00000848,0.,0.,0.0000
 0348,0.,0.,0.00000425,0.,0.,0.00000055,0.,0.,-0.00000113,0.,0.,0.00003
 186,0.,0.,-0.00002187,0.,0.,-0.00000377,0.,0.,0.00004376,0.,0.,0.00009
 771,0.,0.,0.00023115,0.,0.,0.02498615,-0.00002679,0.00000697,0.,-0.000
 12337,-0.00014923,0.,0.00054219,-0.00041268,0.,-0.00078583,0.00122434,
 0.,-0.00365563,-0.00181074,0.,-0.00012345,-0.00008211,0.,0.00004773,-0
 .00003200,0.,-0.00003026,-0.00004362,0.,0.00005824,-0.00000614,0.,-0.0
 0002815,-0.00001906,0.,-0.00001540,0.00004150,0.,0.00004936,-0.0000080
 2,0.,-0.00004127,0.00001734,0.,-0.00003292,0.00003603,0.,0.00003878,0.
 00002528,0.,-0.00004361,0.00004192,0.,0.00003924,0.00013004,0.,-0.0000
 0441,-0.00005684,0.,0.00001945,-0.00002367,0.,-0.00003061,0.00003247,0
 .,0.00013631,0.00000554,0.,0.00010599,0.00013099,0.,0.00024210,0.00001
 429,0.,-0.00010288,-0.00022472,0.,-0.00054748,0.00003732,0.,-0.0000004
 3,0.00140592,0.,-0.00038552,-0.00045635,0.,-0.00505421,-0.00276887,0.,
 -0.01627671,0.02811308,0.,-0.16006831,0.13633789,0.,0.01187016,-0.0086
 5915,0.,-0.00095415,-0.00274253,0.,0.00000483,0.00001800,0.,0.00004579
 ,-0.00005215,0.,-0.00669090,-0.00160361,0.,-0.00001719,0.00001748,0.,0
 .00000876,-0.00000084,0.,0.00000043,-0.00000424,0.,0.00000598,0.000002
 74,0.,0.00000061,0.00000350,0.,0.00000688,0.00000463,0.,-0.00000024,0.
 00000652,0.,0.00000085,0.00001145,0.,-0.00000452,0.00001681,0.,-0.0000
 9344,0.00012076,0.,-0.00003026,-0.00005526,0.,0.00076844,-0.00026952,0
 .,0.18117580,0.00001208,0.00007385,0.,-0.00037606,-0.00037827,0.,0.001
 42472,-0.00051095,0.,0.00155367,0.00027751,0.,0.00060543,-0.00088811,0
 .,-0.00020480,0.00096635,0.,-0.00001414,0.00003082,0.,-0.00000405,-0.0
 0006737,0.,-0.00001782,-0.00002692,0.,-0.00002264,0.00002672,0.,-0.000
 00591,0.00001175,0.,0.00000991,0.00004344,0.,-0.00001122,0.00015196,0.
 ,0.00005397,-0.00003898,0.,-0.00002518,0.00008626,0.,0.00016556,0.0000
 0674,0.,0.00011411,0.00007261,0.,-0.00000494,-0.00015074,0.,0.00000279
 ,-0.00010171,0.,-0.00008085,0.00017692,0.,0.00005264,-0.00001635,0.,-0
 .00005720,-0.00011053,0.,0.00014330,-0.00002131,0.,-0.00011273,-0.0000
 5781,0.,0.00000891,0.00013803,0.,0.00003805,0.00013088,0.,-0.00077908,
 0.00013966,0.,-0.00168681,0.00100624,0.,-0.00496586,0.00684137,0.,0.13
 794107,-0.24467225,0.,0.01906154,-0.01752888,0.,-0.00384641,-0.0034557
 8,0.,0.00002015,-0.00000617,0.,0.00010439,-0.00012405,0.,-0.00082212,0
 .00200041,0.,-0.00002866,0.00002840,0.,0.00001554,0.00000453,0.,-0.000
 00133,-0.00000119,0.,0.00000186,0.00000334,0.,0.00000655,0.00000265,0.
 ,0.00000576,0.00000707,0.,-0.00001627,0.00001081,0.,0.00001105,0.00000
 373,0.,0.00001954,-0.00000506,0.,-0.00001728,0.00001647,0.,0.00001194,
 -0.00000636,0.,0.00003829,0.00105730,0.,-0.14832149,0.25485300,0.,0.,0
 .00008527,0.,0.,-0.00023532,0.,0.,0.00067460,0.,0.,-0.00111599,0.,0.,-
 0.00094497,0.,0.,-0.00009183,0.,0.,-0.00007009,0.,0.,0.00001145,0.,0.,
 -0.00002679,0.,0.,0.00001241,0.,0.,-0.00000109,0.,0.,-0.00001300,0.,0.
 ,0.00006631,0.,0.,0.00000788,0.,0.,-0.00001321,0.,0.,-0.00002673,0.,0.
 ,0.00012227,0.,0.,0.00000126,0.,0.,-0.00003713,0.,0.,0.00018634,0.,0.,
 -0.00051118,0.,0.,-0.00008098,0.,0.,-0.00072341,0.,0.,0.00010323,0.,0.
 ,-0.00077723,0.,0.,0.00001551,0.,0.,-0.00095652,0.,0.,0.01075458,0.,0.
 ,0.00389475,0.,0.,-0.03543307,0.,0.,0.00125893,0.,0.,0.00422211,0.,0.,
 0.00002728,0.,0.,0.00001705,0.,0.,0.00209560,0.,0.,0.00003999,0.,0.,0.
 00000301,0.,0.,-0.00000438,0.,0.,0.00000192,0.,0.,0.00000165,0.,0.,0.0
 0000839,0.,0.,-0.00000352,0.,0.,-0.00002719,0.,0.,0.00009158,0.,0.,-0.
 00001591,0.,0.,0.00023100,0.,0.,-0.00573384,0.,0.,0.02290902\\0.000000
 87,-0.00000100,0.,-0.00000196,-0.00000173,0.,0.00000325,-0.00000113,0.
 ,0.00000440,-0.00000088,0.,-0.00000125,0.00000163,0.,0.00000324,0.0000
 0148,0.,0.00000121,0.00000134,0.,0.00000223,0.00000318,0.,-0.00000239,
 0.00000227,0.,0.00000296,0.00000672,0.,0.00000047,-0.00000016,0.,-0.00
 000399,0.00000443,0.,0.00000170,0.00000153,0.,0.00000287,0.00000253,0.
 ,-0.00000453,0.00000195,0.,-0.00000166,0.00000062,0.,-0.00000100,0.000
 00069,0.,0.00000284,0.00000054,0.,-0.00000408,0.00000172,0.,-0.0000013
 7,-0.00000028,0.,-0.00000493,-0.00000117,0.,0.00000017,-0.00000096,0.,
 -0.00000268,-0.00000463,0.,0.00000114,-0.00000302,0.,-0.00000011,-0.00
 000517,0.,0.00000016,-0.00000213,0.,-0.00000146,-0.00000273,0.,0.00000
 131,-0.00000158,0.,0.00000189,-0.00000255,0.,0.00000180,-0.00000146,0.
 ,-0.00000378,0.00000034,0.,0.00000256,-0.00000327,0.,-0.00000188,-0.00
 000288,0.,-0.00000086,-0.00000033,0.,0.00000309,0.00000068,0.,0.000002
 08,0.00000168,0.,0.00000201,0.00000276,0.,0.00000089,0.00000339,0.,-0.
 00000023,0.00000473,0.,-0.00000093,0.00000352,0.,-0.00000156,0.0000025
 1,0.,-0.00000221,0.00000087,0.,-0.00000377,0.00000056,0.,-0.00000092,-
 0.00000375,0.,0.00000043,-0.00000433,0.,0.00000177,-0.00000373,0.,0.00
 000186,-0.00000224,0.,0.00000035,-0.00000056,0.\\\@


 THEORY:  SUPPOSITION WHICH HAS SCIENTIFIC BASIS,
          BUT NOT EXPERIMENTALLY PROVEN.
 FACT:    A THEORY WHICH HAS BEEN PROVEN BY ENOUGH 
          MONEY TO PAY FOR THE EXPERIMENTS.

                          --  THE WIZARD OF ID
 Job cpu time:       5 days 19 hours 51 minutes  0.0 seconds.
 File lengths (MBytes):  RWF=   4430 Int=      0 D2E=      0 Chk=     85 Scr=      1
 Normal termination of Gaussian 09 at Sun Jul 28 02:04:24 2019.
