 Entering Gaussian System, Link 0=g09
 Initial command:
 /home/minenky/programs//g09/l1.exe "/local/scratch/minenky/m1_00_120836-11-5-C32H16_wB97XD/Gau-268526.inp" -scrdir="/local/scratch/minenky/m1_00_120836-11-5-C32H16_wB97XD/"
 Entering Link 1 = /home/minenky/programs//g09/l1.exe PID=    268527.
  
 Copyright (c) 1988,1990,1992,1993,1995,1998,2003,2009,2013,
            Gaussian, Inc.  All Rights Reserved.
  
 This is part of the Gaussian(R) 09 program.  It is based on
 the Gaussian(R) 03 system (copyright 2003, Gaussian, Inc.),
 the Gaussian(R) 98 system (copyright 1998, Gaussian, Inc.),
 the Gaussian(R) 94 system (copyright 1995, Gaussian, Inc.),
 the Gaussian 92(TM) system (copyright 1992, Gaussian, Inc.),
 the Gaussian 90(TM) system (copyright 1990, Gaussian, Inc.),
 the Gaussian 88(TM) system (copyright 1988, Gaussian, Inc.),
 the Gaussian 86(TM) system (copyright 1986, Carnegie Mellon
 University), and the Gaussian 82(TM) system (copyright 1983,
 Carnegie Mellon University). Gaussian is a federally registered
 trademark of Gaussian, Inc.
  
 This software contains proprietary and confidential information,
 including trade secrets, belonging to Gaussian, Inc.
  
 This software is provided under written license and may be
 used, copied, transmitted, or stored only in accord with that
 written license.
  
 The following legend is applicable only to US Government
 contracts under FAR:
  
                    RESTRICTED RIGHTS LEGEND
  
 Use, reproduction and disclosure by the US Government is
 subject to restrictions as set forth in subparagraphs (a)
 and (c) of the Commercial Computer Software - Restricted
 Rights clause in FAR 52.227-19.
  
 Gaussian, Inc.
 340 Quinnipiac St., Bldg. 40, Wallingford CT 06492
  
  
 ---------------------------------------------------------------
 Warning -- This program may not be used in any manner that
 competes with the business of Gaussian, Inc. or will provide
 assistance to any competitor of Gaussian, Inc.  The licensee
 of this program is prohibited from giving any competitor of
 Gaussian, Inc. access to this program.  By using this program,
 the user acknowledges that Gaussian, Inc. is engaged in the
 business of creating and licensing software in the field of
 computational chemistry and represents and warrants to the
 licensee that it is not a competitor of Gaussian, Inc. and that
 it will not use this program in any manner prohibited above.
 ---------------------------------------------------------------
  

 Cite this work as:
 Gaussian 09, Revision D.01,
 M. J. Frisch, G. W. Trucks, H. B. Schlegel, G. E. Scuseria, 
 M. A. Robb, J. R. Cheeseman, G. Scalmani, V. Barone, B. Mennucci, 
 G. A. Petersson, H. Nakatsuji, M. Caricato, X. Li, H. P. Hratchian, 
 A. F. Izmaylov, J. Bloino, G. Zheng, J. L. Sonnenberg, M. Hada, 
 M. Ehara, K. Toyota, R. Fukuda, J. Hasegawa, M. Ishida, T. Nakajima, 
 Y. Honda, O. Kitao, H. Nakai, T. Vreven, J. A. Montgomery, Jr., 
 J. E. Peralta, F. Ogliaro, M. Bearpark, J. J. Heyd, E. Brothers, 
 K. N. Kudin, V. N. Staroverov, T. Keith, R. Kobayashi, J. Normand, 
 K. Raghavachari, A. Rendell, J. C. Burant, S. S. Iyengar, J. Tomasi, 
 M. Cossi, N. Rega, J. M. Millam, M. Klene, J. E. Knox, J. B. Cross, 
 V. Bakken, C. Adamo, J. Jaramillo, R. Gomperts, R. E. Stratmann, 
 O. Yazyev, A. J. Austin, R. Cammi, C. Pomelli, J. W. Ochterski, 
 R. L. Martin, K. Morokuma, V. G. Zakrzewski, G. A. Voth, 
 P. Salvador, J. J. Dannenberg, S. Dapprich, A. D. Daniels, 
 O. Farkas, J. B. Foresman, J. V. Ortiz, J. Cioslowski, 
 and D. J. Fox, Gaussian, Inc., Wallingford CT, 2013.
 
 ******************************************
 Gaussian 09:  AM64L-G09RevD.01 24-Apr-2013
                27-Jul-2019 
 ******************************************
 %Mem=32000MB
 %NProcShared=16
 Will use up to   16 processors via shared memory.
 %Chk=m1_00_120836-11-5-C32H16_wB97XD
 ----------------------------------------------------------------------
 #P wB97XD/def2tzvp opt=(tight) freq integral(Grid=ultrafine) # SCF(Max
 Cycle=380) 5d 7f GFPrint
 ----------------------------------------------------------------------
 1/7=10,14=-1,18=20,19=15,26=4,38=1/1,3;
 2/9=110,12=2,17=6,18=5,40=1/2;
 3/5=44,7=101,8=11,11=2,16=1,24=100,25=1,30=1,71=1,74=-58,75=-5/1,2,3;
 4//1;
 5/5=2,7=380,38=5/2;
 6/7=2,8=2,9=2,10=2,28=1/1;
 7//1,2,3,16;
 1/7=10,14=-1,18=20,19=15,26=4/3(2);
 2/9=110/2;
 99//99;
 2/9=110/2;
 3/5=44,7=101,8=11,11=2,16=1,25=1,30=1,71=1,74=-58,75=-5/1,2,3;
 4/5=5,16=3,69=1/1;
 5/5=2,7=380,38=5/2;
 7//1,2,3,16;
 1/7=10,14=-1,18=20,19=15,26=4/3(-5);
 2/9=110/2;
 6/7=2,8=2,9=2,10=2,19=2,28=1/1;
 99/9=1/99;
 Leave Link    1 at Sat Jul 27 13:28:21 2019, MaxMem=  4194304000 cpu:         1.5
 (Enter /home/minenky/programs//g09/l101.exe)
 ---------------------------------------
 The PBEPBE optimization and frequencies
 ---------------------------------------
 Symbolic Z-matrix:
 Charge =  0 Multiplicity = 1
 C                     2.37561  -4.09284  -0.26179 
 C                     1.352    -3.12196  -0.28857 
 C                     1.66331  -1.76065  -0.10693 
 C                     3.02213  -1.38048   0.06678 
 C                     4.00604  -2.3567    0.09727 
 C                     3.68244  -3.71088  -0.0615 
 C                     0.60962  -0.78652  -0.09744 
 C                    -0.73151  -1.17956  -0.19115 
 C                    -0.99539  -2.55724  -0.47743 
 C                    -0.00775  -3.48923  -0.52044 
 C                     0.95579   0.60085  -0.01913 
 C                    -0.05092   1.56397  -0.1089 
 C                    -1.42445   1.16134  -0.15267 
 C                    -1.78286  -0.19475  -0.07141 
 C                    -2.42941   2.17898  -0.27402 
 C                    -2.03372   3.56995  -0.3791 
 C                    -0.74443   3.94009  -0.29382 
 C                     0.30342   2.95406  -0.12473 
 C                    -3.17702  -0.51267   0.1325 
 C                    -4.14991   0.49571  -0.04711 
 C                    -3.75609   1.83834  -0.29028 
 C                    -5.53135   0.19392   0.07626 
 C                    -5.93948  -1.05856   0.45058 
 C                    -4.97531  -2.04513   0.73587 
 C                    -3.63908  -1.77734   0.58282 
 C                     2.32138   0.99943   0.10878 
 C                     2.64598   2.37162   0.15226 
 C                     1.61329   3.33982   0.01561 
 C                     3.36096   0.03253   0.18858 
 C                     4.67      0.45183   0.3523 
 C                     4.98389   1.81832   0.42388 
 C                     3.99472   2.76616   0.31755 
 H                    -5.30403  -3.02901   1.08685 
 H                    -7.00333  -1.29664   0.54937 
 H                    -6.26486   0.98494  -0.1185 
 H                    -2.91064  -2.56073   0.83218 
 H                    -4.52967   2.60133  -0.44352 
 H                    -2.82788   4.31326  -0.51674 
 H                    -0.44939   4.99412  -0.35313 
 H                     1.88319   4.40326   0.02016 
 H                     4.23699   3.83409   0.35917 
 H                     6.02794   2.12007   0.55807 
 H                     5.47024  -0.30136   0.4193 
 H                    -0.23633  -4.53843  -0.74087 
 H                    -2.02871  -2.86742  -0.6849 
 H                     5.05473  -2.05441   0.24327 
 H                     4.48014  -4.46034  -0.03087 
 H                     2.11649  -5.14837  -0.40134 
 
 NAtoms=     48 NQM=       48 NQMF=       0 NMMI=      0 NMMIF=      0
                NMic=       0 NMicF=      0.
                    Isotopes and Nuclear Properties:
 (Nuclear quadrupole moments (NQMom) in fm**2, nuclear magnetic moments (NMagM)
  in nuclear magnetons)

  Atom         1           2           3           4           5           6           7           8           9          10
 IAtWgt=          12          12          12          12          12          12          12          12          12          12
 AtmWgt=  12.0000000  12.0000000  12.0000000  12.0000000  12.0000000  12.0000000  12.0000000  12.0000000  12.0000000  12.0000000
 NucSpn=           0           0           0           0           0           0           0           0           0           0
 AtZEff=   0.0000000   0.0000000   0.0000000   0.0000000   0.0000000   0.0000000   0.0000000   0.0000000   0.0000000   0.0000000
 NQMom=    0.0000000   0.0000000   0.0000000   0.0000000   0.0000000   0.0000000   0.0000000   0.0000000   0.0000000   0.0000000
 NMagM=    0.0000000   0.0000000   0.0000000   0.0000000   0.0000000   0.0000000   0.0000000   0.0000000   0.0000000   0.0000000
 AtZNuc=   6.0000000   6.0000000   6.0000000   6.0000000   6.0000000   6.0000000   6.0000000   6.0000000   6.0000000   6.0000000

  Atom        11          12          13          14          15          16          17          18          19          20
 IAtWgt=          12          12          12          12          12          12          12          12          12          12
 AtmWgt=  12.0000000  12.0000000  12.0000000  12.0000000  12.0000000  12.0000000  12.0000000  12.0000000  12.0000000  12.0000000
 NucSpn=           0           0           0           0           0           0           0           0           0           0
 AtZEff=   0.0000000   0.0000000   0.0000000   0.0000000   0.0000000   0.0000000   0.0000000   0.0000000   0.0000000   0.0000000
 NQMom=    0.0000000   0.0000000   0.0000000   0.0000000   0.0000000   0.0000000   0.0000000   0.0000000   0.0000000   0.0000000
 NMagM=    0.0000000   0.0000000   0.0000000   0.0000000   0.0000000   0.0000000   0.0000000   0.0000000   0.0000000   0.0000000
 AtZNuc=   6.0000000   6.0000000   6.0000000   6.0000000   6.0000000   6.0000000   6.0000000   6.0000000   6.0000000   6.0000000

  Atom        21          22          23          24          25          26          27          28          29          30
 IAtWgt=          12          12          12          12          12          12          12          12          12          12
 AtmWgt=  12.0000000  12.0000000  12.0000000  12.0000000  12.0000000  12.0000000  12.0000000  12.0000000  12.0000000  12.0000000
 NucSpn=           0           0           0           0           0           0           0           0           0           0
 AtZEff=   0.0000000   0.0000000   0.0000000   0.0000000   0.0000000   0.0000000   0.0000000   0.0000000   0.0000000   0.0000000
 NQMom=    0.0000000   0.0000000   0.0000000   0.0000000   0.0000000   0.0000000   0.0000000   0.0000000   0.0000000   0.0000000
 NMagM=    0.0000000   0.0000000   0.0000000   0.0000000   0.0000000   0.0000000   0.0000000   0.0000000   0.0000000   0.0000000
 AtZNuc=   6.0000000   6.0000000   6.0000000   6.0000000   6.0000000   6.0000000   6.0000000   6.0000000   6.0000000   6.0000000

  Atom        31          32          33          34          35          36          37          38          39          40
 IAtWgt=          12          12           1           1           1           1           1           1           1           1
 AtmWgt=  12.0000000  12.0000000   1.0078250   1.0078250   1.0078250   1.0078250   1.0078250   1.0078250   1.0078250   1.0078250
 NucSpn=           0           0           1           1           1           1           1           1           1           1
 AtZEff=   0.0000000   0.0000000   0.0000000   0.0000000   0.0000000   0.0000000   0.0000000   0.0000000   0.0000000   0.0000000
 NQMom=    0.0000000   0.0000000   0.0000000   0.0000000   0.0000000   0.0000000   0.0000000   0.0000000   0.0000000   0.0000000
 NMagM=    0.0000000   0.0000000   2.7928460   2.7928460   2.7928460   2.7928460   2.7928460   2.7928460   2.7928460   2.7928460
 AtZNuc=   6.0000000   6.0000000   1.0000000   1.0000000   1.0000000   1.0000000   1.0000000   1.0000000   1.0000000   1.0000000

  Atom        41          42          43          44          45          46          47          48
 IAtWgt=           1           1           1           1           1           1           1           1
 AtmWgt=   1.0078250   1.0078250   1.0078250   1.0078250   1.0078250   1.0078250   1.0078250   1.0078250
 NucSpn=           1           1           1           1           1           1           1           1
 AtZEff=   0.0000000   0.0000000   0.0000000   0.0000000   0.0000000   0.0000000   0.0000000   0.0000000
 NQMom=    0.0000000   0.0000000   0.0000000   0.0000000   0.0000000   0.0000000   0.0000000   0.0000000
 NMagM=    2.7928460   2.7928460   2.7928460   2.7928460   2.7928460   2.7928460   2.7928460   2.7928460
 AtZNuc=   1.0000000   1.0000000   1.0000000   1.0000000   1.0000000   1.0000000   1.0000000   1.0000000
 Leave Link  101 at Sat Jul 27 13:28:21 2019, MaxMem=  4194304000 cpu:         5.4
 (Enter /home/minenky/programs//g09/l103.exe)

 GradGradGradGradGradGradGradGradGradGradGradGradGradGradGradGradGradGrad
 Berny optimization.
 Initialization pass.
                           ----------------------------
                           !    Initial Parameters    !
                           ! (Angstroms and Degrees)  !
 --------------------------                            --------------------------
 ! Name  Definition              Value          Derivative Info.                !
 --------------------------------------------------------------------------------
 ! R1    R(1,2)                  1.4111         estimate D2E/DX2                !
 ! R2    R(1,6)                  1.3762         estimate D2E/DX2                !
 ! R3    R(1,48)                 1.0958         estimate D2E/DX2                !
 ! R4    R(2,3)                  1.4082         estimate D2E/DX2                !
 ! R5    R(2,10)                 1.4274         estimate D2E/DX2                !
 ! R6    R(3,4)                  1.4216         estimate D2E/DX2                !
 ! R7    R(3,7)                  1.435          estimate D2E/DX2                !
 ! R8    R(4,5)                  1.3864         estimate D2E/DX2                !
 ! R9    R(4,29)                 1.4582         estimate D2E/DX2                !
 ! R10   R(5,6)                  1.4013         estimate D2E/DX2                !
 ! R11   R(5,46)                 1.1011         estimate D2E/DX2                !
 ! R12   R(6,47)                 1.095          estimate D2E/DX2                !
 ! R13   R(7,8)                  1.4007         estimate D2E/DX2                !
 ! R14   R(7,11)                 1.432          estimate D2E/DX2                !
 ! R15   R(8,9)                  1.4316         estimate D2E/DX2                !
 ! R16   R(8,14)                 1.4455         estimate D2E/DX2                !
 ! R17   R(9,10)                 1.3586         estimate D2E/DX2                !
 ! R18   R(9,45)                 1.0986         estimate D2E/DX2                !
 ! R19   R(10,44)                1.0962         estimate D2E/DX2                !
 ! R20   R(11,12)                1.3961         estimate D2E/DX2                !
 ! R21   R(11,26)                1.4283         estimate D2E/DX2                !
 ! R22   R(12,13)                1.432          estimate D2E/DX2                !
 ! R23   R(12,18)                1.4346         estimate D2E/DX2                !
 ! R24   R(13,14)                1.405          estimate D2E/DX2                !
 ! R25   R(13,15)                1.4354         estimate D2E/DX2                !
 ! R26   R(14,19)                1.4444         estimate D2E/DX2                !
 ! R27   R(15,16)                1.45           estimate D2E/DX2                !
 ! R28   R(15,21)                1.3698         estimate D2E/DX2                !
 ! R29   R(16,17)                1.3441         estimate D2E/DX2                !
 ! R30   R(16,38)                1.0964         estimate D2E/DX2                !
 ! R31   R(17,18)                1.4487         estimate D2E/DX2                !
 ! R32   R(17,39)                1.0961         estimate D2E/DX2                !
 ! R33   R(18,28)                1.3727         estimate D2E/DX2                !
 ! R34   R(19,20)                1.4127         estimate D2E/DX2                !
 ! R35   R(19,25)                1.4197         estimate D2E/DX2                !
 ! R36   R(20,21)                1.4202         estimate D2E/DX2                !
 ! R37   R(20,22)                1.4194         estimate D2E/DX2                !
 ! R38   R(21,37)                1.0973         estimate D2E/DX2                !
 ! R39   R(22,23)                1.3694         estimate D2E/DX2                !
 ! R40   R(22,35)                1.0962         estimate D2E/DX2                !
 ! R41   R(23,24)                1.4087         estimate D2E/DX2                !
 ! R42   R(23,34)                1.0946         estimate D2E/DX2                !
 ! R43   R(24,25)                1.3714         estimate D2E/DX2                !
 ! R44   R(24,33)                1.0951         estimate D2E/DX2                !
 ! R45   R(25,36)                1.0984         estimate D2E/DX2                !
 ! R46   R(26,27)                1.4107         estimate D2E/DX2                !
 ! R47   R(26,29)                1.422          estimate D2E/DX2                !
 ! R48   R(27,28)                1.4222         estimate D2E/DX2                !
 ! R49   R(27,32)                1.415          estimate D2E/DX2                !
 ! R50   R(28,40)                1.0972         estimate D2E/DX2                !
 ! R51   R(29,30)                1.3843         estimate D2E/DX2                !
 ! R52   R(30,31)                1.4039         estimate D2E/DX2                !
 ! R53   R(30,43)                1.101          estimate D2E/DX2                !
 ! R54   R(31,32)                1.3741         estimate D2E/DX2                !
 ! R55   R(31,42)                1.095          estimate D2E/DX2                !
 ! R56   R(32,41)                1.0959         estimate D2E/DX2                !
 ! A1    A(2,1,6)              120.0441         estimate D2E/DX2                !
 ! A2    A(2,1,48)             119.2622         estimate D2E/DX2                !
 ! A3    A(6,1,48)             120.6936         estimate D2E/DX2                !
 ! A4    A(1,2,3)              120.153          estimate D2E/DX2                !
 ! A5    A(1,2,10)             121.1365         estimate D2E/DX2                !
 ! A6    A(3,2,10)             118.7023         estimate D2E/DX2                !
 ! A7    A(2,3,4)              119.0496         estimate D2E/DX2                !
 ! A8    A(2,3,7)              119.6528         estimate D2E/DX2                !
 ! A9    A(4,3,7)              121.2974         estimate D2E/DX2                !
 ! A10   A(3,4,5)              119.5196         estimate D2E/DX2                !
 ! A11   A(3,4,29)             119.4352         estimate D2E/DX2                !
 ! A12   A(5,4,29)             121.0379         estimate D2E/DX2                !
 ! A13   A(4,5,6)              120.9366         estimate D2E/DX2                !
 ! A14   A(4,5,46)             119.0461         estimate D2E/DX2                !
 ! A15   A(6,5,46)             120.0164         estimate D2E/DX2                !
 ! A16   A(1,6,5)              120.2645         estimate D2E/DX2                !
 ! A17   A(1,6,47)             120.3916         estimate D2E/DX2                !
 ! A18   A(5,6,47)             119.3428         estimate D2E/DX2                !
 ! A19   A(3,7,8)              120.8055         estimate D2E/DX2                !
 ! A20   A(3,7,11)             118.719          estimate D2E/DX2                !
 ! A21   A(8,7,11)             120.4621         estimate D2E/DX2                !
 ! A22   A(7,8,9)              117.3806         estimate D2E/DX2                !
 ! A23   A(7,8,14)             119.9788         estimate D2E/DX2                !
 ! A24   A(9,8,14)             122.5551         estimate D2E/DX2                !
 ! A25   A(8,9,10)             122.1716         estimate D2E/DX2                !
 ! A26   A(8,9,45)             118.8694         estimate D2E/DX2                !
 ! A27   A(10,9,45)            118.9516         estimate D2E/DX2                !
 ! A28   A(2,10,9)             120.7194         estimate D2E/DX2                !
 ! A29   A(2,10,44)            118.5259         estimate D2E/DX2                !
 ! A30   A(9,10,44)            120.7534         estimate D2E/DX2                !
 ! A31   A(7,11,12)            119.3742         estimate D2E/DX2                !
 ! A32   A(7,11,26)            120.4217         estimate D2E/DX2                !
 ! A33   A(12,11,26)           120.177          estimate D2E/DX2                !
 ! A34   A(11,12,13)           119.9764         estimate D2E/DX2                !
 ! A35   A(11,12,18)           119.4094         estimate D2E/DX2                !
 ! A36   A(13,12,18)           120.5979         estimate D2E/DX2                !
 ! A37   A(12,13,14)           120.9499         estimate D2E/DX2                !
 ! A38   A(12,13,15)           118.3464         estimate D2E/DX2                !
 ! A39   A(14,13,15)           120.7027         estimate D2E/DX2                !
 ! A40   A(8,14,13)            117.8553         estimate D2E/DX2                !
 ! A41   A(8,14,19)            124.3158         estimate D2E/DX2                !
 ! A42   A(13,14,19)           117.8283         estimate D2E/DX2                !
 ! A43   A(13,15,16)           119.6824         estimate D2E/DX2                !
 ! A44   A(13,15,21)           120.1856         estimate D2E/DX2                !
 ! A45   A(16,15,21)           120.1321         estimate D2E/DX2                !
 ! A46   A(15,16,17)           121.4231         estimate D2E/DX2                !
 ! A47   A(15,16,38)           117.5023         estimate D2E/DX2                !
 ! A48   A(17,16,38)           121.069          estimate D2E/DX2                !
 ! A49   A(16,17,18)           120.9156         estimate D2E/DX2                !
 ! A50   A(16,17,39)           121.3023         estimate D2E/DX2                !
 ! A51   A(18,17,39)           117.7818         estimate D2E/DX2                !
 ! A52   A(12,18,17)           118.8244         estimate D2E/DX2                !
 ! A53   A(12,18,28)           120.455          estimate D2E/DX2                !
 ! A54   A(17,18,28)           120.7205         estimate D2E/DX2                !
 ! A55   A(14,19,20)           119.3188         estimate D2E/DX2                !
 ! A56   A(14,19,25)           123.7088         estimate D2E/DX2                !
 ! A57   A(20,19,25)           116.8744         estimate D2E/DX2                !
 ! A58   A(19,20,21)           120.3737         estimate D2E/DX2                !
 ! A59   A(19,20,22)           120.4947         estimate D2E/DX2                !
 ! A60   A(21,20,22)           119.0636         estimate D2E/DX2                !
 ! A61   A(15,21,20)           120.108          estimate D2E/DX2                !
 ! A62   A(15,21,37)           120.7667         estimate D2E/DX2                !
 ! A63   A(20,21,37)           119.0638         estimate D2E/DX2                !
 ! A64   A(20,22,23)           120.5487         estimate D2E/DX2                !
 ! A65   A(20,22,35)           118.8408         estimate D2E/DX2                !
 ! A66   A(23,22,35)           120.6041         estimate D2E/DX2                !
 ! A67   A(22,23,24)           119.4666         estimate D2E/DX2                !
 ! A68   A(22,23,34)           120.8792         estimate D2E/DX2                !
 ! A69   A(24,23,34)           119.6436         estimate D2E/DX2                !
 ! A70   A(23,24,25)           120.5008         estimate D2E/DX2                !
 ! A71   A(23,24,33)           119.2541         estimate D2E/DX2                !
 ! A72   A(25,24,33)           120.2444         estimate D2E/DX2                !
 ! A73   A(19,25,24)           121.7668         estimate D2E/DX2                !
 ! A74   A(19,25,36)           119.4373         estimate D2E/DX2                !
 ! A75   A(24,25,36)           118.7885         estimate D2E/DX2                !
 ! A76   A(11,26,27)           119.6154         estimate D2E/DX2                !
 ! A77   A(11,26,29)           120.9479         estimate D2E/DX2                !
 ! A78   A(27,26,29)           119.4364         estimate D2E/DX2                !
 ! A79   A(26,27,28)           119.4829         estimate D2E/DX2                !
 ! A80   A(26,27,32)           119.6134         estimate D2E/DX2                !
 ! A81   A(28,27,32)           120.9006         estimate D2E/DX2                !
 ! A82   A(18,28,27)           120.758          estimate D2E/DX2                !
 ! A83   A(18,28,40)           120.5006         estimate D2E/DX2                !
 ! A84   A(27,28,40)           118.7409         estimate D2E/DX2                !
 ! A85   A(4,29,26)            118.9701         estimate D2E/DX2                !
 ! A86   A(4,29,30)            121.5433         estimate D2E/DX2                !
 ! A87   A(26,29,30)           119.4736         estimate D2E/DX2                !
 ! A88   A(29,30,31)           120.8169         estimate D2E/DX2                !
 ! A89   A(29,30,43)           119.1644         estimate D2E/DX2                !
 ! A90   A(31,30,43)           120.0173         estimate D2E/DX2                !
 ! A91   A(30,31,32)           120.4311         estimate D2E/DX2                !
 ! A92   A(30,31,42)           119.1855         estimate D2E/DX2                !
 ! A93   A(32,31,42)           120.3818         estimate D2E/DX2                !
 ! A94   A(27,32,31)           120.191          estimate D2E/DX2                !
 ! A95   A(27,32,41)           119.1374         estimate D2E/DX2                !
 ! A96   A(31,32,41)           120.6716         estimate D2E/DX2                !
 ! D1    D(6,1,2,3)             -0.1762         estimate D2E/DX2                !
 ! D2    D(6,1,2,10)           178.7707         estimate D2E/DX2                !
 ! D3    D(48,1,2,3)           179.7923         estimate D2E/DX2                !
 ! D4    D(48,1,2,10)           -1.2608         estimate D2E/DX2                !
 ! D5    D(2,1,6,5)             -0.9287         estimate D2E/DX2                !
 ! D6    D(2,1,6,47)           179.4597         estimate D2E/DX2                !
 ! D7    D(48,1,6,5)           179.1033         estimate D2E/DX2                !
 ! D8    D(48,1,6,47)           -0.5083         estimate D2E/DX2                !
 ! D9    D(1,2,3,4)              1.6669         estimate D2E/DX2                !
 ! D10   D(1,2,3,7)           -178.1992         estimate D2E/DX2                !
 ! D11   D(10,2,3,4)          -177.3055         estimate D2E/DX2                !
 ! D12   D(10,2,3,7)             2.8284         estimate D2E/DX2                !
 ! D13   D(1,2,10,9)           176.6481         estimate D2E/DX2                !
 ! D14   D(1,2,10,44)           -3.7764         estimate D2E/DX2                !
 ! D15   D(3,2,10,9)            -4.3901         estimate D2E/DX2                !
 ! D16   D(3,2,10,44)          175.1854         estimate D2E/DX2                !
 ! D17   D(2,3,4,5)             -2.0685         estimate D2E/DX2                !
 ! D18   D(2,3,4,29)           176.9518         estimate D2E/DX2                !
 ! D19   D(7,3,4,5)            177.7953         estimate D2E/DX2                !
 ! D20   D(7,3,4,29)            -3.1844         estimate D2E/DX2                !
 ! D21   D(2,3,7,8)              3.6232         estimate D2E/DX2                !
 ! D22   D(2,3,7,11)          -175.0496         estimate D2E/DX2                !
 ! D23   D(4,3,7,8)           -176.2398         estimate D2E/DX2                !
 ! D24   D(4,3,7,11)             5.0874         estimate D2E/DX2                !
 ! D25   D(3,4,5,6)              1.0008         estimate D2E/DX2                !
 ! D26   D(3,4,5,46)          -179.3358         estimate D2E/DX2                !
 ! D27   D(29,4,5,6)          -178.0034         estimate D2E/DX2                !
 ! D28   D(29,4,5,46)            1.66           estimate D2E/DX2                !
 ! D29   D(3,4,29,26)           -0.9949         estimate D2E/DX2                !
 ! D30   D(3,4,29,30)         -179.6731         estimate D2E/DX2                !
 ! D31   D(5,4,29,26)          178.0102         estimate D2E/DX2                !
 ! D32   D(5,4,29,30)           -0.668          estimate D2E/DX2                !
 ! D33   D(4,5,6,1)              0.5135         estimate D2E/DX2                !
 ! D34   D(4,5,6,47)          -179.8708         estimate D2E/DX2                !
 ! D35   D(46,5,6,1)          -179.1467         estimate D2E/DX2                !
 ! D36   D(46,5,6,47)            0.469          estimate D2E/DX2                !
 ! D37   D(3,7,8,9)             -8.2751         estimate D2E/DX2                !
 ! D38   D(3,7,8,14)           175.0025         estimate D2E/DX2                !
 ! D39   D(11,7,8,9)           170.3746         estimate D2E/DX2                !
 ! D40   D(11,7,8,14)           -6.3478         estimate D2E/DX2                !
 ! D41   D(3,7,11,12)          175.2751         estimate D2E/DX2                !
 ! D42   D(3,7,11,26)           -2.8332         estimate D2E/DX2                !
 ! D43   D(8,7,11,12)           -3.4024         estimate D2E/DX2                !
 ! D44   D(8,7,11,26)          178.4893         estimate D2E/DX2                !
 ! D45   D(7,8,9,10)             6.8259         estimate D2E/DX2                !
 ! D46   D(7,8,9,45)          -172.1746         estimate D2E/DX2                !
 ! D47   D(14,8,9,10)         -176.5425         estimate D2E/DX2                !
 ! D48   D(14,8,9,45)            4.4569         estimate D2E/DX2                !
 ! D49   D(7,8,14,13)           13.4981         estimate D2E/DX2                !
 ! D50   D(7,8,14,19)         -166.2023         estimate D2E/DX2                !
 ! D51   D(9,8,14,13)         -163.0487         estimate D2E/DX2                !
 ! D52   D(9,8,14,19)           17.2509         estimate D2E/DX2                !
 ! D53   D(8,9,10,2)            -0.5023         estimate D2E/DX2                !
 ! D54   D(8,9,10,44)          179.9316         estimate D2E/DX2                !
 ! D55   D(45,9,10,2)          178.4974         estimate D2E/DX2                !
 ! D56   D(45,9,10,44)          -1.0686         estimate D2E/DX2                !
 ! D57   D(7,11,12,13)           5.794          estimate D2E/DX2                !
 ! D58   D(7,11,12,18)        -175.6635         estimate D2E/DX2                !
 ! D59   D(26,11,12,13)       -176.0929         estimate D2E/DX2                !
 ! D60   D(26,11,12,18)          2.4496         estimate D2E/DX2                !
 ! D61   D(7,11,26,27)         178.4879         estimate D2E/DX2                !
 ! D62   D(7,11,26,29)          -1.2982         estimate D2E/DX2                !
 ! D63   D(12,11,26,27)          0.3947         estimate D2E/DX2                !
 ! D64   D(12,11,26,29)       -179.3914         estimate D2E/DX2                !
 ! D65   D(11,12,13,14)          1.6765         estimate D2E/DX2                !
 ! D66   D(11,12,13,15)       -178.6803         estimate D2E/DX2                !
 ! D67   D(18,12,13,14)       -176.8484         estimate D2E/DX2                !
 ! D68   D(18,12,13,15)          2.7949         estimate D2E/DX2                !
 ! D69   D(11,12,18,17)        176.5705         estimate D2E/DX2                !
 ! D70   D(11,12,18,28)         -3.31           estimate D2E/DX2                !
 ! D71   D(13,12,18,17)         -4.8964         estimate D2E/DX2                !
 ! D72   D(13,12,18,28)        175.2232         estimate D2E/DX2                !
 ! D73   D(12,13,14,8)         -11.1898         estimate D2E/DX2                !
 ! D74   D(12,13,14,19)        168.5303         estimate D2E/DX2                !
 ! D75   D(15,13,14,8)         169.1753         estimate D2E/DX2                !
 ! D76   D(15,13,14,19)        -11.1046         estimate D2E/DX2                !
 ! D77   D(12,13,15,16)          1.4003         estimate D2E/DX2                !
 ! D78   D(12,13,15,21)       -178.5872         estimate D2E/DX2                !
 ! D79   D(14,13,15,16)       -178.9555         estimate D2E/DX2                !
 ! D80   D(14,13,15,21)          1.057          estimate D2E/DX2                !
 ! D81   D(8,14,19,20)        -166.6288         estimate D2E/DX2                !
 ! D82   D(8,14,19,25)          17.0864         estimate D2E/DX2                !
 ! D83   D(13,14,19,20)         13.6708         estimate D2E/DX2                !
 ! D84   D(13,14,19,25)       -162.614          estimate D2E/DX2                !
 ! D85   D(13,15,16,17)         -3.6114         estimate D2E/DX2                !
 ! D86   D(13,15,16,38)        177.2449         estimate D2E/DX2                !
 ! D87   D(21,15,16,17)        176.3761         estimate D2E/DX2                !
 ! D88   D(21,15,16,38)         -2.7676         estimate D2E/DX2                !
 ! D89   D(13,15,21,20)          6.6041         estimate D2E/DX2                !
 ! D90   D(13,15,21,37)       -176.2719         estimate D2E/DX2                !
 ! D91   D(16,15,21,20)       -173.3834         estimate D2E/DX2                !
 ! D92   D(16,15,21,37)          3.7407         estimate D2E/DX2                !
 ! D93   D(15,16,17,18)          1.4804         estimate D2E/DX2                !
 ! D94   D(15,16,17,39)       -178.7414         estimate D2E/DX2                !
 ! D95   D(38,16,17,18)       -179.4063         estimate D2E/DX2                !
 ! D96   D(38,16,17,39)          0.3718         estimate D2E/DX2                !
 ! D97   D(16,17,18,12)          2.7467         estimate D2E/DX2                !
 ! D98   D(16,17,18,28)       -177.3731         estimate D2E/DX2                !
 ! D99   D(39,17,18,12)       -177.039          estimate D2E/DX2                !
 ! D100  D(39,17,18,28)          2.8412         estimate D2E/DX2                !
 ! D101  D(12,18,28,27)          1.266          estimate D2E/DX2                !
 ! D102  D(12,18,28,40)       -178.9897         estimate D2E/DX2                !
 ! D103  D(17,18,28,27)       -178.6122         estimate D2E/DX2                !
 ! D104  D(17,18,28,40)          1.1321         estimate D2E/DX2                !
 ! D105  D(14,19,20,21)         -6.4261         estimate D2E/DX2                !
 ! D106  D(14,19,20,22)        176.6008         estimate D2E/DX2                !
 ! D107  D(25,19,20,21)        170.1095         estimate D2E/DX2                !
 ! D108  D(25,19,20,22)         -6.8636         estimate D2E/DX2                !
 ! D109  D(14,19,25,24)       -178.5939         estimate D2E/DX2                !
 ! D110  D(14,19,25,36)          2.4092         estimate D2E/DX2                !
 ! D111  D(20,19,25,24)          5.0374         estimate D2E/DX2                !
 ! D112  D(20,19,25,36)       -173.9594         estimate D2E/DX2                !
 ! D113  D(19,20,21,15)         -3.8514         estimate D2E/DX2                !
 ! D114  D(19,20,21,37)        178.9757         estimate D2E/DX2                !
 ! D115  D(22,20,21,15)        173.1646         estimate D2E/DX2                !
 ! D116  D(22,20,21,37)         -4.0082         estimate D2E/DX2                !
 ! D117  D(19,20,22,23)          3.9848         estimate D2E/DX2                !
 ! D118  D(19,20,22,35)       -176.933          estimate D2E/DX2                !
 ! D119  D(21,20,22,23)       -173.0275         estimate D2E/DX2                !
 ! D120  D(21,20,22,35)          6.0547         estimate D2E/DX2                !
 ! D121  D(20,22,23,24)          1.0615         estimate D2E/DX2                !
 ! D122  D(20,22,23,34)        179.875          estimate D2E/DX2                !
 ! D123  D(35,22,23,24)       -178.0044         estimate D2E/DX2                !
 ! D124  D(35,22,23,34)          0.809          estimate D2E/DX2                !
 ! D125  D(22,23,24,25)         -2.9637         estimate D2E/DX2                !
 ! D126  D(22,23,24,33)        176.7289         estimate D2E/DX2                !
 ! D127  D(34,23,24,25)        178.208          estimate D2E/DX2                !
 ! D128  D(34,23,24,33)         -2.0994         estimate D2E/DX2                !
 ! D129  D(23,24,25,19)         -0.1914         estimate D2E/DX2                !
 ! D130  D(23,24,25,36)        178.8117         estimate D2E/DX2                !
 ! D131  D(33,24,25,19)       -179.8809         estimate D2E/DX2                !
 ! D132  D(33,24,25,36)         -0.8777         estimate D2E/DX2                !
 ! D133  D(11,26,27,28)         -2.4401         estimate D2E/DX2                !
 ! D134  D(11,26,27,32)        178.1933         estimate D2E/DX2                !
 ! D135  D(29,26,27,28)        177.3493         estimate D2E/DX2                !
 ! D136  D(29,26,27,32)         -2.0174         estimate D2E/DX2                !
 ! D137  D(11,26,29,4)           3.2167         estimate D2E/DX2                !
 ! D138  D(11,26,29,30)       -178.0773         estimate D2E/DX2                !
 ! D139  D(27,26,29,4)        -176.5698         estimate D2E/DX2                !
 ! D140  D(27,26,29,30)          2.1362         estimate D2E/DX2                !
 ! D141  D(26,27,28,18)          1.6135         estimate D2E/DX2                !
 ! D142  D(26,27,28,40)       -178.1352         estimate D2E/DX2                !
 ! D143  D(32,27,28,18)       -179.0282         estimate D2E/DX2                !
 ! D144  D(32,27,28,40)          1.2231         estimate D2E/DX2                !
 ! D145  D(26,27,32,31)          0.5411         estimate D2E/DX2                !
 ! D146  D(26,27,32,41)       -179.4625         estimate D2E/DX2                !
 ! D147  D(28,27,32,31)       -178.8164         estimate D2E/DX2                !
 ! D148  D(28,27,32,41)          1.18           estimate D2E/DX2                !
 ! D149  D(4,29,30,31)         177.8884         estimate D2E/DX2                !
 ! D150  D(4,29,30,43)          -1.6785         estimate D2E/DX2                !
 ! D151  D(26,29,30,31)         -0.7832         estimate D2E/DX2                !
 ! D152  D(26,29,30,43)        179.6499         estimate D2E/DX2                !
 ! D153  D(29,30,31,32)         -0.7155         estimate D2E/DX2                !
 ! D154  D(29,30,31,42)        179.7357         estimate D2E/DX2                !
 ! D155  D(43,30,31,32)        178.8477         estimate D2E/DX2                !
 ! D156  D(43,30,31,42)         -0.7011         estimate D2E/DX2                !
 ! D157  D(30,31,32,27)          0.8354         estimate D2E/DX2                !
 ! D158  D(30,31,32,41)       -179.161          estimate D2E/DX2                !
 ! D159  D(42,31,32,27)       -179.6213         estimate D2E/DX2                !
 ! D160  D(42,31,32,41)          0.3824         estimate D2E/DX2                !
 --------------------------------------------------------------------------------
 Trust Radius=3.00D-01 FncErr=1.00D-07 GrdErr=1.00D-06
 Number of steps in this run=    288 maximum allowed number of steps=    288.
 GradGradGradGradGradGradGradGradGradGradGradGradGradGradGradGradGradGrad

 Leave Link  103 at Sat Jul 27 13:28:21 2019, MaxMem=  4194304000 cpu:         0.3
 (Enter /home/minenky/programs//g09/l202.exe)
                          Input orientation:                          
 ---------------------------------------------------------------------
 Center     Atomic      Atomic             Coordinates (Angstroms)
 Number     Number       Type             X           Y           Z
 ---------------------------------------------------------------------
      1          6           0        2.375614   -4.092840   -0.261791
      2          6           0        1.351999   -3.121962   -0.288574
      3          6           0        1.663314   -1.760646   -0.106934
      4          6           0        3.022128   -1.380478    0.066780
      5          6           0        4.006040   -2.356703    0.097269
      6          6           0        3.682445   -3.710881   -0.061495
      7          6           0        0.609621   -0.786516   -0.097441
      8          6           0       -0.731508   -1.179560   -0.191154
      9          6           0       -0.995391   -2.557241   -0.477428
     10          6           0       -0.007748   -3.489227   -0.520438
     11          6           0        0.955790    0.600854   -0.019126
     12          6           0       -0.050924    1.563974   -0.108900
     13          6           0       -1.424454    1.161344   -0.152672
     14          6           0       -1.782861   -0.194751   -0.071406
     15          6           0       -2.429407    2.178976   -0.274021
     16          6           0       -2.033717    3.569953   -0.379096
     17          6           0       -0.744426    3.940092   -0.293824
     18          6           0        0.303419    2.954061   -0.124727
     19          6           0       -3.177017   -0.512670    0.132505
     20          6           0       -4.149906    0.495709   -0.047108
     21          6           0       -3.756088    1.838345   -0.290284
     22          6           0       -5.531348    0.193920    0.076259
     23          6           0       -5.939477   -1.058558    0.450585
     24          6           0       -4.975315   -2.045132    0.735870
     25          6           0       -3.639084   -1.777339    0.582816
     26          6           0        2.321384    0.999429    0.108782
     27          6           0        2.645975    2.371615    0.152263
     28          6           0        1.613293    3.339819    0.015610
     29          6           0        3.360958    0.032529    0.188575
     30          6           0        4.670000    0.451830    0.352300
     31          6           0        4.983893    1.818325    0.423878
     32          6           0        3.994716    2.766160    0.317545
     33          1           0       -5.304033   -3.029010    1.086846
     34          1           0       -7.003327   -1.296636    0.549372
     35          1           0       -6.264860    0.984936   -0.118502
     36          1           0       -2.910637   -2.560732    0.832183
     37          1           0       -4.529671    2.601329   -0.443521
     38          1           0       -2.827882    4.313257   -0.516741
     39          1           0       -0.449394    4.994123   -0.353132
     40          1           0        1.883189    4.403260    0.020162
     41          1           0        4.236989    3.834094    0.359172
     42          1           0        6.027939    2.120070    0.558066
     43          1           0        5.470242   -0.301363    0.419297
     44          1           0       -0.236329   -4.538429   -0.740871
     45          1           0       -2.028715   -2.867421   -0.684896
     46          1           0        5.054729   -2.054408    0.243267
     47          1           0        4.480142   -4.460343   -0.030872
     48          1           0        2.116493   -5.148370   -0.401344
 ---------------------------------------------------------------------
                    Distance matrix (angstroms):
                    1          2          3          4          5
     1  C    0.000000
     2  C    1.411066   0.000000
     3  C    2.443456   1.408223   0.000000
     4  C    2.807641   2.438929   1.421647   0.000000
     5  C    2.408606   2.788984   2.425974   1.386373   0.000000
     6  C    1.376160   2.414408   2.807556   2.425542   1.401327
     7  C    3.752002   2.458041   1.435022   2.489970   3.746874
     8  C    4.259859   2.850161   2.465751   3.767848   4.890115
     9  C    3.710558   2.421739   2.800097   4.221539   5.038334
    10  C    2.472178   1.427430   2.439554   3.737886   4.216001
    11  C    4.909740   3.753525   2.466776   2.864055   4.250261
    12  C    6.157191   4.894740   3.740550   4.259614   5.645633
    13  C    6.485281   5.106258   4.251403   5.126510   6.475291
    14  C    5.703005   4.294541   3.785422   4.951057   6.181737
    15  C    7.900889   6.511466   5.683213   6.519593   7.881956
    16  C    8.841626   7.500200   6.492873   7.089932   8.475308
    17  C    8.617637   7.366657   6.191168   6.528815   7.897437
    18  C    7.346536   6.168017   4.906944   5.120184   6.477878
    19  C    6.618519   5.243825   5.004356   6.259937   7.416065
    20  C    7.980180   6.589143   6.236044   7.414251   8.641560
    21  C    8.530975   7.120197   6.508170   7.512158   8.831719
    22  C    9.000591   7.649094   7.457684   8.697170   9.872583
    23  C    8.880038   7.613778   7.655468   8.975594  10.036101
    24  C    7.695751   6.499535   6.697958   8.052859   9.009419
    25  C    6.500115   5.241969   5.347098   6.692946   7.682405
    26  C    5.106022   4.252466   2.845629   2.481282   3.755240
    27  C    6.483341   5.661105   4.255396   3.771870   4.920345
    28  C    7.476797   6.474212   5.102182   4.926321   6.179181
    29  C    4.265254   3.770199   2.486925   1.458159   2.476469
    30  C    5.127897   4.918520   3.761131   2.480797   2.897195
    31  C    6.497317   6.172899   4.910910   3.769400   4.300433
    32  C    7.071280   6.482385   5.109559   4.266546   5.127609
    33  H    7.869406   6.797293   7.181768   8.548869   9.386625
    34  H    9.820452   8.593337   8.703833  10.037413  11.069521
    35  H   10.023080   8.655177   8.390131   9.585283  10.802986
    36  H    5.611470   4.443101   4.737416   6.097257   6.958603
    37  H    9.619141   8.208173   7.582425   8.552476   9.885995
    38  H    9.889583   8.532641   7.565123   8.184237   9.569111
    39  H    9.516402   8.313846   7.081742   7.270717   8.607462
    40  H    8.515027   7.550261   6.169136   5.894996   7.085869
    41  H    8.166186   7.558403   6.175935   5.362195   6.200637
    42  H    7.253405   7.075317   5.878106   4.640054   4.933752
    43  H    4.941244   5.041506   4.110855   2.698522   2.544015
    44  H    2.692641   2.175715   3.424412   4.608958   4.843563
    45  H    4.591164   3.413369   3.897444   5.318555   6.106626
    46  H    3.404107   3.890081   3.422080   2.148673   1.101111
    47  H    2.148818   3.412176   3.902392   3.408945   2.160206
    48  H    1.095794   2.168755   3.430557   3.903374   3.407699
                    6          7          8          9         10
     6  C    0.000000
     7  C    4.242104   0.000000
     8  C    5.089929   1.400676   0.000000
     9  C    4.835911   2.419901   1.431639   0.000000
    10  C    3.725222   2.804410   2.442707   1.358634   0.000000
    11  C    5.101716   1.432049   2.458952   3.740417   4.231842
    12  C    6.462537   2.441568   2.827886   4.244083   5.070115
    13  C    7.058846   2.816855   2.441616   3.757317   4.875461
    14  C    6.498680   2.464718   1.445522   2.523158   3.769115
    15  C    8.490602   4.249825   3.764239   4.952729   6.168766
    16  C    9.262069   5.103468   4.928381   6.215327   7.345512
    17  C    8.842429   4.920654   5.120698   6.504770   7.469192
    18  C    7.472835   3.753188   4.261727   5.673249   6.462923
    19  C    7.570892   3.803485   2.555389   3.051521   4.396645
    20  C    8.890518   4.929476   3.809556   4.410968   5.767254
    21  C    9.283211   5.097695   4.273834   5.194001   6.518132
    22  C   10.008018   6.221167   4.999642   5.333888   6.665716
    23  C    9.993919   6.577615   5.248753   5.248927   6.483552
    24  C    8.852531   5.785329   4.429275   4.192152   5.323574
    25  C    7.599901   4.415424   3.067632   2.953214   4.163452
    26  C    4.905966   2.482390   3.762726   4.898422   5.095959
    27  C    6.173874   3.766017   4.912858   6.160332   6.468713
    28  C    7.348449   4.248150   5.095648   6.467120   7.039246
    29  C    3.765502   2.884873   4.285048   5.111580   4.924798
    30  C    4.298215   4.268775   5.668603   6.468355   6.178586
    31  C    5.701006   5.117737   6.483162   7.463898   7.346994
    32  C    6.495633   4.924692   6.177757   7.339738   7.473406
    33  H    9.085176   6.434487   5.095266   4.608027   5.553899
    34  H   10.972121   7.657386   6.316470   6.224045   7.408784
    35  H   11.000128   7.099083   5.942079   6.359493   7.702671
    36  H    6.752054   4.050218   2.775510   2.320186   3.334435
    37  H   10.364785   6.165191   5.365151   6.253249   7.586077
    38  H   10.343036   6.164408   5.888280   7.110789   8.296501
    39  H    9.640241   5.882405   6.182248   7.572098   8.496486
    40  H    8.311635   5.345052   6.168401   7.548668   8.133833
    41  H    7.577014   5.892057   7.079940   8.302221   8.510143
    42  H    6.315473   6.183535   7.559036   8.501568   8.310048
    43  H    3.879716   4.912029   6.293297   6.906339   6.407336
    44  H    4.062409   3.899549   3.439388   2.137916   1.096205
    45  H    5.806668   3.411170   2.185269   1.098641   2.120848
    46  H    2.172544   4.634934   5.868102   6.113608   5.317012
    47  H    1.094966   5.336887   6.160399   5.814006   4.617780
    48  H    2.152691   4.624802   4.889452   4.050131   2.698025
                   11         12         13         14         15
    11  C    0.000000
    12  C    1.396113   0.000000
    13  C    2.448989   1.431996   0.000000
    14  C    2.852355   2.468628   1.405009   0.000000
    15  C    3.743661   2.462250   1.435351   2.468532   0.000000
    16  C    4.228744   2.833447   2.494768   3.785577   1.449975
    17  C    3.757220   2.482152   2.864228   4.269044   2.437433
    18  C    2.444243   1.434626   2.490013   3.777622   2.844536
    19  C    4.282876   3.760743   2.440313   1.444411   2.822967
    20  C    5.106855   4.236350   2.807543   2.465811   2.417642
    21  C    4.879211   3.719733   2.431827   2.841656   1.369809
    22  C    6.500589   5.652112   4.225505   3.771475   3.699349
    23  C    7.107671   6.470375   5.067278   4.277393   4.829831
    24  C    6.538292   6.163514   4.866169   3.777217   5.034344
    25  C    5.208743   4.951538   3.752517   2.525501   4.224916
    26  C    1.428309   2.448253   3.758441   4.278243   4.909978
    27  C    2.453914   2.827323   4.257480   5.123559   5.096894
    28  C    2.816992   2.436954   3.741922   4.902511   4.216025
    29  C    2.480114   3.751634   4.928574   5.155397   6.192702
    30  C    3.735709   4.872032   6.156360   6.499000   7.333273
    31  C    4.231324   5.069313   6.467685   7.077199   7.454807
    32  C    3.746594   4.241970   5.671326   6.503743   6.477970
    33  H    7.320142   7.079581   5.843510   4.666179   6.102340
    34  H    8.201902   7.546675   6.136640   5.371478   5.803326
    35  H    7.231541   6.240863   4.843740   4.634889   4.020027
    36  H    5.066519   5.106545   4.127048   2.772403   4.890818
    37  H    5.854254   4.609473   3.435188   3.937193   2.149004
    38  H    5.324071   3.928917   3.469397   4.648928   2.184686
    39  H    4.624599   3.461842   3.959940   5.364878   3.442639
    40  H    3.914064   3.437877   4.634695   5.881327   4.861324
    41  H    4.622036   4.874293   6.281522   7.256417   6.897911
    42  H    5.326149   6.140575   7.547348   8.170877   8.498384
    43  H    4.624553   5.851646   7.071316   7.270466   8.308865
    44  H    5.324875   6.137840   5.851925   4.659129   7.081742
    45  H    4.623792   4.886787   4.108447   2.753176   5.078927
    46  H    4.890866   6.267727   7.244145   7.092953   8.614024
    47  H    6.167407   7.538504   8.153677   7.577739   9.585486
    48  H    5.877662   7.059659   7.239657   6.312858   8.623887
                   16         17         18         19         20
    16  C    0.000000
    17  C    1.344077   0.000000
    18  C    2.430273   1.448734   0.000000
    19  C    4.270443   5.091792   4.919129   0.000000
    20  C    3.746925   4.849942   5.087399   1.412657   0.000000
    21  C    2.443955   3.672527   4.213292   2.457915   1.420176
    22  C    4.882455   6.089777   6.457808   2.458720   1.419393
    23  C    6.112810   7.247703   7.443510   2.833787   2.421984
    24  C    6.436251   7.401594   7.321038   2.438516   2.783923
    25  C    5.665334   6.468118   6.199201   1.419744   2.413398
    26  C    5.080602   4.267175   2.819095   5.702580   6.492736
    27  C    4.859822   3.762172   2.429719   6.498210   7.052856
    28  C    3.675518   2.452533   1.372688   6.148366   6.427080
    29  C    6.475966   5.688228   4.240525   6.560907   7.528821
    30  C    7.429498   6.473133   5.055269   7.909124   8.829053
    31  C    7.277350   6.150662   4.847443   8.492285   9.241073
    32  C    6.121551   4.920504   3.722443   7.887885   8.463025
    33  H    7.509346   8.441839   8.289064   3.430296   3.878338
    34  H    7.017319   8.204153   8.480057   3.927980   3.422031
    35  H    4.965158   6.264094   6.857097   3.441018   2.171974
    36  H    6.310427   6.944139   6.454362   2.180611   3.413322
    37  H    2.678091   4.017807   4.856419   3.443612   2.176005
    38  H    1.096425   2.128317   3.436006   4.881905   4.067183
    39  H    2.130496   1.096150   2.186493   6.164458   5.832939
    40  H    4.024420   2.686536   2.148684   7.055826   7.188304
    41  H    6.319538   5.025150   4.059752   8.597280   9.036033
    42  H    8.244436   7.064214   5.825107   9.583509  10.324404
    43  H    8.481387   7.557817   6.131054   8.654594   9.664373
    44  H    8.313082   8.505488   7.537133   5.061340   6.414042
    45  H    6.444635   6.938628   6.296212   2.744375   4.027017
    46  H    9.070106   8.357792   6.913402   8.375611   9.555768
    47  H   10.345881   9.896088   8.510418   8.616431   9.951906
    48  H    9.655770   9.528723   8.307415   7.056625   8.440904
                   21         22         23         24         25
    21  C    0.000000
    22  C    2.447455   0.000000
    23  C    3.702448   1.369449   0.000000
    24  C    4.197726   2.399503   1.408661   0.000000
    25  C    3.721446   2.779051   2.413698   1.371368   0.000000
    26  C    6.148064   7.894004   8.520209   7.931229   6.592596
    27  C    6.439459   8.462668   9.250139   8.827928   7.543286
    28  C    5.583748   7.806808   8.750957   8.539685   7.354896
    29  C    7.358166   8.894479   9.367881   8.608696   7.240969
    30  C    8.563544  10.208340  10.716899   9.970659   8.605998
    31  C    8.769133  10.645648  11.295892  10.686883   9.343971
    32  C    7.829767   9.870184  10.645861  10.187491   8.887556
    33  H    5.289969   3.385297   2.165940   1.095105   2.143078
    34  H    4.591044   2.147630   1.094631   2.169761   3.398577
    35  H    2.655514   1.096211   2.146067   3.402087   3.875140
    36  H    4.618073   3.876552   3.402354   2.130261   1.098418
    37  H    1.097295   2.658786   4.022654   4.814474   4.584675
    38  H    2.652931   4.962793   6.282845   6.827124   6.241990
    39  H    4.571336   7.003755   8.211085   8.439254   7.543396
    40  H    6.202952   8.526256   9.550436   9.441031   8.307339
    41  H    8.264023  10.428390  11.291893  10.934978   9.673196
    42  H    9.824777  11.728568  12.382821  11.766568  10.423135
    43  H    9.497738  11.018075  11.434860  10.594839   9.229576
    44  H    7.297601   7.148430   6.786381   5.554753   4.577609
    45  H    5.028297   4.713767   4.455935   3.373008   2.321349
    46  H    9.647211  10.823488  11.041162  10.042137   8.704851
    47  H   10.371896  11.040994  10.971435   9.789116   8.573036
    48  H    9.127635   9.341180   9.074745   7.824134   6.742335
                   26         27         28         29         30
    26  C    0.000000
    27  C    1.410725   0.000000
    28  C    2.446937   1.422155   0.000000
    29  C    1.421963   2.446190   3.744652   0.000000
    30  C    2.423874   2.796831   4.218684   1.384272   0.000000
    31  C    2.803361   2.417802   3.720561   2.424532   1.403909
    32  C    2.442327   1.414951   2.468081   2.809096   2.411087
    33  H    8.679396   9.656233   9.463558   9.233741  10.589483
    34  H    9.613337  10.330672   9.799375  10.455393  11.805190
    35  H    8.589264   9.022149   8.223670   9.677693  10.957966
    36  H    6.369623   7.460984   7.479922   6.817048   8.171406
    37  H    7.057483   7.204000   6.204206   8.322277   9.480907
    38  H    6.155297   5.846422   4.577665   7.558032   8.478448
    39  H    4.883458   4.088311   2.669714   6.279303   6.880280
    40  H    3.433064   2.174137   1.097165   4.616866   4.846692
    41  H    3.430388   2.170940   2.691863   3.904924   3.409876
    42  H    3.898236   3.415498   4.612065   3.406926   2.160871
    43  H    3.421081   3.897770   5.319515   2.147975   1.100989
    44  H    6.158869   7.540164   8.127740   5.890500   7.083061
    45  H    5.874164   7.071143   7.230820   6.182332   7.547581
    46  H    4.100632   5.039847   6.402577   2.688337   2.537939
    47  H    5.872721   7.076253   8.310446   4.635367   4.930751
    48  H    6.172329   7.558903   8.513308   5.360822   6.200856
                   31         32         33         34         35
    31  C    0.000000
    32  C    1.374107   0.000000
    33  H   11.391998  10.983741   0.000000
    34  H   12.385967  11.726764   2.485477   0.000000
    35  H   11.292616  10.422178   4.299746   2.489369   0.000000
    36  H    9.036950   8.736391   2.452036   4.292788   4.972562
    37  H    9.585060   8.559881   5.885777   4.722175   2.393584
    38  H    8.254289   7.045381   7.912756   7.074025   4.800951
    39  H    6.341140   5.016348   9.487451   9.129195   7.067409
    40  H    4.056999   2.688322  10.393874  10.570669   8.837130
    41  H    2.150670   1.095862  11.775518  12.357397  10.891956
    42  H    1.095029   2.146923  12.458179  13.471742  12.363623
    43  H    2.174772   3.405471  11.134213  12.513889  11.817632
    44  H    8.307567   8.507585   5.594687   7.613555   8.199884
    45  H    8.506601   8.308059   3.727317   5.360742   5.753815
    46  H    3.877589   4.936296  10.438651  12.085720  11.726107
    47  H    6.315238   7.251164   9.951286  11.925425  12.046319
    48  H    7.578774   8.166046   7.859428   9.945393  10.389635
                   36         37         38         39         40
    36  H    0.000000
    37  H    5.558377   0.000000
    38  H    7.005582   2.414983   0.000000
    39  H    8.033588   4.730993   2.479426   0.000000
    40  H    8.493370   6.677329   4.742421   2.435039   0.000000
    41  H    9.602401   8.889226   7.135070   4.880085   2.445250
    42  H   10.093721  10.615927   9.186449   7.144670   4.762483
    43  H    8.689900  10.448365   9.540952   7.980033   5.929565
    44  H    3.679363   8.336506   9.225981   9.542813   9.220917
    45  H    1.781397   6.018327   7.226969   8.025472   8.286308
    46  H    8.003140  10.677466  10.161709   8.962860   7.197910
    47  H    7.679648  11.454877  11.428882  10.667291   9.236353
    48  H    5.787011  10.209363  10.676262  10.462136   9.563772
                   41         42         43         44         45
    41  H    0.000000
    42  H    2.486954   0.000000
    43  H    4.315848   2.488699   0.000000
    44  H    9.556140   9.233845   7.201643   0.000000
    45  H    9.233603   9.556657   8.002390   2.451132   0.000000
    46  H    5.946141   4.297965   1.810194   5.927409   7.190108
    47  H    8.307162   6.785600   4.298844   4.770250   6.732782
    48  H    9.260645   8.309639   5.951013   2.454196   4.739818
                   46         47         48
    46  H    0.000000
    47  H    2.488740   0.000000
    48  H    4.315247   2.489471   0.000000
 Stoichiometry    C32H16
 Framework group  C1[X(C32H16)]
 Deg. of freedom   138
 Full point group                 C1      NOp   1
 Largest Abelian subgroup         C1      NOp   1
 Largest concise Abelian subgroup C1      NOp   1
                         Standard orientation:                         
 ---------------------------------------------------------------------
 Center     Atomic      Atomic             Coordinates (Angstroms)
 Number     Number       Type             X           Y           Z
 ---------------------------------------------------------------------
      1          6           0       -2.518907    4.002038   -0.265493
      2          6           0       -1.462742    3.066653   -0.291526
      3          6           0       -1.727549    1.695512   -0.110023
      4          6           0       -3.072718    1.269206    0.062787
      5          6           0       -4.089388    2.211291    0.092552
      6          6           0       -3.812079    3.575717   -0.066066
      7          6           0       -0.641238    0.757903   -0.099759
      8          6           0        0.685763    1.196477   -0.192581
      9          6           0        0.902679    2.582351   -0.478751
     10          6           0       -0.116160    3.480093   -0.522484
     11          6           0       -0.939919   -0.640469   -0.021604
     12          6           0        0.099133   -1.568680   -0.110639
     13          6           0        1.458154   -1.119418   -0.153498
     14          6           0        1.770025    0.248118   -0.072063
     15          6           0        2.497328   -2.102171   -0.274107
     16          6           0        2.149402   -3.505843   -0.379375
     17          6           0        0.873434   -3.919756   -0.294960
     18          6           0       -0.207561   -2.970049   -0.126632
     19          6           0        3.152382    0.613430    0.132780
     20          6           0        4.159234   -0.361171   -0.046116
     21          6           0        3.811624   -1.716471   -0.289486
     22          6           0        5.529489   -0.012417    0.078175
     23          6           0        5.894389    1.253269    0.452710
     24          6           0        4.896930    2.206379    0.737285
     25          6           0        3.570720    1.893143    0.583336
     26          6           0       -2.291205   -1.085403    0.105396
     27          6           0       -2.568816   -2.467865    0.148731
     28          6           0       -1.503605   -3.400272    0.012835
     29          6           0       -3.363220   -0.154535    0.184429
     30          6           0       -4.657303   -0.618253    0.347285
     31          6           0       -4.924436   -1.994661    0.418725
     32          6           0       -3.903421   -2.908195    0.313118
     33          1           0        5.191647    3.200912    1.088430
     34          1           0        6.949428    1.527512    0.552209
     35          1           0        6.289698   -0.777950   -0.116043
     36          1           0        2.815797    2.651232    0.832164
     37          1           0        4.610895   -2.452619   -0.442154
     38          1           0        2.968561   -4.221621   -0.516439
     39          1           0        0.614579   -4.983243   -0.354412
     40          1           0       -1.737061   -4.472303    0.017261
     41          1           0       -4.109142   -3.983773    0.354637
     42          1           0       -5.957669   -2.331851    0.552218
     43          1           0       -5.482826    0.107198    0.413695
     44          1           0        0.076637    4.536476   -0.742820
     45          1           0        1.924959    2.927602   -0.685532
     46          1           0       -5.127251    1.873394    0.237853
     47          1           0       -4.634905    4.297525   -0.036027
     48          1           0       -2.295857    5.065791   -0.404928
 ---------------------------------------------------------------------
 Rotational constants (GHZ):      0.2373406      0.1275987      0.0840263
 Leave Link  202 at Sat Jul 27 13:28:21 2019, MaxMem=  4194304000 cpu:         0.5
 (Enter /home/minenky/programs//g09/l301.exe)
 Standard basis: def2TZVP (5D, 7F)
 ======================================================================================================
                                       Pseudopotential Parameters
 ======================================================================================================
  Center     Atomic      Valence      Angular      Power
  Number     Number     Electrons     Momentum     of R      Exponent        Coefficient   SO-Coeffient
 ======================================================================================================
    1          6
                                   No pseudopotential on this center.
    2          6
                                   No pseudopotential on this center.
    3          6
                                   No pseudopotential on this center.
    4          6
                                   No pseudopotential on this center.
    5          6
                                   No pseudopotential on this center.
    6          6
                                   No pseudopotential on this center.
    7          6
                                   No pseudopotential on this center.
    8          6
                                   No pseudopotential on this center.
    9          6
                                   No pseudopotential on this center.
   10          6
                                   No pseudopotential on this center.
   11          6
                                   No pseudopotential on this center.
   12          6
                                   No pseudopotential on this center.
   13          6
                                   No pseudopotential on this center.
   14          6
                                   No pseudopotential on this center.
   15          6
                                   No pseudopotential on this center.
   16          6
                                   No pseudopotential on this center.
   17          6
                                   No pseudopotential on this center.
   18          6
                                   No pseudopotential on this center.
   19          6
                                   No pseudopotential on this center.
   20          6
                                   No pseudopotential on this center.
   21          6
                                   No pseudopotential on this center.
   22          6
                                   No pseudopotential on this center.
   23          6
                                   No pseudopotential on this center.
   24          6
                                   No pseudopotential on this center.
   25          6
                                   No pseudopotential on this center.
   26          6
                                   No pseudopotential on this center.
   27          6
                                   No pseudopotential on this center.
   28          6
                                   No pseudopotential on this center.
   29          6
                                   No pseudopotential on this center.
   30          6
                                   No pseudopotential on this center.
   31          6
                                   No pseudopotential on this center.
   32          6
                                   No pseudopotential on this center.
   33          1
                                   No pseudopotential on this center.
   34          1
                                   No pseudopotential on this center.
   35          1
                                   No pseudopotential on this center.
   36          1
                                   No pseudopotential on this center.
   37          1
                                   No pseudopotential on this center.
   38          1
                                   No pseudopotential on this center.
   39          1
                                   No pseudopotential on this center.
   40          1
                                   No pseudopotential on this center.
   41          1
                                   No pseudopotential on this center.
   42          1
                                   No pseudopotential on this center.
   43          1
                                   No pseudopotential on this center.
   44          1
                                   No pseudopotential on this center.
   45          1
                                   No pseudopotential on this center.
   46          1
                                   No pseudopotential on this center.
   47          1
                                   No pseudopotential on this center.
   48          1
                                   No pseudopotential on this center.
 ======================================================================================================
 Ernie: Thresh=  0.10000D-02 Tol=  0.10000D-05 Strict=F.
 AO basis set (Overlap normalization):
 Atom C1       Shell     1 S   6     bf    1 -     1         -4.760043637162          7.562755894145         -0.501709722825
      0.1357534968D+05  0.6064550360D-03
      0.2035233368D+04  0.4697908888D-02
      0.4632256236D+03  0.2433247765D-01
      0.1312001960D+03  0.9739996831D-01
      0.4285301589D+02  0.3019558425D+00
      0.1558418577D+02  0.6623360914D+00
 Atom C1       Shell     2 S   2     bf    2 -     2         -4.760043637162          7.562755894145         -0.501709722825
      0.6206713851D+01  0.6559530854D+00
      0.2576489653D+01  0.3758563329D+00
 Atom C1       Shell     3 S   1     bf    3 -     3         -4.760043637162          7.562755894145         -0.501709722825
      0.5769633942D+00  0.1000000000D+01
 Atom C1       Shell     4 S   1     bf    4 -     4         -4.760043637162          7.562755894145         -0.501709722825
      0.2297283136D+00  0.1000000000D+01
 Atom C1       Shell     5 S   1     bf    5 -     5         -4.760043637162          7.562755894145         -0.501709722825
      0.9516444003D-01  0.1000000000D+01
 Atom C1       Shell     6 P   4     bf    6 -     8         -4.760043637162          7.562755894145         -0.501709722825
      0.3469723224D+02  0.1132722000D-01
      0.7958262283D+01  0.7616965920D-01
      0.2378082688D+01  0.3019225220D+00
      0.8143320818D+00  0.7278502735D+00
 Atom C1       Shell     7 P   1     bf    9 -    11         -4.760043637162          7.562755894145         -0.501709722825
      0.2888754725D+00  0.1000000000D+01
 Atom C1       Shell     8 P   1     bf   12 -    14         -4.760043637162          7.562755894145         -0.501709722825
      0.1005682367D+00  0.1000000000D+01
 Atom C1       Shell     9 D   1     bf   15 -    19         -4.760043637162          7.562755894145         -0.501709722825
      0.1097000000D+01  0.1000000000D+01
 Atom C1       Shell    10 D   1     bf   20 -    24         -4.760043637162          7.562755894145         -0.501709722825
      0.3180000000D+00  0.1000000000D+01
 Atom C1       Shell    11 F   1     bf   25 -    31         -4.760043637162          7.562755894145         -0.501709722825
      0.7610000000D+00  0.1000000000D+01
 Atom C2       Shell    12 S   6     bf   32 -    32         -2.764181322750          5.795133505621         -0.550903871937
      0.1357534968D+05  0.6064550360D-03
      0.2035233368D+04  0.4697908888D-02
      0.4632256236D+03  0.2433247765D-01
      0.1312001960D+03  0.9739996831D-01
      0.4285301589D+02  0.3019558425D+00
      0.1558418577D+02  0.6623360914D+00
 Atom C2       Shell    13 S   2     bf   33 -    33         -2.764181322750          5.795133505621         -0.550903871937
      0.6206713851D+01  0.6559530854D+00
      0.2576489653D+01  0.3758563329D+00
 Atom C2       Shell    14 S   1     bf   34 -    34         -2.764181322750          5.795133505621         -0.550903871937
      0.5769633942D+00  0.1000000000D+01
 Atom C2       Shell    15 S   1     bf   35 -    35         -2.764181322750          5.795133505621         -0.550903871937
      0.2297283136D+00  0.1000000000D+01
 Atom C2       Shell    16 S   1     bf   36 -    36         -2.764181322750          5.795133505621         -0.550903871937
      0.9516444003D-01  0.1000000000D+01
 Atom C2       Shell    17 P   4     bf   37 -    39         -2.764181322750          5.795133505621         -0.550903871937
      0.3469723224D+02  0.1132722000D-01
      0.7958262283D+01  0.7616965920D-01
      0.2378082688D+01  0.3019225220D+00
      0.8143320818D+00  0.7278502735D+00
 Atom C2       Shell    18 P   1     bf   40 -    42         -2.764181322750          5.795133505621         -0.550903871937
      0.2888754725D+00  0.1000000000D+01
 Atom C2       Shell    19 P   1     bf   43 -    45         -2.764181322750          5.795133505621         -0.550903871937
      0.1005682367D+00  0.1000000000D+01
 Atom C2       Shell    20 D   1     bf   46 -    50         -2.764181322750          5.795133505621         -0.550903871937
      0.1097000000D+01  0.1000000000D+01
 Atom C2       Shell    21 D   1     bf   51 -    55         -2.764181322750          5.795133505621         -0.550903871937
      0.3180000000D+00  0.1000000000D+01
 Atom C2       Shell    22 F   1     bf   56 -    62         -2.764181322750          5.795133505621         -0.550903871937
      0.7610000000D+00  0.1000000000D+01
 Atom C3       Shell    23 S   6     bf   63 -    63         -3.264594808169          3.204054168998         -0.207913016691
      0.1357534968D+05  0.6064550360D-03
      0.2035233368D+04  0.4697908888D-02
      0.4632256236D+03  0.2433247765D-01
      0.1312001960D+03  0.9739996831D-01
      0.4285301589D+02  0.3019558425D+00
      0.1558418577D+02  0.6623360914D+00
 Atom C3       Shell    24 S   2     bf   64 -    64         -3.264594808169          3.204054168998         -0.207913016691
      0.6206713851D+01  0.6559530854D+00
      0.2576489653D+01  0.3758563329D+00
 Atom C3       Shell    25 S   1     bf   65 -    65         -3.264594808169          3.204054168998         -0.207913016691
      0.5769633942D+00  0.1000000000D+01
 Atom C3       Shell    26 S   1     bf   66 -    66         -3.264594808169          3.204054168998         -0.207913016691
      0.2297283136D+00  0.1000000000D+01
 Atom C3       Shell    27 S   1     bf   67 -    67         -3.264594808169          3.204054168998         -0.207913016691
      0.9516444003D-01  0.1000000000D+01
 Atom C3       Shell    28 P   4     bf   68 -    70         -3.264594808169          3.204054168998         -0.207913016691
      0.3469723224D+02  0.1132722000D-01
      0.7958262283D+01  0.7616965920D-01
      0.2378082688D+01  0.3019225220D+00
      0.8143320818D+00  0.7278502735D+00
 Atom C3       Shell    29 P   1     bf   71 -    73         -3.264594808169          3.204054168998         -0.207913016691
      0.2888754725D+00  0.1000000000D+01
 Atom C3       Shell    30 P   1     bf   74 -    76         -3.264594808169          3.204054168998         -0.207913016691
      0.1005682367D+00  0.1000000000D+01
 Atom C3       Shell    31 D   1     bf   77 -    81         -3.264594808169          3.204054168998         -0.207913016691
      0.1097000000D+01  0.1000000000D+01
 Atom C3       Shell    32 D   1     bf   82 -    86         -3.264594808169          3.204054168998         -0.207913016691
      0.3180000000D+00  0.1000000000D+01
 Atom C3       Shell    33 F   1     bf   87 -    93         -3.264594808169          3.204054168998         -0.207913016691
      0.7610000000D+00  0.1000000000D+01
 Atom C4       Shell    34 S   6     bf   94 -    94         -5.806595218485          2.398451732413          0.118649683513
      0.1357534968D+05  0.6064550360D-03
      0.2035233368D+04  0.4697908888D-02
      0.4632256236D+03  0.2433247765D-01
      0.1312001960D+03  0.9739996831D-01
      0.4285301589D+02  0.3019558425D+00
      0.1558418577D+02  0.6623360914D+00
 Atom C4       Shell    35 S   2     bf   95 -    95         -5.806595218485          2.398451732413          0.118649683513
      0.6206713851D+01  0.6559530854D+00
      0.2576489653D+01  0.3758563329D+00
 Atom C4       Shell    36 S   1     bf   96 -    96         -5.806595218485          2.398451732413          0.118649683513
      0.5769633942D+00  0.1000000000D+01
 Atom C4       Shell    37 S   1     bf   97 -    97         -5.806595218485          2.398451732413          0.118649683513
      0.2297283136D+00  0.1000000000D+01
 Atom C4       Shell    38 S   1     bf   98 -    98         -5.806595218485          2.398451732413          0.118649683513
      0.9516444003D-01  0.1000000000D+01
 Atom C4       Shell    39 P   4     bf   99 -   101         -5.806595218485          2.398451732413          0.118649683513
      0.3469723224D+02  0.1132722000D-01
      0.7958262283D+01  0.7616965920D-01
      0.2378082688D+01  0.3019225220D+00
      0.8143320818D+00  0.7278502735D+00
 Atom C4       Shell    40 P   1     bf  102 -   104         -5.806595218485          2.398451732413          0.118649683513
      0.2888754725D+00  0.1000000000D+01
 Atom C4       Shell    41 P   1     bf  105 -   107         -5.806595218485          2.398451732413          0.118649683513
      0.1005682367D+00  0.1000000000D+01
 Atom C4       Shell    42 D   1     bf  108 -   112         -5.806595218485          2.398451732413          0.118649683513
      0.1097000000D+01  0.1000000000D+01
 Atom C4       Shell    43 D   1     bf  113 -   117         -5.806595218485          2.398451732413          0.118649683513
      0.3180000000D+00  0.1000000000D+01
 Atom C4       Shell    44 F   1     bf  118 -   124         -5.806595218485          2.398451732413          0.118649683513
      0.7610000000D+00  0.1000000000D+01
 Atom C5       Shell    45 S   6     bf  125 -   125         -7.727823746560          4.178735095038          0.174897537224
      0.1357534968D+05  0.6064550360D-03
      0.2035233368D+04  0.4697908888D-02
      0.4632256236D+03  0.2433247765D-01
      0.1312001960D+03  0.9739996831D-01
      0.4285301589D+02  0.3019558425D+00
      0.1558418577D+02  0.6623360914D+00
 Atom C5       Shell    46 S   2     bf  126 -   126         -7.727823746560          4.178735095038          0.174897537224
      0.6206713851D+01  0.6559530854D+00
      0.2576489653D+01  0.3758563329D+00
 Atom C5       Shell    47 S   1     bf  127 -   127         -7.727823746560          4.178735095038          0.174897537224
      0.5769633942D+00  0.1000000000D+01
 Atom C5       Shell    48 S   1     bf  128 -   128         -7.727823746560          4.178735095038          0.174897537224
      0.2297283136D+00  0.1000000000D+01
 Atom C5       Shell    49 S   1     bf  129 -   129         -7.727823746560          4.178735095038          0.174897537224
      0.9516444003D-01  0.1000000000D+01
 Atom C5       Shell    50 P   4     bf  130 -   132         -7.727823746560          4.178735095038          0.174897537224
      0.3469723224D+02  0.1132722000D-01
      0.7958262283D+01  0.7616965920D-01
      0.2378082688D+01  0.3019225220D+00
      0.8143320818D+00  0.7278502735D+00
 Atom C5       Shell    51 P   1     bf  133 -   135         -7.727823746560          4.178735095038          0.174897537224
      0.2888754725D+00  0.1000000000D+01
 Atom C5       Shell    52 P   1     bf  136 -   138         -7.727823746560          4.178735095038          0.174897537224
      0.1005682367D+00  0.1000000000D+01
 Atom C5       Shell    53 D   1     bf  139 -   143         -7.727823746560          4.178735095038          0.174897537224
      0.1097000000D+01  0.1000000000D+01
 Atom C5       Shell    54 D   1     bf  144 -   148         -7.727823746560          4.178735095038          0.174897537224
      0.3180000000D+00  0.1000000000D+01
 Atom C5       Shell    55 F   1     bf  149 -   155         -7.727823746560          4.178735095038          0.174897537224
      0.7610000000D+00  0.1000000000D+01
 Atom C6       Shell    56 S   6     bf  156 -   156         -7.203785641493          6.757126647195         -0.124847055036
      0.1357534968D+05  0.6064550360D-03
      0.2035233368D+04  0.4697908888D-02
      0.4632256236D+03  0.2433247765D-01
[...]
 003961,0.00026105,-0.00016285,0.00020984,0.00049122,-0.00545143,-0.001
 91710,-0.02827329,-0.00375906,-0.00670923,-0.07192444,-0.07902579,-0.0
 2443824,0.02350949,0.00985589,0.00499745,-0.00148620,0.00032964,0.0001
 4778,0.00008050,0.00003145,-0.00005403,-0.00015047,-0.00020084,0.00016
 924,-0.00078234,0.00112598,0.00075110,-0.00012509,0.00008433,-0.000064
 27,0.00005099,-0.00007738,0.00000747,-0.00004916,0.00006758,-0.0000092
 7,0.00001643,0.00004165,-0.00002055,0.00025052,-0.00085167,-0.00038039
 ,0.00036158,-0.00028896,0.00013195,0.00010183,0.00003675,0.00000994,-0
 .00024420,-0.00005831,0.00001042,-0.00009757,0.00022481,-0.00013447,0.
 00035261,0.00017090,0.00004896,0.00104222,-0.00010128,-0.00056917,0.00
 008103,-0.00050136,0.00002458,-0.00017582,0.00002992,-0.00001687,0.000
 03850,-0.00008280,0.00000658,0.00008940,0.00001010,0.00000146,-0.00002
 517,-0.00000078,-0.00000639,-0.00000787,0.00002685,0.00000418,0.000034
 61,-0.00005836,0.00000305,-0.00006308,-0.00002832,0.00005160,-0.000033
 45,0.00002286,-0.00000304,-0.00001708,0.00000484,-0.00000233,-0.000012
 48,0.00086071,-0.00042741,0.00000253,0.00003050,-0.00000357,0.00000216
 ,0.00000204,-0.00000062,0.00001233,-0.00001009,0.00000310,-0.00000206,
 -0.00000809,0.00000412,-0.00001634,-0.00000827,-0.00000696,-0.00000316
 ,0.00000087,-0.00000020,-0.00001139,-0.00000200,-0.00000290,-0.0003131
 1,0.00045623,0.00160056,0.07296049,0.07977480,-0.00030057,0.00025194,0
 .00008527,0.00012396,-0.00187504,0.00954356,0.00104211,-0.00062228,-0.
 00076724,-0.00048160,0.00015285,-0.00070726,0.00016305,-0.00046847,0.0
 0008120,0.00043354,0.00040767,-0.00063561,-0.00068620,-0.00180374,0.00
 363125,-0.00661507,0.00216697,0.00178238,-0.07353953,-0.02605955,-0.05
 870158,0.00056794,-0.00036942,0.00513133,-0.00052212,0.00002904,0.0001
 3426,-0.00033043,-0.00009895,-0.00004854,0.00030741,0.00062604,-0.0000
 3002,0.00084056,-0.00018246,-0.00179909,0.00012193,0.00004225,0.000060
 60,0.00002881,-0.00005709,0.00000204,0.00000164,0.00003167,-0.00001003
 ,0.00003957,0.00015939,-0.00001496,-0.00041696,-0.00091604,-0.00013485
 ,0.00010218,0.00019316,0.00002972,-0.00001448,-0.00010620,0.00001662,-
 0.00030912,0.00002112,-0.00002868,0.00004651,0.00021977,-0.00011918,0.
 00022795,0.00004857,-0.00007331,0.00139985,-0.00060083,-0.00046639,0.0
 0009947,-0.00020518,0.00004169,-0.00000855,-0.00001112,-0.00004946,-0.
 00005686,-0.00004724,0.00002126,0.00000283,0.00001560,0.00002396,0.000
 00169,0.00000684,0.00001146,0.00001315,-0.00001881,-0.00001065,-0.0000
 2953,-0.00002404,0.00000437,0.00003855,0.00002007,0.00005610,-0.000053
 69,0.00003176,-0.00001473,0.00000350,0.00001795,-0.00000498,0.00224670
 ,-0.00131436,-0.00317849,0.00000225,0.00002532,-0.00000729,0.00000066,
 0.00000283,0.00000199,0.00000746,-0.00000521,0.00000502,-0.00000225,-0
 .00000367,-0.00000406,-0.00000699,-0.00000360,-0.00000120,-0.00000237,
 -0.00000123,-0.00000033,-0.00000563,0.00000002,0.00000281,0.00098833,0
 .00150096,-0.00531646,0.07456045,0.02883902,0.05119215,0.00166370,-0.0
 0138895,-0.00077629,0.00037527,0.00043854,0.00023308,-0.00071654,0.003
 89727,-0.00069309,-0.01764370,-0.00686192,-0.00327654,-0.32265758,-0.0
 6269500,-0.04127469,-0.00398411,0.00075752,-0.00085268,-0.00062598,-0.
 00088189,-0.00020473,-0.00021487,0.00030586,0.00005607,-0.00001378,0.0
 0011987,0.00001688,0.00009456,-0.00009157,0.00010051,-0.00001323,-0.00
 016263,-0.00001071,0.00001484,0.00001903,0.00000619,-0.00003341,0.0000
 3137,0.00000275,-0.00003371,-0.00009245,-0.00001292,0.00001904,-0.0000
 4058,0.00000761,-0.00000186,-0.00003462,0.00000406,0.00000789,0.000045
 44,-0.00000405,0.00000145,-0.00004638,0.00000864,-0.00000785,0.0000633
 6,0.00001557,-0.00001500,-0.00001146,0.00000424,-0.00001109,0.00003393
 ,-0.00000156,-0.00000365,0.00000601,-0.00000432,-0.00000261,0.00000033
 ,0.00000013,-0.00000002,0.00000571,-0.00000200,0.00000049,-0.00000316,
 0.00000995,0.00000046,0.00028487,0.00002375,-0.00010400,-0.00006893,-0
 .00003658,0.00004472,0.00009350,0.00000056,-0.00084365,-0.00174631,0.0
 0027460,-0.00025997,-0.00112155,-0.00015019,0.00066981,-0.00012092,0.0
 0010879,0.00001155,-0.00016099,0.00002341,-0.00000049,-0.00000217,-0.0
 0000056,-0.00000299,0.00000019,-0.00000004,-0.00000376,0.00000140,-0.0
 0000075,0.00000716,0.00000588,-0.00000993,-0.00000492,0.00000253,0.000
 00051,-0.00000044,0.00000637,-0.00000247,0.00000004,0.00000285,-0.0000
 0080,0.00000115,0.00000589,-0.00000264,0.00005126,-0.00004890,0.000000
 51,-0.00000874,0.00001435,-0.00000844,0.00146746,-0.00165609,-0.000128
 00,-0.00001504,-0.00001820,-0.00001097,-0.00001271,-0.00000364,-0.0000
 1714,0.34230234,-0.00064733,-0.00554293,-0.00139997,0.00079477,-0.0010
 2548,0.00013593,0.00318362,-0.00342220,-0.00068455,0.02087700,0.011595
 57,0.00337669,-0.06234111,-0.07417411,-0.01123161,-0.03123406,-0.00331
 845,-0.00447902,0.00080489,0.00102188,0.00012033,0.00016517,-0.0001048
 8,0.00006560,0.00009389,-0.00025825,-0.00004802,-0.00040332,0.00012855
 ,0.00004594,0.00001574,0.00003373,0.00001010,-0.00016716,0.00003439,-0
 .00001107,0.00011393,0.00006213,0.00000430,0.00015030,-0.00003201,-0.0
 0000231,-0.00004639,0.00003743,-0.00000273,-0.00000719,0.00003864,-0.0
 0000906,-0.00000431,-0.00005595,0.00000822,-0.00000498,0.00004929,-0.0
 0000451,-0.00001891,-0.00005489,-0.00000113,0.00000801,-0.00000401,0.0
 0000215,0.00001722,0.00000296,-0.00001157,0.00001516,-0.00000469,0.000
 00004,0.00000624,-0.00001383,0.00000637,-0.00001798,-0.00000933,0.0000
 0268,0.00000561,0.00002197,-0.00000709,-0.00001070,0.00004131,-0.00000
 369,0.00000096,0.00007552,0.00000515,-0.00003662,-0.00006633,-0.000005
 88,-0.00120177,0.00017711,0.00025636,0.00131435,-0.00244417,-0.0000161
 9,-0.00036233,0.00001695,0.00000691,-0.00008361,0.00011132,-0.00000377
 ,-0.00000054,-0.00000171,-0.00000050,-0.00000181,-0.00000129,0.0000008
 4,0.00000171,0.00000162,-0.00000105,0.00000034,-0.00000553,0.00000451,
 0.00000137,0.00000020,0.00000186,-0.00000433,-0.00000386,0.00000211,0.
 00000098,0.00000418,-0.00000023,-0.00000353,0.00001553,-0.00000424,-0.
 00004022,0.00004772,-0.00001996,0.00001236,-0.00001543,-0.00000374,-0.
 00125205,-0.00443593,-0.00072085,0.00007926,0.00003065,0.00001464,-0.0
 0000316,0.00001421,-0.00001034,0.07136780,0.08095502,-0.00053383,-0.00
 149640,0.00673396,0.00020062,0.00045572,-0.00095577,-0.00092157,-0.000
 83982,0.00748223,0.00003711,-0.00028402,0.00319897,-0.04118162,-0.0105
 7722,-0.04282010,-0.00429517,-0.00103806,0.00252804,-0.00035049,-0.000
 10798,0.00027200,0.00019857,0.00025547,-0.00030007,0.00002872,-0.00015
 341,0.00006727,0.00007961,0.00018108,-0.00085056,0.00003423,-0.0000129
 4,0.00002376,0.00002330,0.00002410,0.00003514,-0.00003628,0.00000649,0
 .00004810,-0.00002314,-0.00000530,-0.00002571,0.00001601,-0.00000293,-
 0.00001727,-0.00000431,-0.00000246,0.00000672,0.00000249,0.00000151,-0
 .00000317,-0.00002774,-0.00002353,-0.00005786,-0.00000284,0.00001781,-
 0.00007736,0.00000176,0.00001330,-0.00000556,-0.00001565,-0.00000441,0
 .00000645,-0.00000812,0.00000072,0.00000892,0.00000081,0.00000674,-0.0
 0000664,0.00000724,-0.00000160,-0.00000003,0.00000394,-0.00002342,0.00
 001931,-0.00001966,0.00013023,-0.00006398,-0.00009727,-0.00002759,0.00
 007133,0.00003926,-0.00000841,0.00003118,0.00020842,-0.00011798,-0.003
 78778,0.00017232,-0.00050092,-0.00025882,0.00006909,0.00012423,-0.0004
 4135,0.00008644,-0.00002855,-0.00002499,0.00000177,0.00000104,0.000001
 70,-0.00000070,0.00000035,0.00000020,-0.00000061,0.00000078,0.00000161
 ,-0.00000700,0.00000603,0.00000237,-0.00000046,-0.00000038,-0.00000181
 ,-0.00000023,0.00000070,0.00000034,-0.00000046,0.00000122,0.00000231,-
 0.00000478,0.00000451,0.00003125,-0.00001308,0.00000004,0.00011289,0.0
 0000120,0.00000024,-0.00000185,-0.00020476,-0.00069076,0.00180301,-0.0
 0000515,-0.00003288,0.00003619,-0.00001159,-0.00002689,0.00008356,0.04
 612904,0.01441490,0.03050954,-0.01611390,0.02347278,0.00009763,-0.0043
 7565,-0.00298145,-0.00222050,-0.00038975,-0.00079235,-0.00000014,0.000
 89872,-0.00225427,-0.00101912,0.00881627,-0.00734198,0.00006471,-0.207
 27767,0.14090885,-0.00730897,0.00018507,-0.00004804,0.00016454,0.00002
 931,-0.00030140,-0.00009937,-0.00059900,-0.00005608,-0.00005640,-0.000
 13748,0.00138941,0.00019154,-0.00011091,0.00007837,-0.00002158,0.00011
 205,0.00002148,-0.00000541,-0.00007890,-0.00004442,-0.00000288,-0.0000
 4207,0.00009468,0.00000293,0.00002945,-0.00001556,0.00000413,-0.000005
 87,-0.00000057,-0.00000143,0.00000743,-0.00000280,0.00000081,-0.000005
 36,-0.00002713,0.00000522,0.00003950,0.00001455,-0.00000609,0.00000342
 ,0.00002665,0.00000042,-0.00002419,-0.00002101,0.00000446,-0.00001574,
 -0.00001318,0.00000384,-0.00001132,0.00001466,-0.00000728,0.00001818,0
 .00000848,0.00000143,-0.00002472,-0.00001945,0.00003039,-0.00000975,-0
 .00008169,0.00003848,0.00000217,-0.00001123,0.00000383,0.00001360,0.00
 000335,0.00000147,0.00040815,-0.00012652,0.00000023,-0.00002194,0.0000
 0838,-0.00000973,-0.00004456,0.00004801,0.00000080,0.00005413,0.000009
 04,0.00000527,-0.00000117,-0.00000308,0.00000202,-0.00000511,0.0000006
 3,-0.00000115,-0.00000237,0.00000243,-0.00000067,0.00000483,0.00001008
 ,-0.00002178,-0.00000363,0.00000245,-0.00000098,-0.00000336,0.00000295
 ,-0.00000053,0.00000064,0.00000442,-0.00000027,0.00000419,0.00000067,-
 0.00000048,-0.00000191,0.00000361,-0.00000060,0.00000491,0.00000074,-0
 .00000064,-0.00002243,-0.00000858,-0.00000565,-0.00001694,-0.00004984,
 -0.00001305,-0.00009241,0.00010115,0.00002085,0.00082569,0.00026251,0.
 00057561,0.21720921,-0.00778931,0.00988516,-0.00028014,-0.00246573,0.0
 0069604,-0.00125813,-0.00109598,-0.00015924,-0.00005053,-0.00269022,-0
 .00450522,-0.00150046,0.02381898,-0.01576589,0.00111406,0.14086588,-0.
 19473522,0.00152203,0.00018263,-0.00007603,0.00013076,0.00000280,-0.00
 024449,-0.00006326,-0.00017806,0.00020936,0.00005535,0.00005851,0.0003
 1787,0.00003294,-0.00010954,0.00010094,-0.00001779,0.00012494,-0.00001
 873,0.00000035,-0.00010612,-0.00005426,-0.00001532,-0.00006091,0.00010
 822,-0.00000407,0.00003441,-0.00000910,0.00000481,0.00000608,-0.000011
 19,0.00000311,-0.00000210,0.00001940,-0.00000249,-0.00001919,-0.000009
 27,0.00000258,0.00003337,0.00000471,0.00000395,0.00001371,0.00002796,-
 0.00000422,-0.00001982,-0.00002000,0.00000635,-0.00001705,-0.00000543,
 0.00000150,0.00000019,0.00001803,-0.00000846,0.00002158,-0.00000217,0.
 00000085,-0.00001059,-0.00001932,0.00000444,-0.00028089,-0.00040818,-0
 .00002030,0.00008034,-0.00005408,0.00001147,0.00000147,-0.00003673,0.0
 0000351,0.00146863,-0.00020137,0.00011564,-0.00001834,-0.00008021,-0.0
 0001611,-0.00002770,0.00007865,0.00000705,0.00003918,-0.00006204,0.000
 00163,0.00000131,0.00000276,0.00000067,0.00000256,0.00000104,-0.000000
 47,0.00000155,-0.00000213,0.00000071,-0.00000411,0.00000042,0.00000149
 ,0.00000211,-0.00000209,-0.00000114,0.00000429,-0.00000058,-0.00000024
 ,-0.00000084,-0.00000421,0.00000016,0.00001077,-0.00001823,0.00000207,
 -0.00000097,-0.00000866,-0.00000105,-0.00001626,-0.00002751,-0.0000039
 5,-0.00001003,-0.00000321,-0.00000817,0.00000932,-0.00000748,-0.000003
 69,-0.00003300,0.00002668,0.00000892,-0.00031892,0.00079932,0.00039930
 ,-0.15183649,0.20359094,-0.00347252,0.00402826,0.00297664,-0.00202390,
 -0.00145167,0.00821085,-0.00011630,-0.00013681,-0.00087495,-0.00093952
 ,-0.00140937,0.00668705,0.00346175,-0.00276622,0.00234724,-0.00728045,
 0.00134090,-0.03808338,0.00007939,0.00008140,-0.00087367,-0.00001274,-
 0.00008717,0.00007847,0.00002867,0.00017630,-0.00049442,-0.00000464,0.
 00011989,0.00020183,-0.00001797,0.00004142,0.00008626,0.00002708,-0.00
 000327,0.00005499,-0.00002823,-0.00003389,-0.00000639,-0.00002839,0.00
 003669,0.00007669,-0.00000509,0.00000288,-0.00000708,-0.00000028,-0.00
 000257,0.00000121,-0.00000017,0.00000321,-0.00000184,0.00000140,-0.000
 00341,-0.00000727,-0.00000203,0.00002071,0.00000866,0.00000054,-0.0000
 0934,-0.00000137,0.00000050,0.00000454,0.00000014,0.00000477,0.0000059
 6,-0.00000254,-0.00000082,-0.00000402,0.00000293,-0.00000472,0.0000028
 2,-0.00000525,0.00002104,0.00000075,-0.00001555,-0.00000644,-0.0000562
 5,-0.00032357,0.00001277,-0.00000454,-0.00001731,0.00000036,-0.0000036
 3,-0.00000291,0.00020427,-0.00009896,0.00023844,-0.00000191,-0.0000017
 9,0.00010229,-0.00000065,0.00000757,-0.00004842,0.00000305,-0.00000362
 ,0.00001580,0.00000082,0.00000032,0.00000040,0.,0.00000020,0.00000100,
 -0.00000083,0.00000062,0.00000063,0.00000519,0.00000059,0.00000308,-0.
 00000038,0.00000098,0.00000062,-0.00000008,0.00000062,0.00000087,0.000
 00003,0.00000019,0.00000061,0.00000095,-0.00000212,0.00000402,-0.00000
 091,-0.00000053,0.00000301,-0.00000287,-0.00000291,0.00001348,-0.00000
 493,0.00000426,-0.00000091,-0.00003062,-0.00003303,0.00009905,-0.00001
 208,0.00001620,-0.00001158,0.00048304,0.00047341,-0.00338258,0.0089239
 0,-0.00080300,0.02714150,-0.07560947,-0.06368842,-0.01338596,0.0087474
 3,0.02173827,0.00337632,-0.00304705,0.00271190,-0.00089255,-0.00108332
 ,0.00053365,0.00003410,-0.00517735,-0.00055914,-0.00187921,-0.00158180
 ,-0.03043120,-0.00427319,0.00056993,0.00105495,0.00014971,0.00012730,0
 .00026094,0.00005656,0.00013854,-0.00050577,-0.00007548,0.00105558,0.0
 0148663,0.00103557,-0.00026688,0.00006377,0.00000452,-0.00003024,0.000
 09246,-0.00000010,0.00008956,0.00005758,0.00001158,0.00003601,-0.00015
 922,-0.00002889,-0.00002185,-0.00000358,0.00000010,0.00000392,-0.00000
 162,0.00000152,0.00000373,0.00001591,-0.00000147,-0.00002518,0.0000295
 4,-0.00000286,-0.00003210,0.00000133,0.00000313,-0.00000759,-0.0000239
 6,0.00000407,0.00001400,0.00002821,-0.00000581,0.00001495,0.00000933,-
 0.00000337,0.00000514,-0.00001586,0.00000658,-0.00001791,-0.00000709,-
 0.00000242,0.00001321,0.00001955,-0.00002468,-0.00009088,-0.00006110,-
 0.00001321,0.00004732,-0.00001698,-0.00000434,-0.00001830,0.00000494,-
 0.00000006,0.00004442,-0.00014842,0.00013755,-0.00004453,0.00002575,-0
 .00002135,0.00008369,-0.00004186,0.00002150,-0.00004896,-0.00001527,-0
 .00000332,-0.00000336,0.00000109,0.00000068,0.00000282,-0.00000034,0.0
 0000138,0.00000099,-0.00000196,0.00000031,0.00000156,-0.00000005,0.000
 01809,0.00000142,-0.00000186,0.00000074,0.00000170,-0.00000134,-0.0000
 0015,-0.00000332,0.00000068,-0.00000070,0.00000110,-0.00000234,-0.0000
 0043,0.00000712,-0.00000678,-0.00000164,-0.00000410,-0.00000101,-0.000
 00150,0.00008825,0.00001858,-0.00000092,-0.00045346,-0.00054441,-0.000
 26892,-0.00000347,-0.00000495,-0.00003380,-0.00032320,-0.00139976,-0.0
 0015107,0.00077117,0.00032756,0.00073992,0.07602344,-0.06345517,-0.317
 13391,-0.04291460,-0.00799870,-0.01743740,-0.00357647,0.00379212,-0.00
 070588,-0.00044377,0.00057831,0.00033244,0.00025236,-0.00139676,0.0018
 4634,-0.00098500,0.00078412,-0.00384851,-0.00066426,-0.00096985,-0.000
 72521,-0.00015230,-0.00002814,0.00018257,0.00002530,0.00034731,0.00009
 390,0.00005030,-0.00193118,0.00093994,0.00018057,0.00035039,-0.0001503
 2,-0.00000791,-0.00008871,-0.00008708,-0.00000733,0.00002854,-0.000019
 31,-0.00001351,0.00002841,0.00006672,0.00005275,-0.00000689,0.00003257
 ,-0.00001087,0.00000840,-0.00000332,0.00000267,-0.00001557,-0.00000194
 ,-0.00000214,0.00004372,-0.00001217,0.00001993,-0.00002144,-0.00003779
 ,-0.00000230,-0.00000261,-0.00002769,-0.00000484,0.00003150,-0.0000175
 8,0.00000883,0.00000273,0.00001426,-0.00000115,0.00000610,-0.00000305,
 0.00000380,-0.00000306,0.00001670,-0.00000052,0.00002381,-0.00000333,0
 .00000146,0.00004662,0.00001041,-0.00000153,-0.00000165,-0.00000004,-0
 .00000743,-0.00000918,-0.00000122,-0.00000044,-0.00002282,0.00005838,0
 .00011958,-0.00003828,-0.00003945,-0.00001295,-0.00002121,0.00001281,0
 .00000696,0.00002327,-0.00000799,0.00000643,0.00000560,0.00000288,-0.0
 0000504,0.00000409,0.00000040,-0.00000219,0.00000188,-0.00000162,0.000
 00047,-0.00000619,-0.00000997,-0.00000488,0.00000354,-0.00000049,-0.00
 000121,0.00000384,-0.00000232,0.00000008,0.00000233,-0.00000847,0.0000
 0039,-0.00000048,-0.00000896,-0.00000160,-0.00000072,-0.00000852,-0.00
 000289,-0.00000542,-0.00000619,-0.00000130,0.00002899,0.00001067,-0.00
 000862,0.00105626,0.00033406,0.00028043,0.00004628,-0.00003134,-0.0000
 1485,0.00006738,-0.00032192,-0.00003865,-0.00045322,0.00066477,0.00054
 742,0.06916167,0.33604315,-0.01405606,-0.04272305,-0.04321005,0.000187
 48,0.00002887,0.00305933,-0.00054671,-0.00036765,0.00586447,-0.0002112
 9,0.00044072,-0.00099426,-0.00198557,-0.00094062,0.00772604,-0.0001290
 8,-0.00485519,0.00255727,-0.00017966,0.00022776,0.00009613,0.00009015,
 0.00019470,0.00002785,0.00017932,-0.00031982,-0.00014229,0.00044324,0.
 00105826,-0.00328602,0.00003077,-0.00004244,0.00010412,-0.00009004,0.0
 0001255,-0.00001007,0.00008867,0.00004523,0.00002716,0.00007501,-0.000
 09593,0.00002999,-0.00002303,0.00000906,-0.00000781,0.00000377,-0.0000
 0406,-0.00000259,-0.00000248,0.00000503,0.00000104,0.00002551,0.000008
 08,-0.00007865,-0.00006113,-0.00001150,0.00000007,0.00000027,-0.000036
 12,-0.00000201,0.00002336,0.00001664,-0.00000237,0.00000350,0.00000679
 ,-0.00000066,0.00000133,-0.00000504,-0.00000007,-0.00000807,0.00000722
 ,-0.00000086,0.00001293,0.00000402,0.00000727,-0.00004636,-0.00002628,
 0.00003830,0.00002266,0.00001709,0.00006778,-0.00002353,0.00000895,-0.
 00000728,0.00008331,-0.00003993,-0.00097515,0.00003355,-0.00000546,0.0
 0007068,0.00002455,-0.00003203,-0.00008283,-0.00002614,-0.00000372,-0.
 00002393,0.00000461,0.00000149,0.00000090,0.00000029,0.00000018,0.0000
 0047,-0.00000031,0.00000110,0.00000115,-0.00001062,-0.00000008,0.00000
 679,0.00000010,0.00000126,0.00000225,0.00000009,0.00000004,0.00000069,
 -0.00000044,-0.00000034,0.00000229,-0.00000109,-0.00000170,0.00001276,
 -0.00000276,-0.00000227,0.00001956,-0.00000119,-0.00000157,0.00000321,
 0.00000356,0.00000166,0.00011303,-0.00002360,-0.00020485,0.00018378,-0
 .00001474,-0.00005923,0.00019338,-0.00002781,-0.00027594,-0.00003508,0
 .00066020,0.00062730,-0.00419679,0.01547347,0.04733082,0.03284102\\0.0
 0000007,0.00000027,-0.00000031,0.00000044,-0.00000004,-0.00000004,0.00
 000018,0.00000028,-0.00000018,-0.00000019,0.00000037,-0.00000045,0.000
 00023,0.00000011,-0.00000051,0.00000038,0.00000044,-0.00000036,0.00000
 024,0.00000023,-0.00000005,-0.00000023,0.00000024,0.00000019,0.0000000
 7,-0.00000022,0.00000025,0.00000005,0.00000007,0.00000007,-0.00000019,
 -0.00000020,-0.00000024,-0.00000032,-0.00000031,-0.00000003,0.00000008
 ,-0.00000018,0.00000025,0.00000025,-0.00000017,0.00000009,-0.00000039,
 -0.00000021,0.00000030,-0.00000005,0.00000006,0.00000018,-0.00000062,-
 0.00000002,-0.00000005,0.00000004,0.00000007,-0.00000014,0.00000008,-0
 .00000052,0.00000049,-0.00000021,-0.00000070,0.00000068,0.00000007,-0.
 00000003,0.00000040,0.00000002,-0.00000031,0.00000080,0.00000020,-0.00
 000067,0.00000102,-0.00000021,-0.00000010,0.00000073,0.00000062,0.0000
 0016,0.00000050,0.00000013,0.00000007,-0.00000035,0.00000018,0.0000000
 7,-0.00000044,-0.00000060,0.00000017,-0.00000040,-0.00000027,0.0000002
 2,-0.00000056,0.00000011,0.00000046,-0.00000069,-0.00000005,0.00000012
 ,-0.00000079,-0.00000043,0.00000033,-0.00000074,0.00000049,-0.00000041
 ,0.00000088,0.00000019,-0.00000050,0.00000108,-0.00000005,-0.00000032,
 0.00000086,0.00000025,-0.00000029,0.00000054,-0.00000039,-0.00000029,0
 .00000061,-0.00000052,-0.00000026,0.00000028,-0.00000031,-0.00000003,-
 0.00000008,-0.00000026,0.00000021,-0.00000041,-0.00000019,0.00000039,-
 0.00000074,-0.00000001,0.00000049,-0.00000097,0.00000009,0.00000044,-0
 .00000083,0.00000013,-0.00000009,0.00000016,0.00000014,-0.00000015,0.0
 0000033,0.00000016,0.00000036,-0.00000068,0.00000035,0.00000029,-0.000
 00051,0.00000024,0.00000009,-0.00000012\\\@


 EDUCATION DOESN'T COST 
           ... IT PAYS!

 -- POSTMARK, UNIV. OF MISSISSIPPI, DEC 78
 Job cpu time:       7 days  2 hours 53 minutes 52.0 seconds.
 File lengths (MBytes):  RWF=   4419 Int=      0 D2E=      0 Chk=     85 Scr=      1
 Normal termination of Gaussian 09 at Sun Jul 28 08:52:18 2019.
