 Entering Gaussian System, Link 0=g09
 Initial command:
 /home/minenky/programs//g09/l1.exe "/local/scratch/minenky/m1_00_120864-24-6-C32H16_wB97XD/Gau-401098.inp" -scrdir="/local/scratch/minenky/m1_00_120864-24-6-C32H16_wB97XD/"
 Entering Link 1 = /home/minenky/programs//g09/l1.exe PID=    401099.
  
 Copyright (c) 1988,1990,1992,1993,1995,1998,2003,2009,2013,
            Gaussian, Inc.  All Rights Reserved.
  
 This is part of the Gaussian(R) 09 program.  It is based on
 the Gaussian(R) 03 system (copyright 2003, Gaussian, Inc.),
 the Gaussian(R) 98 system (copyright 1998, Gaussian, Inc.),
 the Gaussian(R) 94 system (copyright 1995, Gaussian, Inc.),
 the Gaussian 92(TM) system (copyright 1992, Gaussian, Inc.),
 the Gaussian 90(TM) system (copyright 1990, Gaussian, Inc.),
 the Gaussian 88(TM) system (copyright 1988, Gaussian, Inc.),
 the Gaussian 86(TM) system (copyright 1986, Carnegie Mellon
 University), and the Gaussian 82(TM) system (copyright 1983,
 Carnegie Mellon University). Gaussian is a federally registered
 trademark of Gaussian, Inc.
  
 This software contains proprietary and confidential information,
 including trade secrets, belonging to Gaussian, Inc.
  
 This software is provided under written license and may be
 used, copied, transmitted, or stored only in accord with that
 written license.
  
 The following legend is applicable only to US Government
 contracts under FAR:
  
                    RESTRICTED RIGHTS LEGEND
  
 Use, reproduction and disclosure by the US Government is
 subject to restrictions as set forth in subparagraphs (a)
 and (c) of the Commercial Computer Software - Restricted
 Rights clause in FAR 52.227-19.
  
 Gaussian, Inc.
 340 Quinnipiac St., Bldg. 40, Wallingford CT 06492
  
  
 ---------------------------------------------------------------
 Warning -- This program may not be used in any manner that
 competes with the business of Gaussian, Inc. or will provide
 assistance to any competitor of Gaussian, Inc.  The licensee
 of this program is prohibited from giving any competitor of
 Gaussian, Inc. access to this program.  By using this program,
 the user acknowledges that Gaussian, Inc. is engaged in the
 business of creating and licensing software in the field of
 computational chemistry and represents and warrants to the
 licensee that it is not a competitor of Gaussian, Inc. and that
 it will not use this program in any manner prohibited above.
 ---------------------------------------------------------------
  

 Cite this work as:
 Gaussian 09, Revision D.01,
 M. J. Frisch, G. W. Trucks, H. B. Schlegel, G. E. Scuseria, 
 M. A. Robb, J. R. Cheeseman, G. Scalmani, V. Barone, B. Mennucci, 
 G. A. Petersson, H. Nakatsuji, M. Caricato, X. Li, H. P. Hratchian, 
 A. F. Izmaylov, J. Bloino, G. Zheng, J. L. Sonnenberg, M. Hada, 
 M. Ehara, K. Toyota, R. Fukuda, J. Hasegawa, M. Ishida, T. Nakajima, 
 Y. Honda, O. Kitao, H. Nakai, T. Vreven, J. A. Montgomery, Jr., 
 J. E. Peralta, F. Ogliaro, M. Bearpark, J. J. Heyd, E. Brothers, 
 K. N. Kudin, V. N. Staroverov, T. Keith, R. Kobayashi, J. Normand, 
 K. Raghavachari, A. Rendell, J. C. Burant, S. S. Iyengar, J. Tomasi, 
 M. Cossi, N. Rega, J. M. Millam, M. Klene, J. E. Knox, J. B. Cross, 
 V. Bakken, C. Adamo, J. Jaramillo, R. Gomperts, R. E. Stratmann, 
 O. Yazyev, A. J. Austin, R. Cammi, C. Pomelli, J. W. Ochterski, 
 R. L. Martin, K. Morokuma, V. G. Zakrzewski, G. A. Voth, 
 P. Salvador, J. J. Dannenberg, S. Dapprich, A. D. Daniels, 
 O. Farkas, J. B. Foresman, J. V. Ortiz, J. Cioslowski, 
 and D. J. Fox, Gaussian, Inc., Wallingford CT, 2013.
 
 ******************************************
 Gaussian 09:  AM64L-G09RevD.01 24-Apr-2013
                27-Jul-2019 
 ******************************************
 %Mem=32000MB
 %NProcShared=16
 Will use up to   16 processors via shared memory.
 %Chk=m1_00_120864-24-6-C32H16_wB97XD
 ----------------------------------------------------------------------
 #P wB97XD/def2tzvp opt=(tight) freq integral(Grid=ultrafine) # SCF(Max
 Cycle=380) 5d 7f GFPrint
 ----------------------------------------------------------------------
 1/7=10,14=-1,18=20,19=15,26=4,38=1/1,3;
 2/9=110,12=2,17=6,18=5,40=1/2;
 3/5=44,7=101,8=11,11=2,16=1,24=100,25=1,30=1,71=1,74=-58,75=-5/1,2,3;
 4//1;
 5/5=2,7=380,38=5/2;
 6/7=2,8=2,9=2,10=2,28=1/1;
 7//1,2,3,16;
 1/7=10,14=-1,18=20,19=15,26=4/3(2);
 2/9=110/2;
 99//99;
 2/9=110/2;
 3/5=44,7=101,8=11,11=2,16=1,25=1,30=1,71=1,74=-58,75=-5/1,2,3;
 4/5=5,16=3,69=1/1;
 5/5=2,7=380,38=5/2;
 7//1,2,3,16;
 1/7=10,14=-1,18=20,19=15,26=4/3(-5);
 2/9=110/2;
 6/7=2,8=2,9=2,10=2,19=2,28=1/1;
 99/9=1/99;
 Leave Link    1 at Sat Jul 27 14:16:38 2019, MaxMem=  4194304000 cpu:         1.1
 (Enter /home/minenky/programs//g09/l101.exe)
 ---------------------------------------
 The PBEPBE optimization and frequencies
 ---------------------------------------
 Symbolic Z-matrix:
 Charge =  0 Multiplicity = 1
 C                     0.26766   1.78166   0. 
 C                    -1.10481   1.33914   0. 
 C                    -2.15119   2.23169   0. 
 C                    -3.4989    1.77353   0. 
 C                    -4.58545   2.67617   0. 
 C                    -5.88039   2.20627   0. 
 C                    -6.14638   0.82922   0. 
 C                     0.53723  -3.28914   0. 
 C                     1.82939  -2.82808   0. 
 C                    -0.54641  -2.38039   0. 
 C                    -0.27606  -0.99404   0. 
 C                    -1.36075  -0.07148   0. 
 C                    -1.8922   -2.84007   0. 
 C                    -2.93979  -1.94989   0. 
 C                    -2.6795   -0.54078   0. 
 C                    -3.7618    0.38563   0. 
 C                    -5.10338  -0.08374   0. 
 C                    -5.33962  -1.51171   0. 
 C                    -4.31871  -2.39248   0. 
 C                     1.06813  -0.5257    0. 
 C                     2.11655  -1.44388   0. 
 C                     1.3088    0.90671   0. 
 C                     3.50032  -0.9772    0. 
 C                     4.56022  -1.86167   0. 
 C                     5.89014  -1.39923   0. 
 C                     6.15706  -0.05548   0. 
 C                     2.69364   1.37739   0. 
 C                     3.7576    0.42618   0. 
 C                     5.09299   0.88365   0. 
 C                     5.35803   2.27944   0. 
 C                     4.32428   3.17652   0. 
 C                     2.98899   2.72524   0. 
 H                     0.46402   2.86652   0. 
 H                    -1.96109   3.31199   0. 
 H                    -4.38502   3.75355   0. 
 H                    -6.71855   2.9113    0. 
 H                    -7.18427   0.47757   0. 
 H                     0.33149  -4.36563   0. 
 H                     2.67361  -3.53515   0. 
 H                    -2.08112  -3.92069   0. 
 H                    -6.38095  -1.8541    0. 
 H                    -4.50511  -3.47272   0. 
 H                     4.36216  -2.94456   0. 
 H                     6.70686  -2.12863   0. 
 H                     7.18955   0.31179   0. 
 H                     6.39918   2.62139   0. 
 H                     4.52091   4.2537    0. 
 H                     2.16758   3.45841   0. 
 
 NAtoms=     48 NQM=       48 NQMF=       0 NMMI=      0 NMMIF=      0
                NMic=       0 NMicF=      0.
                    Isotopes and Nuclear Properties:
 (Nuclear quadrupole moments (NQMom) in fm**2, nuclear magnetic moments (NMagM)
  in nuclear magnetons)

  Atom         1           2           3           4           5           6           7           8           9          10
 IAtWgt=          12          12          12          12          12          12          12          12          12          12
 AtmWgt=  12.0000000  12.0000000  12.0000000  12.0000000  12.0000000  12.0000000  12.0000000  12.0000000  12.0000000  12.0000000
 NucSpn=           0           0           0           0           0           0           0           0           0           0
 AtZEff=   0.0000000   0.0000000   0.0000000   0.0000000   0.0000000   0.0000000   0.0000000   0.0000000   0.0000000   0.0000000
 NQMom=    0.0000000   0.0000000   0.0000000   0.0000000   0.0000000   0.0000000   0.0000000   0.0000000   0.0000000   0.0000000
 NMagM=    0.0000000   0.0000000   0.0000000   0.0000000   0.0000000   0.0000000   0.0000000   0.0000000   0.0000000   0.0000000
 AtZNuc=   6.0000000   6.0000000   6.0000000   6.0000000   6.0000000   6.0000000   6.0000000   6.0000000   6.0000000   6.0000000

  Atom        11          12          13          14          15          16          17          18          19          20
 IAtWgt=          12          12          12          12          12          12          12          12          12          12
 AtmWgt=  12.0000000  12.0000000  12.0000000  12.0000000  12.0000000  12.0000000  12.0000000  12.0000000  12.0000000  12.0000000
 NucSpn=           0           0           0           0           0           0           0           0           0           0
 AtZEff=   0.0000000   0.0000000   0.0000000   0.0000000   0.0000000   0.0000000   0.0000000   0.0000000   0.0000000   0.0000000
 NQMom=    0.0000000   0.0000000   0.0000000   0.0000000   0.0000000   0.0000000   0.0000000   0.0000000   0.0000000   0.0000000
 NMagM=    0.0000000   0.0000000   0.0000000   0.0000000   0.0000000   0.0000000   0.0000000   0.0000000   0.0000000   0.0000000
 AtZNuc=   6.0000000   6.0000000   6.0000000   6.0000000   6.0000000   6.0000000   6.0000000   6.0000000   6.0000000   6.0000000

  Atom        21          22          23          24          25          26          27          28          29          30
 IAtWgt=          12          12          12          12          12          12          12          12          12          12
 AtmWgt=  12.0000000  12.0000000  12.0000000  12.0000000  12.0000000  12.0000000  12.0000000  12.0000000  12.0000000  12.0000000
 NucSpn=           0           0           0           0           0           0           0           0           0           0
 AtZEff=   0.0000000   0.0000000   0.0000000   0.0000000   0.0000000   0.0000000   0.0000000   0.0000000   0.0000000   0.0000000
 NQMom=    0.0000000   0.0000000   0.0000000   0.0000000   0.0000000   0.0000000   0.0000000   0.0000000   0.0000000   0.0000000
 NMagM=    0.0000000   0.0000000   0.0000000   0.0000000   0.0000000   0.0000000   0.0000000   0.0000000   0.0000000   0.0000000
 AtZNuc=   6.0000000   6.0000000   6.0000000   6.0000000   6.0000000   6.0000000   6.0000000   6.0000000   6.0000000   6.0000000

  Atom        31          32          33          34          35          36          37          38          39          40
 IAtWgt=          12          12           1           1           1           1           1           1           1           1
 AtmWgt=  12.0000000  12.0000000   1.0078250   1.0078250   1.0078250   1.0078250   1.0078250   1.0078250   1.0078250   1.0078250
 NucSpn=           0           0           1           1           1           1           1           1           1           1
 AtZEff=   0.0000000   0.0000000   0.0000000   0.0000000   0.0000000   0.0000000   0.0000000   0.0000000   0.0000000   0.0000000
 NQMom=    0.0000000   0.0000000   0.0000000   0.0000000   0.0000000   0.0000000   0.0000000   0.0000000   0.0000000   0.0000000
 NMagM=    0.0000000   0.0000000   2.7928460   2.7928460   2.7928460   2.7928460   2.7928460   2.7928460   2.7928460   2.7928460
 AtZNuc=   6.0000000   6.0000000   1.0000000   1.0000000   1.0000000   1.0000000   1.0000000   1.0000000   1.0000000   1.0000000

  Atom        41          42          43          44          45          46          47          48
 IAtWgt=           1           1           1           1           1           1           1           1
 AtmWgt=   1.0078250   1.0078250   1.0078250   1.0078250   1.0078250   1.0078250   1.0078250   1.0078250
 NucSpn=           1           1           1           1           1           1           1           1
 AtZEff=   0.0000000   0.0000000   0.0000000   0.0000000   0.0000000   0.0000000   0.0000000   0.0000000
 NQMom=    0.0000000   0.0000000   0.0000000   0.0000000   0.0000000   0.0000000   0.0000000   0.0000000
 NMagM=    2.7928460   2.7928460   2.7928460   2.7928460   2.7928460   2.7928460   2.7928460   2.7928460
 AtZNuc=   1.0000000   1.0000000   1.0000000   1.0000000   1.0000000   1.0000000   1.0000000   1.0000000
 Leave Link  101 at Sat Jul 27 14:16:38 2019, MaxMem=  4194304000 cpu:         3.0
 (Enter /home/minenky/programs//g09/l103.exe)

 GradGradGradGradGradGradGradGradGradGradGradGradGradGradGradGradGradGrad
 Berny optimization.
 Initialization pass.
                           ----------------------------
                           !    Initial Parameters    !
                           ! (Angstroms and Degrees)  !
 --------------------------                            --------------------------
 ! Name  Definition              Value          Derivative Info.                !
 --------------------------------------------------------------------------------
 ! R1    R(1,2)                  1.4421         estimate D2E/DX2                !
 ! R2    R(1,22)                 1.36           estimate D2E/DX2                !
 ! R3    R(1,33)                 1.1025         estimate D2E/DX2                !
 ! R4    R(2,3)                  1.3753         estimate D2E/DX2                !
 ! R5    R(2,12)                 1.4336         estimate D2E/DX2                !
 ! R6    R(3,4)                  1.4235         estimate D2E/DX2                !
 ! R7    R(3,34)                 1.0969         estimate D2E/DX2                !
 ! R8    R(4,5)                  1.4126         estimate D2E/DX2                !
 ! R9    R(4,16)                 1.4126         estimate D2E/DX2                !
 ! R10   R(5,6)                  1.3776         estimate D2E/DX2                !
 ! R11   R(5,35)                 1.0959         estimate D2E/DX2                !
 ! R12   R(6,7)                  1.4025         estimate D2E/DX2                !
 ! R13   R(6,36)                 1.0952         estimate D2E/DX2                !
 ! R14   R(7,17)                 1.3861         estimate D2E/DX2                !
 ! R15   R(7,37)                 1.0958         estimate D2E/DX2                !
 ! R16   R(8,9)                  1.372          estimate D2E/DX2                !
 ! R17   R(8,10)                 1.4143         estimate D2E/DX2                !
 ! R18   R(8,38)                 1.096          estimate D2E/DX2                !
 ! R19   R(9,21)                 1.4137         estimate D2E/DX2                !
 ! R20   R(9,39)                 1.1012         estimate D2E/DX2                !
 ! R21   R(10,11)                1.4125         estimate D2E/DX2                !
 ! R22   R(10,13)                1.4221         estimate D2E/DX2                !
 ! R23   R(11,12)                1.424          estimate D2E/DX2                !
 ! R24   R(11,20)                1.4234         estimate D2E/DX2                !
 ! R25   R(12,15)                1.3998         estimate D2E/DX2                !
 ! R26   R(13,14)                1.3747         estimate D2E/DX2                !
 ! R27   R(13,40)                1.097          estimate D2E/DX2                !
 ! R28   R(14,15)                1.4329         estimate D2E/DX2                !
 ! R29   R(14,19)                1.4482         estimate D2E/DX2                !
 ! R30   R(15,16)                1.4246         estimate D2E/DX2                !
 ! R31   R(16,17)                1.4213         estimate D2E/DX2                !
 ! R32   R(17,18)                1.4474         estimate D2E/DX2                !
 ! R33   R(18,19)                1.3483         estimate D2E/DX2                !
 ! R34   R(18,41)                1.0962         estimate D2E/DX2                !
 ! R35   R(19,42)                1.0962         estimate D2E/DX2                !
 ! R36   R(20,21)                1.3937         estimate D2E/DX2                !
 ! R37   R(20,22)                1.4525         estimate D2E/DX2                !
 ! R38   R(21,23)                1.4603         estimate D2E/DX2                !
 ! R39   R(22,27)                1.4626         estimate D2E/DX2                !
 ! R40   R(23,24)                1.3805         estimate D2E/DX2                !
 ! R41   R(23,28)                1.4268         estimate D2E/DX2                !
 ! R42   R(24,25)                1.408          estimate D2E/DX2                !
 ! R43   R(24,43)                1.1009         estimate D2E/DX2                !
 ! R44   R(25,26)                1.37           estimate D2E/DX2                !
 ! R45   R(25,44)                1.095          estimate D2E/DX2                !
 ! R46   R(26,29)                1.4192         estimate D2E/DX2                !
 ! R47   R(26,45)                1.0959         estimate D2E/DX2                !
 ! R48   R(27,28)                1.4272         estimate D2E/DX2                !
 ! R49   R(27,32)                1.3798         estimate D2E/DX2                !
 ! R50   R(28,29)                1.4116         estimate D2E/DX2                !
 ! R51   R(29,30)                1.4207         estimate D2E/DX2                !
 ! R52   R(30,31)                1.3687         estimate D2E/DX2                !
 ! R53   R(30,46)                1.0959         estimate D2E/DX2                !
 ! R54   R(31,32)                1.4095         estimate D2E/DX2                !
 ! R55   R(31,47)                1.095          estimate D2E/DX2                !
 ! R56   R(32,48)                1.101          estimate D2E/DX2                !
 ! A1    A(2,1,22)             122.0861         estimate D2E/DX2                !
 ! A2    A(2,1,33)             118.1302         estimate D2E/DX2                !
 ! A3    A(22,1,33)            119.7838         estimate D2E/DX2                !
 ! A4    A(1,2,3)              121.6654         estimate D2E/DX2                !
 ! A5    A(1,2,12)             118.1543         estimate D2E/DX2                !
 ! A6    A(3,2,12)             120.1803         estimate D2E/DX2                !
 ! A7    A(2,3,4)              120.7607         estimate D2E/DX2                !
 ! A8    A(2,3,34)             120.4836         estimate D2E/DX2                !
 ! A9    A(4,3,34)             118.7557         estimate D2E/DX2                !
 ! A10   A(3,4,5)              121.5071         estimate D2E/DX2                !
 ! A11   A(3,4,16)             119.5014         estimate D2E/DX2                !
 ! A12   A(5,4,16)             118.9915         estimate D2E/DX2                !
 ! A13   A(4,5,6)              120.3381         estimate D2E/DX2                !
 ! A14   A(4,5,35)             119.179          estimate D2E/DX2                !
 ! A15   A(6,5,35)             120.4829         estimate D2E/DX2                !
 ! A16   A(5,6,7)              120.8769         estimate D2E/DX2                !
 ! A17   A(5,6,36)             119.9861         estimate D2E/DX2                !
 ! A18   A(7,6,36)             119.137          estimate D2E/DX2                !
 ! A19   A(6,7,17)             120.2637         estimate D2E/DX2                !
 ! A20   A(6,7,37)             119.6496         estimate D2E/DX2                !
 ! A21   A(17,7,37)            120.0867         estimate D2E/DX2                !
 ! A22   A(9,8,10)             120.3797         estimate D2E/DX2                !
 ! A23   A(9,8,38)             120.4568         estimate D2E/DX2                !
 ! A24   A(10,8,38)            119.1636         estimate D2E/DX2                !
 ! A25   A(8,9,21)             121.357          estimate D2E/DX2                !
 ! A26   A(8,9,39)             120.4157         estimate D2E/DX2                !
 ! A27   A(21,9,39)            118.2273         estimate D2E/DX2                !
 ! A28   A(8,10,11)            118.9488         estimate D2E/DX2                !
 ! A29   A(8,10,13)            121.1579         estimate D2E/DX2                !
 ! A30   A(11,10,13)           119.8933         estimate D2E/DX2                !
 ! A31   A(10,11,12)           119.3479         estimate D2E/DX2                !
 ! A32   A(10,11,20)           120.2441         estimate D2E/DX2                !
 ! A33   A(12,11,20)           120.408          estimate D2E/DX2                !
 ! A34   A(2,12,11)            120.099          estimate D2E/DX2                !
 ! A35   A(2,12,15)            119.8728         estimate D2E/DX2                !
 ! A36   A(11,12,15)           120.0283         estimate D2E/DX2                !
 ! A37   A(10,13,14)           120.7852         estimate D2E/DX2                !
 ! A38   A(10,13,40)           118.775          estimate D2E/DX2                !
 ! A39   A(14,13,40)           120.4398         estimate D2E/DX2                !
 ! A40   A(13,14,15)           119.8902         estimate D2E/DX2                !
 ! A41   A(13,14,19)           121.8485         estimate D2E/DX2                !
 ! A42   A(15,14,19)           118.2613         estimate D2E/DX2                !
 ! A43   A(12,15,14)           120.0552         estimate D2E/DX2                !
 ! A44   A(12,15,16)           119.8483         estimate D2E/DX2                !
 ! A45   A(14,15,16)           120.0965         estimate D2E/DX2                !
 ! A46   A(4,16,15)            119.8365         estimate D2E/DX2                !
 ! A47   A(4,16,17)            120.0088         estimate D2E/DX2                !
 ! A48   A(15,16,17)           120.1547         estimate D2E/DX2                !
 ! A49   A(7,17,16)            119.521          estimate D2E/DX2                !
 ! A50   A(7,17,18)            121.8028         estimate D2E/DX2                !
 ! A51   A(16,17,18)           118.6763         estimate D2E/DX2                !
 ! A52   A(17,18,19)           121.392          estimate D2E/DX2                !
 ! A53   A(17,18,41)           117.5939         estimate D2E/DX2                !
 ! A54   A(19,18,41)           121.0142         estimate D2E/DX2                !
 ! A55   A(14,19,18)           121.4192         estimate D2E/DX2                !
 ! A56   A(14,19,42)           117.5857         estimate D2E/DX2                !
 ! A57   A(18,19,42)           120.995          estimate D2E/DX2                !
 ! A58   A(11,20,21)           119.5793         estimate D2E/DX2                !
 ! A59   A(11,20,22)           118.747          estimate D2E/DX2                !
 ! A60   A(21,20,22)           121.6738         estimate D2E/DX2                !
 ! A61   A(9,21,20)            119.4911         estimate D2E/DX2                !
 ! A62   A(9,21,23)            120.3572         estimate D2E/DX2                !
 ! A63   A(20,21,23)           120.1517         estimate D2E/DX2                !
 ! A64   A(1,22,20)            120.5056         estimate D2E/DX2                !
 ! A65   A(1,22,27)            121.1851         estimate D2E/DX2                !
 ! A66   A(20,22,27)           118.3092         estimate D2E/DX2                !
 ! A67   A(21,23,24)           121.5185         estimate D2E/DX2                !
 ! A68   A(21,23,28)           119.026          estimate D2E/DX2                !
 ! A69   A(24,23,28)           119.4555         estimate D2E/DX2                !
 ! A70   A(23,24,25)           120.9819         estimate D2E/DX2                !
 ! A71   A(23,24,43)           119.4795         estimate D2E/DX2                !
 ! A72   A(25,24,43)           119.5386         estimate D2E/DX2                !
 ! A73   A(24,25,26)           120.4087         estimate D2E/DX2                !
 ! A74   A(24,25,44)           119.0589         estimate D2E/DX2                !
 ! A75   A(26,25,44)           120.5324         estimate D2E/DX2                !
 ! A76   A(25,26,29)           120.1964         estimate D2E/DX2                !
 ! A77   A(25,26,45)           120.8162         estimate D2E/DX2                !
 ! A78   A(29,26,45)           118.9875         estimate D2E/DX2                !
 ! A79   A(22,27,28)           119.4309         estimate D2E/DX2                !
 ! A80   A(22,27,32)           121.1317         estimate D2E/DX2                !
 ! A81   A(28,27,32)           119.4374         estimate D2E/DX2                !
 ! A82   A(23,28,27)           121.4085         estimate D2E/DX2                !
 ! A83   A(23,28,29)           119.2988         estimate D2E/DX2                !
 ! A84   A(27,28,29)           119.2927         estimate D2E/DX2                !
 ! A85   A(26,29,28)           119.6587         estimate D2E/DX2                !
 ! A86   A(26,29,30)           120.68           estimate D2E/DX2                !
 ! A87   A(28,29,30)           119.6613         estimate D2E/DX2                !
 ! A88   A(29,30,31)           120.1996         estimate D2E/DX2                !
 ! A89   A(29,30,46)           118.9333         estimate D2E/DX2                !
 ! A90   A(31,30,46)           120.8671         estimate D2E/DX2                !
 ! A91   A(30,31,32)           120.3756         estimate D2E/DX2                !
 ! A92   A(30,31,47)           120.606          estimate D2E/DX2                !
 ! A93   A(32,31,47)           119.0184         estimate D2E/DX2                !
 ! A94   A(27,32,31)           121.0334         estimate D2E/DX2                !
 ! A95   A(27,32,48)           119.3915         estimate D2E/DX2                !
 ! A96   A(31,32,48)           119.5751         estimate D2E/DX2                !
 ! D1    D(22,1,2,3)           180.0            estimate D2E/DX2                !
 ! D2    D(22,1,2,12)            0.0            estimate D2E/DX2                !
 ! D3    D(33,1,2,3)             0.0            estimate D2E/DX2                !
 ! D4    D(33,1,2,12)          180.0            estimate D2E/DX2                !
 ! D5    D(2,1,22,20)            0.0            estimate D2E/DX2                !
 ! D6    D(2,1,22,27)          180.0            estimate D2E/DX2                !
 ! D7    D(33,1,22,20)         180.0            estimate D2E/DX2                !
 ! D8    D(33,1,22,27)           0.0            estimate D2E/DX2                !
 ! D9    D(1,2,3,4)            180.0            estimate D2E/DX2                !
 ! D10   D(1,2,3,34)             0.0            estimate D2E/DX2                !
 ! D11   D(12,2,3,4)             0.0            estimate D2E/DX2                !
 ! D12   D(12,2,3,34)          180.0            estimate D2E/DX2                !
 ! D13   D(1,2,12,11)            0.0            estimate D2E/DX2                !
 ! D14   D(1,2,12,15)          180.0            estimate D2E/DX2                !
 ! D15   D(3,2,12,11)          180.0            estimate D2E/DX2                !
 ! D16   D(3,2,12,15)            0.0            estimate D2E/DX2                !
 ! D17   D(2,3,4,5)            180.0            estimate D2E/DX2                !
 ! D18   D(2,3,4,16)             0.0            estimate D2E/DX2                !
 ! D19   D(34,3,4,5)             0.0            estimate D2E/DX2                !
 ! D20   D(34,3,4,16)          180.0            estimate D2E/DX2                !
 ! D21   D(3,4,5,6)            180.0            estimate D2E/DX2                !
 ! D22   D(3,4,5,35)             0.0            estimate D2E/DX2                !
 ! D23   D(16,4,5,6)             0.0            estimate D2E/DX2                !
 ! D24   D(16,4,5,35)          180.0            estimate D2E/DX2                !
 ! D25   D(3,4,16,15)            0.0            estimate D2E/DX2                !
 ! D26   D(3,4,16,17)          180.0            estimate D2E/DX2                !
 ! D27   D(5,4,16,15)          180.0            estimate D2E/DX2                !
 ! D28   D(5,4,16,17)            0.0            estimate D2E/DX2                !
 ! D29   D(4,5,6,7)              0.0            estimate D2E/DX2                !
 ! D30   D(4,5,6,36)           180.0            estimate D2E/DX2                !
 ! D31   D(35,5,6,7)           180.0            estimate D2E/DX2                !
 ! D32   D(35,5,6,36)            0.0            estimate D2E/DX2                !
 ! D33   D(5,6,7,17)             0.0            estimate D2E/DX2                !
 ! D34   D(5,6,7,37)           180.0            estimate D2E/DX2                !
 ! D35   D(36,6,7,17)          180.0            estimate D2E/DX2                !
 ! D36   D(36,6,7,37)            0.0            estimate D2E/DX2                !
 ! D37   D(6,7,17,16)            0.0            estimate D2E/DX2                !
 ! D38   D(6,7,17,18)          180.0            estimate D2E/DX2                !
 ! D39   D(37,7,17,16)         180.0            estimate D2E/DX2                !
 ! D40   D(37,7,17,18)           0.0            estimate D2E/DX2                !
 ! D41   D(10,8,9,21)            0.0            estimate D2E/DX2                !
 ! D42   D(10,8,9,39)          180.0            estimate D2E/DX2                !
 ! D43   D(38,8,9,21)          180.0            estimate D2E/DX2                !
 ! D44   D(38,8,9,39)            0.0            estimate D2E/DX2                !
 ! D45   D(9,8,10,11)            0.0            estimate D2E/DX2                !
 ! D46   D(9,8,10,13)          180.0            estimate D2E/DX2                !
 ! D47   D(38,8,10,11)         180.0            estimate D2E/DX2                !
 ! D48   D(38,8,10,13)           0.0            estimate D2E/DX2                !
 ! D49   D(8,9,21,20)            0.0            estimate D2E/DX2                !
 ! D50   D(8,9,21,23)          180.0            estimate D2E/DX2                !
 ! D51   D(39,9,21,20)         180.0            estimate D2E/DX2                !
 ! D52   D(39,9,21,23)           0.0            estimate D2E/DX2                !
 ! D53   D(8,10,11,12)         180.0            estimate D2E/DX2                !
 ! D54   D(8,10,11,20)           0.0            estimate D2E/DX2                !
 ! D55   D(13,10,11,12)          0.0            estimate D2E/DX2                !
 ! D56   D(13,10,11,20)        180.0            estimate D2E/DX2                !
 ! D57   D(8,10,13,14)         180.0            estimate D2E/DX2                !
 ! D58   D(8,10,13,40)           0.0            estimate D2E/DX2                !
 ! D59   D(11,10,13,14)          0.0            estimate D2E/DX2                !
 ! D60   D(11,10,13,40)        180.0            estimate D2E/DX2                !
 ! D61   D(10,11,12,2)         180.0            estimate D2E/DX2                !
 ! D62   D(10,11,12,15)          0.0            estimate D2E/DX2                !
 ! D63   D(20,11,12,2)           0.0            estimate D2E/DX2                !
 ! D64   D(20,11,12,15)        180.0            estimate D2E/DX2                !
 ! D65   D(10,11,20,21)          0.0            estimate D2E/DX2                !
 ! D66   D(10,11,20,22)        180.0            estimate D2E/DX2                !
 ! D67   D(12,11,20,21)        180.0            estimate D2E/DX2                !
 ! D68   D(12,11,20,22)          0.0            estimate D2E/DX2                !
 ! D69   D(2,12,15,14)         180.0            estimate D2E/DX2                !
 ! D70   D(2,12,15,16)           0.0            estimate D2E/DX2                !
 ! D71   D(11,12,15,14)          0.0            estimate D2E/DX2                !
 ! D72   D(11,12,15,16)        180.0            estimate D2E/DX2                !
 ! D73   D(10,13,14,15)          0.0            estimate D2E/DX2                !
 ! D74   D(10,13,14,19)        180.0            estimate D2E/DX2                !
 ! D75   D(40,13,14,15)        180.0            estimate D2E/DX2                !
 ! D76   D(40,13,14,19)          0.0            estimate D2E/DX2                !
 ! D77   D(13,14,15,12)          0.0            estimate D2E/DX2                !
 ! D78   D(13,14,15,16)        180.0            estimate D2E/DX2                !
 ! D79   D(19,14,15,12)        180.0            estimate D2E/DX2                !
 ! D80   D(19,14,15,16)          0.0            estimate D2E/DX2                !
 ! D81   D(13,14,19,18)        180.0            estimate D2E/DX2                !
 ! D82   D(13,14,19,42)          0.0            estimate D2E/DX2                !
 ! D83   D(15,14,19,18)          0.0            estimate D2E/DX2                !
 ! D84   D(15,14,19,42)        180.0            estimate D2E/DX2                !
 ! D85   D(12,15,16,4)           0.0            estimate D2E/DX2                !
 ! D86   D(12,15,16,17)        180.0            estimate D2E/DX2                !
 ! D87   D(14,15,16,4)         180.0            estimate D2E/DX2                !
 ! D88   D(14,15,16,17)          0.0            estimate D2E/DX2                !
 ! D89   D(4,16,17,7)            0.0            estimate D2E/DX2                !
 ! D90   D(4,16,17,18)         180.0            estimate D2E/DX2                !
 ! D91   D(15,16,17,7)         180.0            estimate D2E/DX2                !
 ! D92   D(15,16,17,18)          0.0            estimate D2E/DX2                !
 ! D93   D(7,17,18,19)         180.0            estimate D2E/DX2                !
 ! D94   D(7,17,18,41)           0.0            estimate D2E/DX2                !
 ! D95   D(16,17,18,19)          0.0            estimate D2E/DX2                !
 ! D96   D(16,17,18,41)        180.0            estimate D2E/DX2                !
 ! D97   D(17,18,19,14)          0.0            estimate D2E/DX2                !
 ! D98   D(17,18,19,42)        180.0            estimate D2E/DX2                !
 ! D99   D(41,18,19,14)        180.0            estimate D2E/DX2                !
 ! D100  D(41,18,19,42)          0.0            estimate D2E/DX2                !
 ! D101  D(11,20,21,9)           0.0            estimate D2E/DX2                !
 ! D102  D(11,20,21,23)        180.0            estimate D2E/DX2                !
 ! D103  D(22,20,21,9)         180.0            estimate D2E/DX2                !
 ! D104  D(22,20,21,23)          0.0            estimate D2E/DX2                !
 ! D105  D(11,20,22,1)           0.0            estimate D2E/DX2                !
 ! D106  D(11,20,22,27)        180.0            estimate D2E/DX2                !
 ! D107  D(21,20,22,1)         180.0            estimate D2E/DX2                !
 ! D108  D(21,20,22,27)          0.0            estimate D2E/DX2                !
 ! D109  D(9,21,23,24)           0.0            estimate D2E/DX2                !
 ! D110  D(9,21,23,28)         180.0            estimate D2E/DX2                !
 ! D111  D(20,21,23,24)        180.0            estimate D2E/DX2                !
 ! D112  D(20,21,23,28)          0.0            estimate D2E/DX2                !
 ! D113  D(1,22,27,28)         180.0            estimate D2E/DX2                !
 ! D114  D(1,22,27,32)           0.0            estimate D2E/DX2                !
 ! D115  D(20,22,27,28)          0.0            estimate D2E/DX2                !
 ! D116  D(20,22,27,32)        180.0            estimate D2E/DX2                !
 ! D117  D(21,23,24,25)        180.0            estimate D2E/DX2                !
 ! D118  D(21,23,24,43)          0.0            estimate D2E/DX2                !
 ! D119  D(28,23,24,25)          0.0            estimate D2E/DX2                !
 ! D120  D(28,23,24,43)        180.0            estimate D2E/DX2                !
 ! D121  D(21,23,28,27)          0.0            estimate D2E/DX2                !
 ! D122  D(21,23,28,29)        180.0            estimate D2E/DX2                !
 ! D123  D(24,23,28,27)        180.0            estimate D2E/DX2                !
 ! D124  D(24,23,28,29)          0.0            estimate D2E/DX2                !
 ! D125  D(23,24,25,26)          0.0            estimate D2E/DX2                !
 ! D126  D(23,24,25,44)        180.0            estimate D2E/DX2                !
 ! D127  D(43,24,25,26)        180.0            estimate D2E/DX2                !
 ! D128  D(43,24,25,44)          0.0            estimate D2E/DX2                !
 ! D129  D(24,25,26,29)          0.0            estimate D2E/DX2                !
 ! D130  D(24,25,26,45)        180.0            estimate D2E/DX2                !
 ! D131  D(44,25,26,29)        180.0            estimate D2E/DX2                !
 ! D132  D(44,25,26,45)          0.0            estimate D2E/DX2                !
 ! D133  D(25,26,29,28)          0.0            estimate D2E/DX2                !
 ! D134  D(25,26,29,30)        180.0            estimate D2E/DX2                !
 ! D135  D(45,26,29,28)        180.0            estimate D2E/DX2                !
 ! D136  D(45,26,29,30)          0.0            estimate D2E/DX2                !
 ! D137  D(22,27,28,23)          0.0            estimate D2E/DX2                !
 ! D138  D(22,27,28,29)        180.0            estimate D2E/DX2                !
 ! D139  D(32,27,28,23)        180.0            estimate D2E/DX2                !
 ! D140  D(32,27,28,29)          0.0            estimate D2E/DX2                !
 ! D141  D(22,27,32,31)        180.0            estimate D2E/DX2                !
 ! D142  D(22,27,32,48)          0.0            estimate D2E/DX2                !
 ! D143  D(28,27,32,31)          0.0            estimate D2E/DX2                !
 ! D144  D(28,27,32,48)        180.0            estimate D2E/DX2                !
 ! D145  D(23,28,29,26)          0.0            estimate D2E/DX2                !
 ! D146  D(23,28,29,30)        180.0            estimate D2E/DX2                !
 ! D147  D(27,28,29,26)        180.0            estimate D2E/DX2                !
 ! D148  D(27,28,29,30)          0.0            estimate D2E/DX2                !
 ! D149  D(26,29,30,31)        180.0            estimate D2E/DX2                !
 ! D150  D(26,29,30,46)          0.0            estimate D2E/DX2                !
 ! D151  D(28,29,30,31)          0.0            estimate D2E/DX2                !
 ! D152  D(28,29,30,46)        180.0            estimate D2E/DX2                !
 ! D153  D(29,30,31,32)          0.0            estimate D2E/DX2                !
 ! D154  D(29,30,31,47)        180.0            estimate D2E/DX2                !
 ! D155  D(46,30,31,32)        180.0            estimate D2E/DX2                !
 ! D156  D(46,30,31,47)          0.0            estimate D2E/DX2                !
 ! D157  D(30,31,32,27)          0.0            estimate D2E/DX2                !
 ! D158  D(30,31,32,48)        180.0            estimate D2E/DX2                !
 ! D159  D(47,31,32,27)        180.0            estimate D2E/DX2                !
 ! D160  D(47,31,32,48)          0.0            estimate D2E/DX2                !
 --------------------------------------------------------------------------------
 Trust Radius=3.00D-01 FncErr=1.00D-07 GrdErr=1.00D-06
 Number of steps in this run=    288 maximum allowed number of steps=    288.
 GradGradGradGradGradGradGradGradGradGradGradGradGradGradGradGradGradGrad

 Leave Link  103 at Sat Jul 27 14:16:38 2019, MaxMem=  4194304000 cpu:         0.1
 (Enter /home/minenky/programs//g09/l202.exe)
                          Input orientation:                          
 ---------------------------------------------------------------------
 Center     Atomic      Atomic             Coordinates (Angstroms)
 Number     Number       Type             X           Y           Z
 ---------------------------------------------------------------------
      1          6           0        0.267663    1.781664    0.000000
      2          6           0       -1.104814    1.339138    0.000000
      3          6           0       -2.151190    2.231686    0.000000
      4          6           0       -3.498899    1.773534    0.000000
      5          6           0       -4.585453    2.676168    0.000000
      6          6           0       -5.880394    2.206270    0.000000
      7          6           0       -6.146383    0.829216    0.000000
      8          6           0        0.537232   -3.289138    0.000000
      9          6           0        1.829393   -2.828082    0.000000
     10          6           0       -0.546410   -2.380388    0.000000
     11          6           0       -0.276063   -0.994043    0.000000
     12          6           0       -1.360747   -0.071476    0.000000
     13          6           0       -1.892201   -2.840072    0.000000
     14          6           0       -2.939792   -1.949885    0.000000
     15          6           0       -2.679497   -0.540784    0.000000
     16          6           0       -3.761797    0.385630    0.000000
     17          6           0       -5.103384   -0.083737    0.000000
     18          6           0       -5.339615   -1.511714    0.000000
     19          6           0       -4.318708   -2.392484    0.000000
     20          6           0        1.068129   -0.525696    0.000000
     21          6           0        2.116553   -1.443884    0.000000
     22          6           0        1.308795    0.906714    0.000000
     23          6           0        3.500316   -0.977199    0.000000
     24          6           0        4.560224   -1.861674    0.000000
     25          6           0        5.890137   -1.399232    0.000000
     26          6           0        6.157059   -0.055484    0.000000
     27          6           0        2.693636    1.377390    0.000000
     28          6           0        3.757602    0.426183    0.000000
     29          6           0        5.092994    0.883650    0.000000
     30          6           0        5.358027    2.279444    0.000000
     31          6           0        4.324278    3.176516    0.000000
     32          6           0        2.988993    2.725236    0.000000
     33          1           0        0.464019    2.866516    0.000000
     34          1           0       -1.961088    3.311989    0.000000
     35          1           0       -4.385024    3.753548    0.000000
     36          1           0       -6.718547    2.911297    0.000000
     37          1           0       -7.184266    0.477567    0.000000
     38          1           0        0.331493   -4.365635    0.000000
     39          1           0        2.673614   -3.535147    0.000000
     40          1           0       -2.081116   -3.920688    0.000000
     41          1           0       -6.380953   -1.854098    0.000000
     42          1           0       -4.505109   -3.472722    0.000000
     43          1           0        4.362163   -2.944561    0.000000
     44          1           0        6.706863   -2.128633    0.000000
     45          1           0        7.189551    0.311788    0.000000
     46          1           0        6.399177    2.621394    0.000000
     47          1           0        4.520909    4.253702    0.000000
     48          1           0        2.167581    3.458413    0.000000
 ---------------------------------------------------------------------
                    Distance matrix (angstroms):
                    1          2          3          4          5
     1  C    0.000000
     2  C    1.442055   0.000000
     3  C    2.460360   1.375335   0.000000
     4  C    3.766571   2.433176   1.423455   0.000000
     5  C    4.934863   3.728605   2.474510   1.412568   0.000000
     6  C    6.162702   4.853667   3.729290   2.420491   1.377561
     7  C    6.484376   5.067291   4.234204   2.810855   2.418208
     8  C    5.077962   4.910932   6.140612   6.474643   7.863000
     9  C    4.867110   5.096596   6.437880   7.040282   8.452634
    10  C    4.240919   3.761209   4.883293   5.096299   6.471679
    11  C    2.828460   2.475997   3.731144   4.248077   5.660503
    12  C    2.466951   1.433644   2.435028   2.824139   4.236541
    13  C    5.101515   4.252738   5.078367   4.885370   6.138608
    14  C    4.920592   3.766274   4.255283   3.765163   4.910047
    15  C    3.752268   2.452292   2.822357   2.455094   3.739177
    16  C    4.264442   2.822896   2.449894   1.412584   2.434127
    17  C    5.685760   4.244189   3.751884   2.454349   2.808082
    18  C    6.502916   5.104988   4.917225   3.765779   4.255246
    19  C    6.201476   4.924847   5.106964   4.245914   5.075665
    20  C    2.442264   2.863439   4.238770   5.113140   6.497301
    21  C    3.717870   4.257043   5.632357   6.471868   7.867128
    22  C    1.359961   2.452040   3.705004   4.885212   6.154115
    23  C    4.249867   5.154865   6.498959   7.520342   8.872809
    24  C    5.630275   6.506754   7.861214   8.841052  10.209575
    25  C    6.459901   7.511858   8.823067   9.910623  11.240412
    26  C    6.169286   7.394576   8.617317   9.827656  11.084380
    27  C    2.459427   3.798642   4.919570   6.205193   7.394049
    28  C    3.743929   4.947381   6.178485   7.380526   8.641123
    29  C    4.908182   6.214522   7.368542   8.637854   9.843041
    30  C    5.114644   6.530887   7.509369   8.871363   9.951391
    31  C    4.289724   5.731578   6.544034   7.947984   8.923769
    32  C    2.880271   4.322097   5.163823   6.557322   7.574605
    33  H    1.102479   2.189548   2.691157   4.110879   5.053059
    34  H    2.703558   2.150662   1.096902   2.175249   2.700289
    35  H    5.053298   4.072979   2.702975   2.169257   1.095865
    36  H    7.076948   5.829724   4.617642   3.414768   2.146014
    37  H    7.565178   6.140199   5.329990   3.906592   3.404067
    38  H    6.147630   5.882807   7.048997   7.236110   8.588559
    39  H    5.835845   6.167266   7.518983   8.141376   9.553768
    40  H    6.167137   5.349667   6.152773   5.868072   7.056218
    41  H    7.577787   6.167204   5.880861   4.633136   4.873102
    42  H    7.098446   5.892029   6.170998   5.341878   6.149415
    43  H    6.253170   6.945352   8.319694   9.168245  10.566571
    44  H    7.533506   8.546796   9.873069  10.926320  12.272021
    45  H    7.076233   8.357747   9.536009  10.787941  12.010038
    46  H    6.188749   7.612756   8.559244   9.934323  10.984767
    47  H    4.919459   6.335885   6.971762   8.394556   9.241994
    48  H    2.534004   3.898704   4.489615   5.911667   6.798189
                    6          7          8          9         10
     6  C    0.000000
     7  C    1.402508   0.000000
     8  C    8.448990   7.850576   0.000000
     9  C    9.207905   8.774328   1.371952   0.000000
    10  C    7.034829   6.454553   1.414251   2.417617   0.000000
    11  C    6.453722   6.146945   2.434935   2.792247   1.412459
    12  C    5.061160   4.869657   3.735729   4.216143   2.448309
    13  C    6.432049   5.617984   2.470588   3.721613   1.422133
    14  C    5.091244   4.243304   3.726029   4.849367   2.431792
    15  C    4.218062   3.727760   4.230933   5.055870   2.816772
    16  C    2.793417   2.425493   5.655579   6.448981   4.241412
    17  C    2.418238   1.386120   6.487769   7.456194   5.103001
    18  C    3.757106   2.476051   6.139753   7.288862   4.871285
    19  C    4.856686   3.704017   4.938030   6.163513   3.772317
    20  C    7.466298   7.340638   2.813977   2.424975   2.458988
    21  C    8.790607   8.569894   2.428830   1.413670   2.822837
    22  C    7.305702   7.455581   4.266203   3.770905   3.774497
    23  C    9.906169   9.814373   3.758314   2.493541   4.283098
    24  C   11.205118  11.039580   4.268738   2.896788   5.132911
    25  C   12.310363  12.241069   5.676736   4.304794   6.510899
    26  C   12.248093  12.335208   6.483746   5.139648   7.095186
    27  C    8.614002   8.856999   5.140677   4.293357   4.961733
    28  C    9.801004   9.912182   4.916747   3.782622   5.138226
    29  C   11.052808  11.239508   6.177954   4.942473   6.515890
    30  C   11.238658  11.595456   7.365403   6.207904   7.521729
    31  C   10.250692  10.730542   7.493089   6.502279   7.389369
    32  C    8.884556   9.330058   6.494908   5.673095   6.210191
    33  H    6.378675   6.917225   6.156089   5.855996   5.343311
    34  H    4.072293   4.866298   7.058079   7.215831   5.865533
    35  H    2.151790   3.413811   8.592324   9.051897   7.236030
    36  H    1.095246   2.159267   9.544198  10.296007   8.130019
    37  H    2.165294   1.095837   8.591251   9.600696   7.226967
    38  H    9.043089   8.303574   1.095981   2.146573   2.170695
    39  H   10.302180   9.840732   2.150499   1.101204   3.420821
    40  H    7.209308   6.252038   2.693437   4.060279   2.174361
    41  H    4.091106   2.693547   7.065453   8.267916   5.858232
    42  H    5.843146   4.604394   5.045682   6.367220   4.106640
    43  H   11.464774  11.165614   3.840421   2.535447   4.940889
    44  H   13.312791  13.189192   6.277827   4.927366   7.257640
    45  H   13.206533  13.345968   7.564392   6.212091   8.191026
    46  H   12.286586  12.672923   8.324469   7.111941   8.559148
    47  H   10.600900  11.203492   8.530189   7.576010   8.347987
    48  H    8.144799   8.719786   6.941720   6.295585   6.438738
                   11         12         13         14         15
    11  C    0.000000
    12  C    1.423962   0.000000
    13  C    2.453513   2.819143   0.000000
    14  C    2.830033   2.453936   1.374729   0.000000
    15  C    2.445801   1.399769   2.430342   1.432941   0.000000
    16  C    3.748846   2.444175   3.728343   2.475949   1.424646
    17  C    4.912402   3.742658   4.231912   2.857208   2.466601
    18  C    5.089946   4.231511   3.694483   2.439497   2.831773
    19  C    4.277688   3.759868   2.467442   1.448206   2.473015
    20  C    1.423446   2.470982   3.757644   4.253439   3.747656
    21  C    2.434536   3.738330   4.244932   5.081600   4.880337
    22  C    2.474804   2.843116   4.927959   5.119634   4.242844
    23  C    3.776416   4.944720   5.705219   6.513149   6.195203
    24  C    4.913497   6.185685   6.526182   7.500535   7.359233
    25  C    6.179498   7.371448   7.914594   8.847082   8.612523
    26  C    6.501226   7.517822   8.517306   9.292010   8.849872
    27  C    3.800369   4.305489   6.230320   6.542650   5.705257
    28  C    4.276388   5.142486   6.526002   7.106391   6.509322
    29  C    5.687925   6.524035   7.915747   8.517897   7.901938
    30  C    6.516032   7.118198   8.875542   9.313486   8.517950
    31  C    6.209403   6.547439   8.651239   8.890821   7.929135
    32  C    4.949103   5.171251   7.402615   7.550314   6.542069
    33  H    3.930857   3.458550   6.173890   5.897766   4.635880
    34  H    4.623984   3.436314   6.152447   5.352120   3.919180
    35  H    6.278789   4.876173   7.049113   5.883693   4.620618
    36  H    7.533743   6.132125   7.508120   6.157116   5.313265
    37  H    7.063208   5.849344   6.246014   4.889589   4.618440
    38  H    3.425895   4.615568   2.696693   4.066590   4.867807
    39  H    3.893302   5.317243   4.618419   5.832956   6.133678
    40  H    3.438527   3.916039   1.097005   2.149742   3.432464
    41  H    6.165175   5.327308   4.595764   3.442494   3.927540
    42  H    4.901907   4.632007   2.688408   2.183861   3.453856
    43  H    5.031666   6.403617   6.255237   7.369391   7.440640
    44  H    7.074499   8.325756   8.628443   9.648311   9.519717
    45  H    7.578957   8.558884   9.613139  10.378765   9.905806
    46  H    7.591456   8.213889   9.928472  10.397737   9.613620
    47  H    7.109836   7.300757   9.562929   9.702915   8.650604
    48  H    5.078952   4.990913   7.493513   7.438746   6.283927
                   16         17         18         19         20
    16  C    0.000000
    17  C    1.421323   0.000000
    18  C    2.467676   1.447385   0.000000
    19  C    2.833384   2.438448   1.348335   0.000000
    20  C    4.915150   6.187318   6.483164   5.701132   0.000000
    21  C    6.156470   7.346937   7.456477   6.504800   1.393651
    22  C    5.097297   6.488223   7.074614   6.523304   1.452487
    23  C    7.388883   8.649967   8.856076   7.946078   2.473740
    24  C    8.620117   9.825802   9.906023   8.894785   3.738926
    25  C    9.815578  11.071948  11.230316  10.257049   4.900493
    26  C    9.928660  11.260478  11.588534  10.733277   5.110607
    27  C    6.531172   7.932743   8.536982   7.961464   2.502800
    28  C    7.519509   8.875647   9.301334   8.554044   2.852953
    29  C    8.868785  10.242166  10.704070   9.965600   4.264480
    30  C    9.314383  10.725005  11.349556  10.745515   5.125625
    31  C    8.554160   9.975472  10.741058  10.281777   4.930403
    32  C    7.144713   8.566031   9.344381   8.921521   3.776013
    33  H    4.900237   6.300791   7.269874   7.108555   3.445584
    34  H    3.436006   4.626552   5.889191   6.172470   4.889170
    35  H    3.425097   3.903947   5.351097   6.146390   6.931724
    36  H    3.888620   3.402790   4.632978   5.821454   8.511477
    37  H    3.423704   2.155257   2.712928   4.055689   8.313156
    38  H    6.271327   6.918998   6.348727   5.051504   3.909957
    39  H    7.535715   8.508462   8.264752   7.085071   3.410921
    40  H    4.622668   4.884291   4.052280   2.709654   4.630736
    41  H    3.446209   2.183199   1.096180   2.131365   7.566603
    42  H    3.929299   3.441388   2.131185   1.096203   6.304439
    43  H    8.780029   9.888423   9.807016   8.698408   4.086756
    44  H   10.766353  11.985972  12.062264  11.028727   5.862144
    45  H   10.951598  12.299297  12.661168  11.821722   6.178446
    46  H   10.404040  11.816372  12.445153  11.832668   6.190658
    47  H    9.141401  10.556534  11.422346  11.059413   5.896129
    48  H    6.678287   8.087877   9.003342   8.735269   4.133027
                   21         22         23         24         25
    21  C    0.000000
    22  C    2.485515   0.000000
    23  C    1.460341   2.889964   0.000000
    24  C    2.479129   4.270335   1.380471   0.000000
    25  C    3.773848   5.128945   2.426800   1.408020   0.000000
    26  C    4.272393   4.942821   2.812088   2.410851   1.370003
    27  C    2.879690   1.462642   2.488940   3.738407   4.234058
    28  C    2.488011   2.495509   1.426772   2.424560   2.807106
    29  C    3.778441   3.784269   2.449363   2.796541   2.418054
    30  C    4.936631   4.275589   3.749242   4.217267   3.716962
    31  C    5.120756   3.774272   4.234650   5.043711   4.836257
    32  C    4.259427   2.475901   3.737576   4.848557   5.042606
    33  H    4.616321   2.134120   4.898290   6.255771   6.902127
    34  H    6.264622   4.059247   6.944355   8.324320   9.156273
    35  H    8.323689   6.365850   9.195572  10.561637  11.494785
    36  H    9.850208   8.273849  10.933689  12.247119  13.325148
    37  H    9.497221   8.503897  10.783164  11.975187  13.208421
    38  H    3.423896   5.362162   4.639282   4.914467   6.300640
    39  H    2.164185   4.646812   2.688222   2.521867   3.861108
    40  H    4.873908   5.898755   6.310032   6.953196   8.360539
    41  H    8.507402   8.170331   9.920102  10.941180  12.279518
    42  H    6.925503   7.278801   8.385372   9.207375  10.600024
    43  H    2.700888   4.914812   2.147858   1.100851   2.173188
    44  H    4.641102   6.192937   3.407014   2.163174   1.095019
    45  H    5.368212   5.910772   3.907934   3.411348   2.148504
    46  H    5.904859   5.371417   4.620960   4.845580   4.052723
    47  H    6.184127   4.638966   5.329535   6.115502   5.816395
    48  H    4.902563   2.692337   4.631505   5.833358   6.119979
                   26         27         28         29         30
    26  C    0.000000
    27  C    3.748123   0.000000
    28  C    2.447324   1.427172   0.000000
    29  C    1.419227   2.449632   1.411576   0.000000
    30  C    2.467862   2.812948   2.448659   1.420734   0.000000
    31  C    3.715496   2.428136   2.808104   2.418297   1.368713
    32  C    4.215335   1.379827   2.424130   2.796116   2.410612
    33  H    6.399124   2.681173   4.099136   5.035789   4.929094
    34  H    8.788867   5.040747   6.405567   7.460355   7.391589
    35  H   11.209114   7.466830   8.796233   9.902986   9.853934
    36  H   13.212986   9.536354  10.766870  11.984317  12.093091
    37  H   13.351970   9.918802  10.941989  12.283974  12.671064
    38  H    7.246697   6.209836   5.890649   7.087092   8.332054
    39  H    4.923662   4.912578   4.106966   5.037774   6.404338
    40  H    9.099852   7.132173   7.279143   8.634206   9.684135
    41  H   12.666363   9.632792  10.391823  11.796047  12.445474
    42  H   11.196399   8.680180   9.136404  10.540473  11.417919
    43  H    3.401237   4.632845   3.424531   3.897347   5.318080
    44  H    2.144815   5.328995   3.901951   3.417370   4.609827
    45  H    1.095870   4.620472   3.433855   2.173150   2.688151
    46  H    2.687805   3.908782   3.434657   2.173907   1.095867
    47  H    4.609346   3.407653   3.902888   3.418265   2.144402
    48  H    5.316334   2.146483   3.423826   3.897108   3.401310
                   31         32         33         34         35
    31  C    0.000000
    32  C    1.409482   0.000000
    33  H    3.872686   2.528923   0.000000
    34  H    6.286825   4.984734   2.465682   0.000000
    35  H    8.728396   7.445371   4.929508   2.463826   0.000000
    36  H   11.046009   9.709322   7.182705   4.774303   2.480870
    37  H   11.820783  10.418600   8.012699   5.942688   4.309038
    38  H    8.533836   7.572500   7.233365   8.012605   9.389711
    39  H    6.911665   6.268322   6.772267   8.268237  10.146401
    40  H    9.560301   8.359085   7.248713   7.233673   8.012609
    41  H   11.828315  10.429103   8.314917   6.798799   5.952262
    42  H   11.053074   9.725032   8.054699   7.245989   7.227268
    43  H    6.121194   5.833712   6.997438   8.895388  11.017166
    44  H    5.815610   6.114132   7.995287  10.233950  12.555079
    45  H    4.051723   4.844525   7.194402   9.629922  12.075451
    46  H    2.147875   3.411765   5.940218   8.388740  10.843467
    47  H    1.094986   2.164019   4.287499   6.550047   8.919966
    48  H    2.175042   1.101030   1.803459   4.131264   6.559248
                   36         37         38         39         40
    36  H    0.000000
    37  H    2.477890   0.000000
    38  H   10.131969   8.941098   0.000000
    39  H   11.391634  10.643292   2.485003   0.000000
    40  H    8.257227   6.736972   2.453295   4.770335   0.000000
    41  H    4.777338   2.466165   7.166921   9.209295   4.770681
    42  H    6.756849   4.773119   4.918335   7.178995   2.465039
    43  H   12.532885  12.042881   4.273845   1.788852   6.516799
    44  H   14.340241  14.133497   6.756442   4.271461   8.968836
    45  H   14.148945  14.374774   8.301280   5.932336  10.191130
    46  H   13.120927  13.751579   9.253938   7.196028  10.710472
    47  H   11.319338  12.299201   9.583537   8.004916  10.507492
    48  H    8.902954   9.815421   8.036600   7.011844   8.514843
                   41         42         43         44         45
    41  H    0.000000
    42  H    2.477647   0.000000
    43  H   10.798317   8.882988   0.000000
    44  H   13.090695  11.292249   2.482610   0.000000
    45  H   13.742258  12.291770   4.312532   2.487699   0.000000
    46  H   13.541114  12.491666   5.926996   4.759982   2.441100
    47  H   12.496233  11.881357   7.200014   6.746303   4.760288
    48  H   10.064800   9.621093   6.768624   7.198623   5.926334
                   46         47         48
    46  H    0.000000
    47  H    2.488437   0.000000
    48  H    4.313584   2.484077   0.000000
 Stoichiometry    C32H16
 Framework group  CS[SG(C32H16)]
 Deg. of freedom    93
 Full point group                 CS      NOp   2
 Largest Abelian subgroup         CS      NOp   2
 Largest concise Abelian subgroup C1      NOp   1
                         Standard orientation:                         
 ---------------------------------------------------------------------
 Center     Atomic      Atomic             Coordinates (Angstroms)
 Number     Number       Type             X           Y           Z
 ---------------------------------------------------------------------
      1          6           0       -0.825147    1.596329    0.000000
      2          6           0        0.616679    1.622013    0.000000
      3          6           0        1.317706    2.805274    0.000000
      4          6           0        2.741158    2.808155    0.000000
      5          6           0        3.476934    4.013966    0.000000
      6          6           0        4.854262    3.988650    0.000000
      7          6           0        5.551779    2.771892    0.000000
      8          6           0        0.561603   -3.288610    0.000000
      9          6           0       -0.810233   -3.270758    0.000000
     10          6           0        1.292643   -2.077955    0.000000
     11          6           0        0.587995   -0.853818    0.000000
     12          6           0        1.315547    0.370247    0.000000
     13          6           0        2.714776   -2.077144    0.000000
     14          6           0        3.417718   -0.895724    0.000000
     15          6           0        2.715212    0.353198    0.000000
     16          6           0        3.439264    1.580131    0.000000
     17          6           0        4.860554    1.570420    0.000000
     18          6           0        5.546404    0.295847    0.000000
     19          6           0        4.865659   -0.868023    0.000000
     20          6           0       -0.835430   -0.845914    0.000000
     21          6           0       -1.530093   -2.054097    0.000000
     22          6           0       -1.526911    0.431416    0.000000
     23          6           0       -2.990419   -2.060578    0.000000
     24          6           0       -3.706864   -3.240581    0.000000
     25          6           0       -5.114867   -3.233643    0.000000
     26          6           0       -5.802483   -2.048699    0.000000
     27          6           0       -2.989549    0.428362    0.000000
     28          6           0       -3.688227   -0.816093    0.000000
     29          6           0       -5.099803   -0.815635    0.000000
     30          6           0       -5.802483    0.419163    0.000000
     31          6           0       -5.114867    1.602615    0.000000
     32          6           0       -3.705395    1.607976    0.000000
     33          1           0       -1.362174    2.559169    0.000000
     34          1           0        0.788069    3.765835    0.000000
     35          1           0        2.938472    4.968419    0.000000
     36          1           0        5.418997    4.927073    0.000000
     37          1           0        6.647611    2.775226    0.000000
     38          1           0        1.104803   -4.240507    0.000000
     39          1           0       -1.380049   -4.213075    0.000000
     40          1           0        3.243391   -3.038386    0.000000
     41          1           0        6.642504    0.309066    0.000000
     42          1           0        5.391774   -1.829721    0.000000
     43          1           0       -3.168860   -4.201011    0.000000
     44          1           0       -5.651437   -4.188189    0.000000
     45          1           0       -6.898273   -2.035506    0.000000
     46          1           0       -6.898266    0.405595    0.000000
     47          1           0       -5.649673    2.558113    0.000000
     48          1           0       -3.165614    2.567612    0.000000
 ---------------------------------------------------------------------
 Rotational constants (GHZ):      0.3518157      0.0891728      0.0711411
 Leave Link  202 at Sat Jul 27 14:16:38 2019, MaxMem=  4194304000 cpu:         1.1
 (Enter /home/minenky/programs//g09/l301.exe)
 Standard basis: def2TZVP (5D, 7F)
 ======================================================================================================
                                       Pseudopotential Parameters
 ======================================================================================================
  Center     Atomic      Valence      Angular      Power
  Number     Number     Electrons     Momentum     of R      Exponent        Coefficient   SO-Coeffient
 ======================================================================================================
    1          6
                                   No pseudopotential on this center.
    2          6
                                   No pseudopotential on this center.
    3          6
                                   No pseudopotential on this center.
    4          6
                                   No pseudopotential on this center.
    5          6
                                   No pseudopotential on this center.
    6          6
                                   No pseudopotential on this center.
    7          6
                                   No pseudopotential on this center.
    8          6
                                   No pseudopotential on this center.
    9          6
                                   No pseudopotential on this center.
   10          6
                                   No pseudopotential on this center.
   11          6
                                   No pseudopotential on this center.
   12          6
                                   No pseudopotential on this center.
   13          6
                                   No pseudopotential on this center.
   14          6
                                   No pseudopotential on this center.
   15          6
                                   No pseudopotential on this center.
   16          6
                                   No pseudopotential on this center.
   17          6
                                   No pseudopotential on this center.
   18          6
                                   No pseudopotential on this center.
   19          6
                                   No pseudopotential on this center.
   20          6
                                   No pseudopotential on this center.
   21          6
                                   No pseudopotential on this center.
   22          6
                                   No pseudopotential on this center.
   23          6
                                   No pseudopotential on this center.
   24          6
                                   No pseudopotential on this center.
   25          6
                                   No pseudopotential on this center.
   26          6
                                   No pseudopotential on this center.
   27          6
                                   No pseudopotential on this center.
   28          6
                                   No pseudopotential on this center.
   29          6
                                   No pseudopotential on this center.
   30          6
                                   No pseudopotential on this center.
   31          6
                                   No pseudopotential on this center.
   32          6
                                   No pseudopotential on this center.
   33          1
                                   No pseudopotential on this center.
   34          1
                                   No pseudopotential on this center.
   35          1
                                   No pseudopotential on this center.
   36          1
                                   No pseudopotential on this center.
   37          1
                                   No pseudopotential on this center.
   38          1
                                   No pseudopotential on this center.
   39          1
                                   No pseudopotential on this center.
   40          1
                                   No pseudopotential on this center.
   41          1
                                   No pseudopotential on this center.
   42          1
                                   No pseudopotential on this center.
   43          1
                                   No pseudopotential on this center.
   44          1
                                   No pseudopotential on this center.
   45          1
                                   No pseudopotential on this center.
   46          1
                                   No pseudopotential on this center.
   47          1
                                   No pseudopotential on this center.
   48          1
                                   No pseudopotential on this center.
 ======================================================================================================
 Ernie: Thresh=  0.10000D-02 Tol=  0.10000D-05 Strict=F.
 AO basis set (Overlap normalization):
 Atom C1       Shell     1 S   6     bf    1 -     1         -1.559302305284          3.016623780047          0.000000000000
      0.1357534968D+05  0.6064550360D-03
      0.2035233368D+04  0.4697908888D-02
      0.4632256236D+03  0.2433247765D-01
      0.1312001960D+03  0.9739996831D-01
      0.4285301589D+02  0.3019558425D+00
      0.1558418577D+02  0.6623360914D+00
 Atom C1       Shell     2 S   2     bf    2 -     2         -1.559302305284          3.016623780047          0.000000000000
      0.6206713851D+01  0.6559530854D+00
      0.2576489653D+01  0.3758563329D+00
 Atom C1       Shell     3 S   1     bf    3 -     3         -1.559302305284          3.016623780047          0.000000000000
      0.5769633942D+00  0.1000000000D+01
 Atom C1       Shell     4 S   1     bf    4 -     4         -1.559302305284          3.016623780047          0.000000000000
      0.2297283136D+00  0.1000000000D+01
 Atom C1       Shell     5 S   1     bf    5 -     5         -1.559302305284          3.016623780047          0.000000000000
      0.9516444003D-01  0.1000000000D+01
 Atom C1       Shell     6 P   4     bf    6 -     8         -1.559302305284          3.016623780047          0.000000000000
      0.3469723224D+02  0.1132722000D-01
      0.7958262283D+01  0.7616965920D-01
      0.2378082688D+01  0.3019225220D+00
      0.8143320818D+00  0.7278502735D+00
 Atom C1       Shell     7 P   1     bf    9 -    11         -1.559302305284          3.016623780047          0.000000000000
      0.2888754725D+00  0.1000000000D+01
 Atom C1       Shell     8 P   1     bf   12 -    14         -1.559302305284          3.016623780047          0.000000000000
      0.1005682367D+00  0.1000000000D+01
 Atom C1       Shell     9 D   1     bf   15 -    19         -1.559302305284          3.016623780047          0.000000000000
      0.1097000000D+01  0.1000000000D+01
 Atom C1       Shell    10 D   1     bf   20 -    24         -1.559302305284          3.016623780047          0.000000000000
      0.3180000000D+00  0.1000000000D+01
 Atom C1       Shell    11 F   1     bf   25 -    31         -1.559302305284          3.016623780047          0.000000000000
      0.7610000000D+00  0.1000000000D+01
 Atom C2       Shell    12 S   6     bf   32 -    32          1.165353656941          3.065161083550          0.000000000000
      0.1357534968D+05  0.6064550360D-03
      0.2035233368D+04  0.4697908888D-02
      0.4632256236D+03  0.2433247765D-01
      0.1312001960D+03  0.9739996831D-01
      0.4285301589D+02  0.3019558425D+00
      0.1558418577D+02  0.6623360914D+00
 Atom C2       Shell    13 S   2     bf   33 -    33          1.165353656941          3.065161083550          0.000000000000
      0.6206713851D+01  0.6559530854D+00
      0.2576489653D+01  0.3758563329D+00
 Atom C2       Shell    14 S   1     bf   34 -    34          1.165353656941          3.065161083550          0.000000000000
      0.5769633942D+00  0.1000000000D+01
 Atom C2       Shell    15 S   1     bf   35 -    35          1.165353656941          3.065161083550          0.000000000000
      0.2297283136D+00  0.1000000000D+01
 Atom C2       Shell    16 S   1     bf   36 -    36          1.165353656941          3.065161083550          0.000000000000
      0.9516444003D-01  0.1000000000D+01
 Atom C2       Shell    17 P   4     bf   37 -    39          1.165353656941          3.065161083550          0.000000000000
      0.3469723224D+02  0.1132722000D-01
      0.7958262283D+01  0.7616965920D-01
      0.2378082688D+01  0.3019225220D+00
      0.8143320818D+00  0.7278502735D+00
 Atom C2       Shell    18 P   1     bf   40 -    42          1.165353656941          3.065161083550          0.000000000000
      0.2888754725D+00  0.1000000000D+01
 Atom C2       Shell    19 P   1     bf   43 -    45          1.165353656941          3.065161083550          0.000000000000
      0.1005682367D+00  0.1000000000D+01
 Atom C2       Shell    20 D   1     bf   46 -    50          1.165353656941          3.065161083550          0.000000000000
      0.1097000000D+01  0.1000000000D+01
 Atom C2       Shell    21 D   1     bf   51 -    55          1.165353656941          3.065161083550          0.000000000000
      0.3180000000D+00  0.1000000000D+01
 Atom C2       Shell    22 F   1     bf   56 -    62          1.165353656941          3.065161083550          0.000000000000
      0.7610000000D+00  0.1000000000D+01
 Atom C3       Shell    23 S   6     bf   63 -    63          2.490104194627          5.301199831835          0.000000000000
      0.1357534968D+05  0.6064550360D-03
      0.2035233368D+04  0.4697908888D-02
      0.4632256236D+03  0.2433247765D-01
      0.1312001960D+03  0.9739996831D-01
      0.4285301589D+02  0.3019558425D+00
      0.1558418577D+02  0.6623360914D+00
 Atom C3       Shell    24 S   2     bf   64 -    64          2.490104194627          5.301199831835          0.000000000000
      0.6206713851D+01  0.6559530854D+00
      0.2576489653D+01  0.3758563329D+00
 Atom C3       Shell    25 S   1     bf   65 -    65          2.490104194627          5.301199831835          0.000000000000
      0.5769633942D+00  0.1000000000D+01
 Atom C3       Shell    26 S   1     bf   66 -    66          2.490104194627          5.301199831835          0.000000000000
      0.2297283136D+00  0.1000000000D+01
 Atom C3       Shell    27 S   1     bf   67 -    67          2.490104194627          5.301199831835          0.000000000000
      0.9516444003D-01  0.1000000000D+01
 Atom C3       Shell    28 P   4     bf   68 -    70          2.490104194627          5.301199831835          0.000000000000
      0.3469723224D+02  0.1132722000D-01
      0.7958262283D+01  0.7616965920D-01
      0.2378082688D+01  0.3019225220D+00
      0.8143320818D+00  0.7278502735D+00
 Atom C3       Shell    29 P   1     bf   71 -    73          2.490104194627          5.301199831835          0.000000000000
      0.2888754725D+00  0.1000000000D+01
 Atom C3       Shell    30 P   1     bf   74 -    76          2.490104194627          5.301199831835          0.000000000000
      0.1005682367D+00  0.1000000000D+01
 Atom C3       Shell    31 D   1     bf   77 -    81          2.490104194627          5.301199831835          0.000000000000
      0.1097000000D+01  0.1000000000D+01
 Atom C3       Shell    32 D   1     bf   82 -    86          2.490104194627          5.301199831835          0.000000000000
      0.3180000000D+00  0.1000000000D+01
 Atom C3       Shell    33 F   1     bf   87 -    93          2.490104194627          5.301199831835          0.000000000000
      0.7610000000D+00  0.1000000000D+01
 Atom C4       Shell    34 S   6     bf   94 -    94          5.180037933539          5.306643306421          0.000000000000
      0.1357534968D+05  0.6064550360D-03
      0.2035233368D+04  0.4697908888D-02
      0.4632256236D+03  0.2433247765D-01
      0.1312001960D+03  0.9739996831D-01
      0.4285301589D+02  0.3019558425D+00
      0.1558418577D+02  0.6623360914D+00
 Atom C4       Shell    35 S   2     bf   95 -    95          5.180037933539          5.306643306421          0.000000000000
      0.6206713851D+01  0.6559530854D+00
      0.2576489653D+01  0.3758563329D+00
 Atom C4       Shell    36 S   1     bf   96 -    96          5.180037933539          5.306643306421          0.000000000000
      0.5769633942D+00  0.1000000000D+01
 Atom C4       Shell    37 S   1     bf   97 -    97          5.180037933539          5.306643306421          0.000000000000
      0.2297283136D+00  0.1000000000D+01
 Atom C4       Shell    38 S   1     bf   98 -    98          5.180037933539          5.306643306421          0.000000000000
      0.9516444003D-01  0.1000000000D+01
 Atom C4       Shell    39 P   4     bf   99 -   101          5.180037933539          5.306643306421          0.000000000000
      0.3469723224D+02  0.1132722000D-01
      0.7958262283D+01  0.7616965920D-01
      0.2378082688D+01  0.3019225220D+00
      0.8143320818D+00  0.7278502735D+00
 Atom C4       Shell    40 P   1     bf  102 -   104          5.180037933539          5.306643306421          0.000000000000
      0.2888754725D+00  0.1000000000D+01
 Atom C4       Shell    41 P   1     bf  105 -   107          5.180037933539          5.306643306421          0.000000000000
      0.1005682367D+00  0.1000000000D+01
 Atom C4       Shell    42 D   1     bf  108 -   112          5.180037933539          5.306643306421          0.000000000000
      0.1097000000D+01  0.1000000000D+01
 Atom C4       Shell    43 D   1     bf  113 -   117          5.180037933539          5.306643306421          0.000000000000
      0.3180000000D+00  0.1000000000D+01
 Atom C4       Shell    44 F   1     bf  118 -   124          5.180037933539          5.306643306421          0.000000000000
      0.7610000000D+00  0.1000000000D+01
 Atom C5       Shell    45 S   6     bf  125 -   125          6.570452266872          7.585297093857          0.000000000000
      0.1357534968D+05  0.6064550360D-03
      0.2035233368D+04  0.4697908888D-02
      0.4632256236D+03  0.2433247765D-01
      0.1312001960D+03  0.9739996831D-01
      0.4285301589D+02  0.3019558425D+00
      0.1558418577D+02  0.6623360914D+00
 Atom C5       Shell    46 S   2     bf  126 -   126          6.570452266872          7.585297093857          0.000000000000
      0.6206713851D+01  0.6559530854D+00
      0.2576489653D+01  0.3758563329D+00
 Atom C5       Shell    47 S   1     bf  127 -   127          6.570452266872          7.585297093857          0.000000000000
      0.5769633942D+00  0.1000000000D+01
 Atom C5       Shell    48 S   1     bf  128 -   128          6.570452266872          7.585297093857          0.000000000000
      0.2297283136D+00  0.1000000000D+01
 Atom C5       Shell    49 S   1     bf  129 -   129          6.570452266872          7.585297093857          0.000000000000
      0.9516444003D-01  0.1000000000D+01
 Atom C5       Shell    50 P   4     bf  130 -   132          6.570452266872          7.585297093857          0.000000000000
      0.3469723224D+02  0.1132722000D-01
      0.7958262283D+01  0.7616965920D-01
      0.2378082688D+01  0.3019225220D+00
      0.8143320818D+00  0.7278502735D+00
 Atom C5       Shell    51 P   1     bf  133 -   135          6.570452266872          7.585297093857          0.000000000000
      0.2888754725D+00  0.1000000000D+01
 Atom C5       Shell    52 P   1     bf  136 -   138          6.570452266872          7.585297093857          0.000000000000
      0.1005682367D+00  0.1000000000D+01
 Atom C5       Shell    53 D   1     bf  139 -   143          6.570452266872          7.585297093857          0.000000000000
      0.1097000000D+01  0.1000000000D+01
 Atom C5       Shell    54 D   1     bf  144 -   148          6.570452266872          7.585297093857          0.000000000000
      0.3180000000D+00  0.1000000000D+01
 Atom C5       Shell    55 F   1     bf  149 -   155          6.570452266872          7.585297093857          0.000000000000
      0.7610000000D+00  0.1000000000D+01
 Atom C6       Shell    56 S   6     bf  156 -   156          9.173225977376          7.537455305007          0.000000000000
      0.1357534968D+05  0.6064550360D-03
      0.2035233368D+04  0.4697908888D-02
      0.4632256236D+03  0.2433247765D-01
      0.1312001960D+03  0.9739996831D-01
      0.4285301589D+02  0.3019558425D+00
      0.1558418577D+02  0.6623360914D+00
[...]
 ,0.00001185,0.,-0.00019875,0.00072852,0.,-0.00184000,-0.00057268,0.,-0
 .00014860,-0.00005976,0.,-0.00009802,-0.00007394,0.,0.00008739,-0.0000
 1328,0.,-0.00002316,0.00009520,0.,-0.00000881,-0.00000352,0.,-0.000025
 57,-0.00000938,0.,0.00002629,0.00000481,0.,-0.00001195,-0.00000754,0.,
 -0.00000491,-0.00000410,0.,0.00000194,0.00002008,0.,0.00037572,0.00005
 825,0.,-0.00162413,-0.00124313,0.,-0.00025686,-0.00006739,0.,-0.004478
 52,-0.01661113,0.,-0.04125853,-0.33855711,0.,0.00091265,-0.00697805,0.
 ,-0.00212690,0.00133114,0.,-0.00080715,-0.00068807,0.,0.00352200,-0.00
 016646,0.,0.00035461,0.00046323,0.,-0.00006404,0.00006989,0.,0.0000909
 5,0.00004000,0.,0.00041677,-0.00023604,0.,-0.00002478,0.00001445,0.,-0
 .00000459,0.00000645,0.,-0.00000078,0.00000277,0.,-0.00000058,0.000000
 85,0.,-0.00000012,-0.00000047,0.,0.00000582,-0.00001637,0.,-0.00286140
 ,0.00112691,0.,0.00000988,-0.00000046,0.,-0.00000172,0.00000186,0.,0.0
 0000175,-0.00000012,0.,0.05025637,0.36097235,0.,0.,0.00012787,0.,0.,-0
 .00002577,0.,0.,-0.00001229,0.,0.,0.00000780,0.,0.,-0.00000091,0.,0.,-
 0.00000266,0.,0.,-0.00000079,0.,0.,-0.00011300,0.,0.,-0.00117117,0.,0.
 ,-0.00008717,0.,0.,0.00036330,0.,0.,-0.00000424,0.,0.,0.00010997,0.,0.
 ,-0.00001635,0.,0.,0.00001689,0.,0.,-0.00000098,0.,0.,-0.00000790,0.,0
 .,-0.00000403,0.,0.,-0.00002053,0.,0.,-0.00046421,0.,0.,-0.00308699,0.
 ,0.,-0.00007192,0.,0.,0.00221655,0.,0.,-0.03567569,0.,0.,0.00266365,0.
 ,0.,0.00615122,0.,0.,0.00058075,0.,0.,0.00874577,0.,0.,-0.00104406,0.,
 0.,-0.00077831,0.,0.,0.00017360,0.,0.,-0.00088851,0.,0.,-0.00000587,0.
 ,0.,-0.00000145,0.,0.,0.00000117,0.,0.,0.00000083,0.,0.,0.00000363,0.,
 0.,-0.00004342,0.,0.,0.00222451,0.,0.,0.00000948,0.,0.,0.00000517,0.,0
 .,0.00000138,0.,0.,0.02284459,-0.00001475,0.00003269,0.,0.00002699,0.0
 0002031,0.,-0.00001931,0.00000379,0.,0.00002185,0.00001928,0.,-0.00000
 988,-0.00000280,0.,0.00000371,-0.00001249,0.,-0.00002322,0.00000742,0.
 ,0.00001187,-0.00002885,0.,-0.00003814,0.00005224,0.,-0.00002647,-0.00
 001709,0.,-0.00003468,0.00013371,0.,-0.00003360,-0.00005144,0.,0.00002
 350,0.00002526,0.,-0.00002030,-0.00000905,0.,-0.00001302,0.00000046,0.
 ,-0.00001444,-0.00000950,0.,-0.00000550,0.00000332,0.,-0.00000882,-0.0
 0000175,0.,0.00001871,0.00001626,0.,-0.00039333,-0.00033263,0.,-0.0003
 7223,0.00138245,0.,0.00003913,-0.00008618,0.,-0.00410575,-0.00331650,0
 .,-0.01694976,0.02180239,0.,-0.21751749,0.13999168,0.,0.00867249,-0.00
 598631,0.,-0.00007475,0.00027204,0.,0.00013083,-0.00107709,0.,0.000842
 38,-0.00219371,0.,0.00020094,0.00013883,0.,0.00026369,-0.00008593,0.,-
 0.00016634,-0.00017597,0.,-0.00001094,0.00000899,0.,-0.00000003,0.0000
 0155,0.,0.00000251,0.00000203,0.,-0.00000446,0.00000305,0.,-0.00000283
 ,-0.00000173,0.,-0.00002771,-0.00001889,0.,0.00000023,-0.00000704,0.,-
 0.00000629,-0.00000977,0.,-0.00000455,0.00000074,0.,-0.00000197,-0.000
 00637,0.,0.00083260,-0.00027861,0.,0.22802693,-0.00000898,0.00003292,0
 .,0.00000749,-0.00002916,0.,-0.00000247,0.00001955,0.,-0.00000436,-0.0
 0000399,0.,0.00000117,0.00000732,0.,0.00000102,0.00000914,0.,0.0000135
 5,-0.00000262,0.,0.00000062,-0.00002555,0.,0.00004504,0.00003850,0.,0.
 00001084,-0.00000874,0.,-0.00000824,0.00006358,0.,-0.00000006,-0.00000
 751,0.,0.00000210,-0.00000626,0.,0.00000013,0.00000132,0.,-0.00000241,
 0.00000825,0.,0.00001213,-0.00000122,0.,-0.00000148,-0.00000552,0.,0.0
 0000061,-0.00000093,0.,-0.00000272,-0.00000280,0.,-0.00015729,-0.00006
 627,0.,-0.00025215,0.00044609,0.,0.00003079,-0.00011419,0.,-0.00275797
 ,0.00024298,0.,-0.00977766,0.01019105,0.,0.13970775,-0.18515519,0.,0.0
 2600701,-0.01520578,0.,-0.00006423,0.00039444,0.,-0.00058714,-0.000610
 42,0.,-0.00289301,-0.00499225,0.,0.00141690,0.00002653,0.,0.00010057,-
 0.00060682,0.,-0.00029480,-0.00014811,0.,-0.00000697,0.00000581,0.,-0.
 00000225,0.00000107,0.,-0.00000197,-0.00000092,0.,0.00000285,-0.000001
 58,0.,0.00000182,0.00000117,0.,-0.00000333,0.00000246,0.,-0.00000426,-
 0.00002586,0.,0.00000041,0.00000322,0.,0.00000250,0.00000038,0.,0.0000
 0021,0.00000284,0.,0.00033023,0.00088462,0.,-0.15056533,0.19391067,0.,
 0.,0.00001509,0.,0.,-0.00001768,0.,0.,-0.00000453,0.,0.,0.00000273,0.,
 0.,-0.00000031,0.,0.,-0.00000116,0.,0.,-0.00000053,0.,0.,-0.00005476,0
 .,0.,0.00012395,0.,0.,0.00000281,0.,0.,-0.00002809,0.,0.,0.00002368,0.
 ,0.,-0.00000158,0.,0.,-0.00000057,0.,0.,0.00000194,0.,0.,-0.00000141,0
 .,0.,0.00000025,0.,0.,-0.00000095,0.,0.,-0.00000156,0.,0.,-0.00018394,
 0.,0.,0.00013106,0.,0.,0.00005495,0.,0.,0.00614270,0.,0.,0.00182837,0.
 ,0.,-0.03727386,0.,0.,0.00331221,0.,0.,-0.00081511,0.,0.,-0.00088538,0
 .,0.,0.00955836,0.,0.,0.00011760,0.,0.,-0.00068239,0.,0.,0.00009453,0.
 ,0.,0.00000614,0.,0.,0.00000089,0.,0.,0.00000099,0.,0.,0.00000055,0.,0
 .,0.00000057,0.,0.,0.00001757,0.,0.,-0.00001601,0.,0.,0.00000273,0.,0.
 ,0.00000081,0.,0.,0.00000131,0.,0.,-0.00285869,0.,0.,0.02601213,-0.000
 11736,-0.00009259,0.,0.00000762,0.00002507,0.,-0.00002425,-0.00001088,
 0.,0.00000599,0.00000814,0.,-0.00000605,-0.00000409,0.,-0.00000221,0.0
 0000284,0.,-0.00000312,0.00000068,0.,-0.00000077,-0.00001326,0.,-0.000
 02807,-0.00002537,0.,-0.00000151,-0.00000803,0.,0.00001508,0.00000394,
 0.,-0.00001551,-0.00000647,0.,0.00000006,0.00000552,0.,-0.00000212,-0.
 00000132,0.,0.00000207,0.00000569,0.,-0.00000313,-0.00000747,0.,0.0000
 0092,0.00000167,0.,-0.00000597,-0.00000068,0.,0.00000484,0.00000606,0.
 ,-0.00002983,0.00004219,0.,0.00005502,-0.00006720,0.,-0.00008616,0.000
 34757,0.,0.00029266,0.00066773,0.,0.00184576,-0.00098410,0.,-0.0016543
 5,0.00077012,0.,-0.30906429,-0.08753829,0.,-0.00073716,-0.00111480,0.,
 -0.00126160,0.00389929,0.,-0.01838095,-0.01047080,0.,0.00102010,-0.001
 92614,0.,0.00006618,0.00031117,0.,0.00015998,0.00011768,0.,0.00001439,
 0.00000754,0.,0.00000246,0.00000159,0.,0.00000122,0.00000170,0.,-0.000
 00230,0.00000137,0.,-0.00000212,-0.00000101,0.,-0.00000773,-0.00000555
 ,0.,0.00000473,0.00002436,0.,-0.00000112,-0.00000343,0.,-0.00000267,0.
 00000003,0.,-0.00000052,-0.00000262,0.,-0.00023684,0.00006919,0.,0.000
 77000,-0.00037749,0.,0.32704338,0.00011827,0.00006941,0.,-0.00000282,-
 0.00000403,0.,0.00001431,-0.00000095,0.,0.00000201,0.00000517,0.,0.000
 00107,-0.00000304,0.,-0.00000080,-0.00000995,0.,-0.00001177,0.00000670
 ,0.,0.00000807,0.00007542,0.,-0.00001995,-0.00011794,0.,-0.00002527,0.
 00000340,0.,-0.00003802,0.00000810,0.,0.00000438,-0.00001587,0.,0.0000
 0855,0.00002163,0.,-0.00000806,0.00000031,0.,-0.00000801,-0.00000691,0
 .,-0.00000568,0.00000017,0.,-0.00000259,0.00000087,0.,-0.00000303,0.00
 000036,0.,0.00000784,0.00000805,0.,-0.00000886,-0.00006553,0.,-0.00008
 319,0.00012169,0.,0.00009154,-0.00025806,0.,0.00058564,-0.00096186,0.,
 0.00000384,-0.00552658,0.,-0.03120710,-0.00466213,0.,-0.08742459,-0.09
 066522,0.,0.00098779,0.00040665,0.,0.00256921,-0.00260888,0.,0.0195483
 4,0.00970715,0.,0.00172614,0.00109770,0.,-0.00056778,0.00013939,0.,0.0
 0024103,0.00025152,0.,-0.00000210,0.00000013,0.,-0.00000009,0.00000026
 ,0.,0.00000141,0.00000114,0.,-0.00000231,0.00000167,0.,-0.00000146,-0.
 00000104,0.,-0.00000048,-0.00000536,0.,0.00000627,0.00009809,0.,0.0000
 0026,-0.00000348,0.,-0.00000245,0.00000034,0.,-0.00000017,-0.00000282,
 0.,-0.00141248,-0.00045032,0.,0.00036345,0.00085950,0.,0.09508566,0.09
 301401,0.,0.,-0.00000676,0.,0.,-0.00015447,0.,0.,-0.00000550,0.,0.,0.0
 0003302,0.,0.,0.00000132,0.,0.,-0.00000542,0.,0.,-0.00000124,0.,0.,-0.
 00008446,0.,0.,0.00003786,0.,0.,0.00000019,0.,0.,0.00007779,0.,0.,0.00
 001763,0.,0.,0.00001336,0.,0.,0.00000460,0.,0.,-0.00000515,0.,0.,-0.00
 000299,0.,0.,-0.00000244,0.,0.,-0.00000136,0.,0.,-0.00000486,0.,0.,0.0
 0007953,0.,0.,-0.00103744,0.,0.,0.00026897,0.,0.,-0.00111765,0.,0.,0.0
 0881091,0.,0.,0.00361622,0.,0.,-0.03590231,0.,0.,-0.00002585,0.,0.,0.0
 0520493,0.,0.,0.00275169,0.,0.,-0.00287556,0.,0.,-0.00016239,0.,0.,-0.
 00004891,0.,0.,0.00006824,0.,0.,-0.00000888,0.,0.,0.00000208,0.,0.,0.0
 0000032,0.,0.,0.00000224,0.,0.,0.00000275,0.,0.,0.00009042,0.,0.,0.000
 00208,0.,0.,0.00000123,0.,0.,0.00000097,0.,0.,0.00000110,0.,0.,-0.0048
 8361,0.,0.,0.02480162,-0.00007492,0.00004700,0.,0.00005048,-0.00003489
 ,0.,-0.00002013,0.00000125,0.,0.00001582,0.00000964,0.,-0.00000955,-0.
 00000385,0.,0.00000086,0.00000016,0.,-0.00000813,0.00000026,0.,-0.0000
 1003,-0.00002054,0.,-0.00004189,0.00002142,0.,0.00000268,-0.00000717,0
 .,0.00000880,-0.00001673,0.,-0.00002425,-0.00001125,0.,-0.00000314,0.0
 0000862,0.,-0.00000254,-0.00000663,0.,-0.00000012,-0.00000515,0.,-0.00
 000358,-0.00000859,0.,-0.00000306,0.00000299,0.,-0.00000578,-0.0000025
 4,0.,0.00000637,0.00000821,0.,-0.00004806,0.00001130,0.,0.00006018,-0.
 00012319,0.,0.00001212,-0.00005470,0.,-0.00037878,0.00052575,0.,0.0003
 7133,-0.00003138,0.,-0.00003233,-0.00044035,0.,0.00095000,0.00183757,0
 .,0.00043544,0.00042776,0.,0.00138213,-0.00084856,0.,-0.00358118,0.000
 23325,0.,-0.31223145,-0.08332552,0.,-0.01741255,-0.01063709,0.,-0.0013
 9639,0.00417625,0.,0.00006165,-0.00004916,0.,0.00000616,-0.00000150,0.
 ,0.00000238,0.00000168,0.,-0.00000346,0.00000211,0.,-0.00000261,-0.000
 00160,0.,-0.00000826,-0.00000667,0.,0.00001218,0.00000206,0.,-0.000002
 09,-0.00000511,0.,-0.00000349,0.,0.,-0.00000092,-0.00000382,0.,0.00002
 902,-0.00002107,0.,-0.00000662,-0.00005659,0.,0.00035764,-0.00047599,0
 .,0.33173152,0.00003326,-0.00001975,0.,-0.00004626,0.00002865,0.,0.000
 00996,0.00000395,0.,-0.00001435,0.00000096,0.,0.00000522,0.00000358,0.
 ,-0.00000270,0.00000113,0.,0.00000639,0.00000557,0.,0.00001306,-0.0000
 5104,0.,-0.00017683,0.00000487,0.,0.00000339,0.00000025,0.,0.00001590,
 0.00003096,0.,0.00000621,-0.00001124,0.,-0.00000038,0.00001003,0.,-0.0
 0000246,-0.00000329,0.,0.00000591,0.00000574,0.,0.00000455,0.00000282,
 0.,-0.00000020,-0.00000521,0.,-0.00000381,-0.00000417,0.,0.00000145,0.
 00000633,0.,0.00004744,-0.00002985,0.,0.00014038,-0.00045798,0.,0.0000
 4013,0.00009512,0.,-0.00160212,0.00005003,0.,-0.00017527,0.00004772,0.
 ,0.00044731,0.00024456,0.,-0.00184698,0.00115293,0.,0.00049947,-0.0010
 9777,0.,0.00043680,-0.00522864,0.,-0.02979813,-0.00511139,0.,-0.083379
 96,-0.08752063,0.,0.02129816,0.01118992,0.,0.00322782,-0.00230288,0.,-
 0.00004424,0.00004524,0.,-0.00000391,0.00000378,0.,-0.00000102,0.00000
 036,0.,0.00000099,-0.00000012,0.,0.00000037,0.00000026,0.,-0.00001683,
 -0.00000669,0.,0.00000948,0.00000423,0.,0.00000021,0.,0.,0.00000026,0.
 00000080,0.,0.00000003,0.00000028,0.,0.00008007,-0.00000866,0.,0.00000
 772,-0.00002047,0.,0.00114775,-0.00050983,0.,0.08901792,0.08834177,0.,
 0.,0.00003561,0.,0.,-0.00004234,0.,0.,0.00000680,0.,0.,-0.00001366,0.,
 0.,-0.00000179,0.,0.,0.00000100,0.,0.,-0.00000208,0.,0.,-0.00004591,0.
 ,0.,-0.00001944,0.,0.,0.00000902,0.,0.,0.00000791,0.,0.,-0.00000423,0.
 ,0.,0.00000211,0.,0.,0.00000428,0.,0.,-0.00000216,0.,0.,0.00000346,0.,
 0.,0.00000211,0.,0.,0.00000012,0.,0.,-0.00000295,0.,0.,0.00002742,0.,0
 .,0.00019743,0.,0.,-0.00096287,0.,0.,0.00005021,0.,0.,-0.00007252,0.,0
 .,-0.00013916,0.,0.,-0.00303686,0.,0.,-0.00114451,0.,0.,0.00541243,0.,
 0.,0.00289863,0.,0.,-0.03609245,0.,0.,0.00353332,0.,0.,0.00869785,0.,0
 .,0.00014739,0.,0.,0.00000226,0.,0.,0.00000113,0.,0.,0.00000093,0.,0.,
 0.00000041,0.,0.,0.00000536,0.,0.,0.00001935,0.,0.,0.00000098,0.,0.,0.
 00000056,0.,0.,0.00000110,0.,0.,0.00004046,0.,0.,0.00017360,0.,0.,0.00
 024749,0.,0.,0.02488791,-0.00000420,-0.00003406,0.,0.00003404,0.000074
 17,0.,-0.00003213,-0.00004488,0.,0.00000313,0.00001841,0.,-0.00000215,
 -0.00001588,0.,-0.00000600,-0.00000587,0.,-0.00001639,0.00000561,0.,0.
 00002624,-0.00001161,0.,0.00000617,-0.00002437,0.,-0.00005641,0.000019
 17,0.,0.00003188,-0.00015734,0.,-0.00001189,-0.00000300,0.,0.00001381,
 -0.00001907,0.,-0.00000308,0.00000882,0.,0.00001245,0.00000575,0.,-0.0
 0002355,-0.00000302,0.,0.00001381,0.00000613,0.,-0.00000391,0.00000251
 ,0.,0.00000392,0.00000090,0.,-0.00046952,0.00005544,0.,0.00000051,0.00
 008857,0.,0.00048997,-0.00138031,0.,0.00018419,-0.00042512,0.,-0.00039
 728,-0.00001666,0.,-0.00005851,0.00051562,0.,0.00088808,0.00052347,0.,
 -0.00538625,-0.00110620,0.,-0.00100425,0.00082749,0.,-0.00376170,0.003
 14682,0.,0.00949531,0.02491549,0.,-0.07035950,-0.05159484,0.,-0.001084
 80,-0.03048966,0.,-0.00002610,0.00001115,0.,-0.00000298,0.00000702,0.,
 -0.00000038,0.00000387,0.,-0.00000348,0.00000052,0.,-0.00000118,0.0000
 0007,0.,0.00000144,-0.00000240,0.,-0.00000157,-0.00001388,0.,-0.000005
 49,-0.00000420,0.,-0.00000160,-0.00000031,0.,-0.00000037,-0.00000161,0
 .,0.00000486,0.00000099,0.,0.00002481,0.00012119,0.,-0.00003561,-0.000
 01859,0.,0.00079254,-0.00042065,0.,0.06983834,-0.00005717,-0.00005620,
 0.,0.00004919,0.00004885,0.,-0.00003671,-0.00003009,0.,0.00002575,0.00
 002048,0.,-0.00001323,-0.00001359,0.,0.00000223,-0.00001065,0.,-0.0000
 2737,0.00000113,0.,-0.00001146,0.00000199,0.,-0.00001641,-0.00000306,0
 .,-0.00002025,-0.00000640,0.,0.00002038,-0.00006045,0.,-0.00001779,-0.
 00000743,0.,0.00000522,0.00000501,0.,-0.00000449,-0.00000498,0.,-0.000
 00276,-0.00000023,0.,-0.00002100,-0.00000853,0.,0.00000127,0.00001105,
 0.,-0.00000477,0.00000038,0.,0.00000942,0.00000738,0.,-0.00018747,0.00
 004823,0.,0.00003161,-0.00000375,0.,0.00024342,-0.00035806,0.,-0.00005
 960,0.00009586,0.,0.00010481,0.00007709,0.,0.00033679,-0.00029216,0.,-
 0.00076267,-0.00066306,0.,-0.00160878,0.00151975,0.,0.00033426,0.00049
 024,0.,0.00383210,-0.00036811,0.,-0.00702841,-0.01597114,0.,-0.0514002
 7,-0.33239178,0.,0.00111679,-0.00574017,0.,0.00000365,-0.00001406,0.,0
 .00000115,0.00000275,0.,0.00000267,0.00000367,0.,-0.00000610,0.0000028
 6,0.,-0.00000309,-0.00000179,0.,-0.00000434,-0.00000744,0.,0.00000526,
 -0.00000033,0.,-0.00000378,-0.00000705,0.,-0.00000440,-0.00000038,0.,-
 0.00000088,-0.00000517,0.,-0.00000190,-0.00002252,0.,-0.00002344,-0.00
 010298,0.,0.00004508,0.00000735,0.,0.00033087,0.00082560,0.,0.05516018
 ,0.35214219,0.,0.,0.00015479,0.,0.,-0.00004643,0.,0.,0.00000372,0.,0.,
 -0.00000257,0.,0.,-0.00000185,0.,0.,-0.00000250,0.,0.,-0.00000016,0.,0
 .,-0.00001040,0.,0.,0.00003453,0.,0.,0.00001947,0.,0.,-0.00003101,0.,0
 .,-0.00000062,0.,0.,0.00000014,0.,0.,-0.00000749,0.,0.,0.00001255,0.,0
 .,-0.00000459,0.,0.,0.00000169,0.,0.,-0.00000245,0.,0.,0.00000098,0.,0
 .,-0.00019322,0.,0.,0.00004258,0.,0.,0.00009820,0.,0.,-0.00083801,0.,0
 .,0.00008724,0.,0.,-0.00064798,0.,0.,0.00011918,0.,0.,0.00636371,0.,0.
 ,-0.00087750,0.,0.,0.00939115,0.,0.,0.00318908,0.,0.,-0.03733249,0.,0.
 ,0.00193772,0.,0.,-0.00001964,0.,0.,0.00000764,0.,0.,0.00000308,0.,0.,
 0.00000144,0.,0.,0.00000081,0.,0.,-0.00000520,0.,0.,0.00000292,0.,0.,0
 .00000443,0.,0.,0.00000094,0.,0.,0.00000065,0.,0.,0.00010442,0.,0.,-0.
 00002151,0.,0.,0.00016119,0.,0.,-0.00474892,0.,0.,0.02608234,-0.002936
 69,-0.00276413,0.,0.00001521,-0.00014007,0.,0.00005207,-0.00003645,0.,
 -0.00001665,-0.00000410,0.,0.00000558,0.00000580,0.,0.00000548,0.00000
 048,0.,0.00000960,-0.00000760,0.,-0.00004056,0.00002966,0.,0.00004260,
 0.00004549,0.,0.00003991,-0.00001915,0.,-0.00005640,0.00012585,0.,-0.0
 0003565,-0.00002900,0.,-0.00001891,0.00000287,0.,0.00000410,-0.0000111
 3,0.,-0.00000442,-0.00000423,0.,0.00001691,0.00000748,0.,-0.00000714,0
 .00000376,0.,0.00000886,0.00000049,0.,-0.00000866,-0.00000952,0.,0.000
 21249,0.00001222,0.,-0.00007881,0.00003653,0.,-0.00170786,0.00110579,0
 .,0.00040391,0.00007164,0.,0.00018601,-0.00004759,0.,-0.00011157,-0.00
 018074,0.,-0.00009120,0.00030326,0.,0.00939953,-0.00310182,0.,0.000312
 93,-0.00240941,0.,0.00009765,-0.00099248,0.,-0.00465660,-0.00332413,0.
 ,-0.01810193,0.02309750,0.,-0.20760845,0.14125885,0.,-0.00487896,-0.00
 256623,0.,-0.00001600,0.00001117,0.,-0.00000243,-0.00000250,0.,0.00000
 408,-0.00000145,0.,0.00000228,0.00000114,0.,0.00000167,0.00000406,0.,-
 0.00000319,0.00000719,0.,0.00000438,0.00000572,0.,0.00000304,0.0000000
 9,0.,0.00000024,0.00000304,0.,0.00003325,-0.00002061,0.,-0.00000598,0.
 00001624,0.,0.00004322,-0.00004143,0.,-0.00097401,0.00102845,0.,0.0008
 9478,-0.00033353,0.,0.22956230,-0.00004402,-0.00100195,0.,-0.00035547,
 0.00081018,0.,-0.00001252,-0.00000663,0.,-0.00001947,-0.00000235,0.,0.
 00001497,0.00001758,0.,0.00001166,-0.00002693,0.,-0.00001170,0.0000095
 1,0.,-0.00004068,0.00007892,0.,-0.00005133,0.00000675,0.,-0.00003859,-
 0.00004342,0.,0.00008914,0.00006293,0.,0.00022502,0.00000284,0.,0.0000
 0042,0.00003255,0.,0.00000923,-0.00002545,0.,-0.00000656,0.00008665,0.
 ,-0.00001527,0.00002476,0.,-0.00000373,-0.00000308,0.,0.00000232,-0.00
 001120,0.,-0.00000114,0.00001667,0.,-0.00025355,-0.00019410,0.,0.00020
 718,0.00017406,0.,0.00141995,0.00080750,0.,0.00169826,-0.00001171,0.,-
 0.00012973,-0.00056723,0.,-0.00016736,-0.00018297,0.,-0.00008073,0.000
 34881,0.,0.02470740,-0.01580727,0.,-0.00317260,-0.00475958,0.,-0.00066
 405,-0.00056626,0.,-0.00246633,0.00040824,0.,-0.00943224,0.01003567,0.
 ,0.14178473,-0.19553112,0.,-0.00206546,0.00102582,0.,-0.00004033,0.000
 01750,0.,-0.00000328,-0.00000133,0.,0.00000383,-0.00000035,0.,0.000004
 66,0.00000117,0.,-0.00000932,-0.00000332,0.,0.00001215,0.00003932,0.,-
 0.00000069,0.00000285,0.,0.00000421,0.00000189,0.,0.00000374,0.0000036
 5,0.,0.00014634,-0.00012816,0.,0.00000883,-0.00000824,0.,0.00006191,-0
 .00002635,0.,-0.00046649,0.00028220,0.,0.00027416,0.00083975,0.,-0.151
 13748,0.20377127,0.,0.,-0.00040165,0.,0.,-0.00032857,0.,0.,0.00000741,
 0.,0.,-0.00003407,0.,0.,-0.00002281,0.,0.,0.00000473,0.,0.,-0.00000058
 ,0.,0.,-0.00005059,0.,0.,0.00015139,0.,0.,-0.00000709,0.,0.,0.00007346
 ,0.,0.,0.00002520,0.,0.,0.00000995,0.,0.,0.00000566,0.,0.,0.00001237,0
 .,0.,-0.00000003,0.,0.,0.00000043,0.,0.,0.00000516,0.,0.,-0.00000453,0
 .,0.,-0.00029112,0.,0.,0.00006979,0.,0.,-0.00373950,0.,0.,0.00057650,0
 .,0.,-0.00088518,0.,0.,0.00018889,0.,0.,-0.00080696,0.,0.,0.00303735,0
 .,0.,0.00858894,0.,0.,-0.00108179,0.,0.,0.00644495,0.,0.,0.00312124,0.
 ,0.,-0.03698591,0.,0.,0.00215937,0.,0.,0.00003826,0.,0.,0.00000998,0.,
 0.,0.00000348,0.,0.,-0.00000046,0.,0.,0.00000469,0.,0.,-0.00004661,0.,
 0.,0.00000356,0.,0.,0.00000073,0.,0.,0.00000139,0.,0.,-0.00000721,0.,0
 .,0.00010613,0.,0.,0.00003750,0.,0.,-0.00008681,0.,0.,-0.00303205,0.,0
 .,0.02312498\\-0.00000110,0.00000048,0.,0.00000435,-0.00000236,0.,-0.0
 0000555,0.00000189,0.,0.00000541,0.00000451,0.,-0.00000425,0.00000203,
 0.,0.00000397,0.00000630,0.,0.00000065,-0.00000058,0.,-0.00000653,0.00
 000283,0.,0.00000288,0.00000247,0.,0.00000137,-0.00000762,0.,0.0000002
 0,0.00000715,0.,0.00000466,-0.00000002,0.,0.00000044,0.00000125,0.,-0.
 00000309,-0.00000182,0.,-0.00000637,0.00000657,0.,0.00000587,-0.000003
 29,0.,-0.00000545,0.00000280,0.,-0.00000135,0.00000482,0.,0.00000213,0
 .00000193,0.,-0.00000484,-0.00000104,0.,-0.00000164,-0.00000530,0.,0.0
 0000002,-0.00000286,0.,0.00000013,0.00000753,0.,0.00000364,-0.00000556
 ,0.,-0.00000428,-0.00000532,0.,-0.00000329,0.00000319,0.,0.00000104,0.
 00000479,0.,0.00000133,-0.00000938,0.,0.00000582,-0.00000658,0.,-0.000
 00285,0.00000308,0.,0.00000984,-0.00000403,0.,-0.00000483,-0.00000576,
 0.,0.00000117,-0.00000050,0.,0.00000243,0.00000056,0.,0.00000242,0.000
 00185,0.,0.00000127,0.00000298,0.,0.00000063,0.00000381,0.,-0.00000196
 ,-0.00000049,0.,-0.00000309,-0.00000194,0.,-0.00000280,0.00000131,0.,-
 0.00000053,0.00000244,0.,-0.00000252,0.00000234,0.,-0.00000137,-0.0000
 0136,0.,-0.00000069,-0.00000250,0.,0.00000076,-0.00000397,0.,0.0000019
 3,-0.00000333,0.,0.00000177,-0.00000241,0.,0.00000226,-0.00000086,0.\\
 \@


 ACTORS ARE SO FORTUNATE.  THEY CAN CHOOSE WHETHER
 THEY WILL APPEAR IN A TRAGEDY OR IN COMEDY,
 WHETHER THEY WILL SUFFER OF MAKE MERRY,
 LAUGH OR SHED TEARS.  BUT IN REAL LIFE IT IS DIFFERENT.
 MOST MEN AND WOMEN ARE FORCED TO PERFORM
 PARTS FOR WHICH THEY HAVE NO QUALIFICATIONS.
 THE WORLD IS A STAGE, BUT THE PLAY IS BADLY CAST.

                                   -- OSCAR WILDE
 Job cpu time:       4 days 14 hours  3 minutes 10.7 seconds.
 File lengths (MBytes):  RWF=   4430 Int=      0 D2E=      0 Chk=     85 Scr=      1
 Normal termination of Gaussian 09 at Sun Jul 28 01:48:55 2019.
