 Entering Gaussian System, Link 0=g09
 Initial command:
 /home/minenky/programs//g09/l1.exe "/local/scratch/minenky/m1_00_190-66-9-C32H16_wB97XD/Gau-209109.inp" -scrdir="/local/scratch/minenky/m1_00_190-66-9-C32H16_wB97XD/"
 Entering Link 1 = /home/minenky/programs//g09/l1.exe PID=    209110.
  
 Copyright (c) 1988,1990,1992,1993,1995,1998,2003,2009,2013,
            Gaussian, Inc.  All Rights Reserved.
  
 This is part of the Gaussian(R) 09 program.  It is based on
 the Gaussian(R) 03 system (copyright 2003, Gaussian, Inc.),
 the Gaussian(R) 98 system (copyright 1998, Gaussian, Inc.),
 the Gaussian(R) 94 system (copyright 1995, Gaussian, Inc.),
 the Gaussian 92(TM) system (copyright 1992, Gaussian, Inc.),
 the Gaussian 90(TM) system (copyright 1990, Gaussian, Inc.),
 the Gaussian 88(TM) system (copyright 1988, Gaussian, Inc.),
 the Gaussian 86(TM) system (copyright 1986, Carnegie Mellon
 University), and the Gaussian 82(TM) system (copyright 1983,
 Carnegie Mellon University). Gaussian is a federally registered
 trademark of Gaussian, Inc.
  
 This software contains proprietary and confidential information,
 including trade secrets, belonging to Gaussian, Inc.
  
 This software is provided under written license and may be
 used, copied, transmitted, or stored only in accord with that
 written license.
  
 The following legend is applicable only to US Government
 contracts under FAR:
  
                    RESTRICTED RIGHTS LEGEND
  
 Use, reproduction and disclosure by the US Government is
 subject to restrictions as set forth in subparagraphs (a)
 and (c) of the Commercial Computer Software - Restricted
 Rights clause in FAR 52.227-19.
  
 Gaussian, Inc.
 340 Quinnipiac St., Bldg. 40, Wallingford CT 06492
  
  
 ---------------------------------------------------------------
 Warning -- This program may not be used in any manner that
 competes with the business of Gaussian, Inc. or will provide
 assistance to any competitor of Gaussian, Inc.  The licensee
 of this program is prohibited from giving any competitor of
 Gaussian, Inc. access to this program.  By using this program,
 the user acknowledges that Gaussian, Inc. is engaged in the
 business of creating and licensing software in the field of
 computational chemistry and represents and warrants to the
 licensee that it is not a competitor of Gaussian, Inc. and that
 it will not use this program in any manner prohibited above.
 ---------------------------------------------------------------
  

 Cite this work as:
 Gaussian 09, Revision D.01,
 M. J. Frisch, G. W. Trucks, H. B. Schlegel, G. E. Scuseria, 
 M. A. Robb, J. R. Cheeseman, G. Scalmani, V. Barone, B. Mennucci, 
 G. A. Petersson, H. Nakatsuji, M. Caricato, X. Li, H. P. Hratchian, 
 A. F. Izmaylov, J. Bloino, G. Zheng, J. L. Sonnenberg, M. Hada, 
 M. Ehara, K. Toyota, R. Fukuda, J. Hasegawa, M. Ishida, T. Nakajima, 
 Y. Honda, O. Kitao, H. Nakai, T. Vreven, J. A. Montgomery, Jr., 
 J. E. Peralta, F. Ogliaro, M. Bearpark, J. J. Heyd, E. Brothers, 
 K. N. Kudin, V. N. Staroverov, T. Keith, R. Kobayashi, J. Normand, 
 K. Raghavachari, A. Rendell, J. C. Burant, S. S. Iyengar, J. Tomasi, 
 M. Cossi, N. Rega, J. M. Millam, M. Klene, J. E. Knox, J. B. Cross, 
 V. Bakken, C. Adamo, J. Jaramillo, R. Gomperts, R. E. Stratmann, 
 O. Yazyev, A. J. Austin, R. Cammi, C. Pomelli, J. W. Ochterski, 
 R. L. Martin, K. Morokuma, V. G. Zakrzewski, G. A. Voth, 
 P. Salvador, J. J. Dannenberg, S. Dapprich, A. D. Daniels, 
 O. Farkas, J. B. Foresman, J. V. Ortiz, J. Cioslowski, 
 and D. J. Fox, Gaussian, Inc., Wallingford CT, 2013.
 
 ******************************************
 Gaussian 09:  AM64L-G09RevD.01 24-Apr-2013
                31-Jul-2019 
 ******************************************
 %Mem=32000MB
 %NProcShared=16
 Will use up to   16 processors via shared memory.
 %Chk=m1_00_190-66-9-C32H16_wB97XD
 ----------------------------------------------------------------------
 #P wB97XD/def2tzvp opt=(tight) freq integral(Grid=ultrafine) # SCF(Max
 Cycle=380) 5d 7f GFPrint
 ----------------------------------------------------------------------
 1/7=10,14=-1,18=20,19=15,26=4,38=1/1,3;
 2/9=110,12=2,17=6,18=5,40=1/2;
 3/5=44,7=101,8=11,11=2,16=1,24=100,25=1,30=1,71=1,74=-58,75=-5/1,2,3;
 4//1;
 5/5=2,7=380,38=5/2;
 6/7=2,8=2,9=2,10=2,28=1/1;
 7//1,2,3,16;
 1/7=10,14=-1,18=20,19=15,26=4/3(2);
 2/9=110/2;
 99//99;
 2/9=110/2;
 3/5=44,7=101,8=11,11=2,16=1,25=1,30=1,71=1,74=-58,75=-5/1,2,3;
 4/5=5,16=3,69=1/1;
 5/5=2,7=380,38=5/2;
 7//1,2,3,16;
 1/7=10,14=-1,18=20,19=15,26=4/3(-5);
 2/9=110/2;
 6/7=2,8=2,9=2,10=2,19=2,28=1/1;
 99/9=1/99;
 Leave Link    1 at Wed Jul 31 17:00:27 2019, MaxMem=  4194304000 cpu:         0.9
 (Enter /home/minenky/programs//g09/l101.exe)
 ---------------------------------------
 The PBEPBE optimization and frequencies
 ---------------------------------------
 Symbolic Z-matrix:
 Charge =  0 Multiplicity = 1
 C                     0.9951    7.6993    0.2601 
 C                     1.7566    8.8454    0.5358 
 C                     1.5661    6.4488    0.397 
 C                     3.0705    8.713     0.9415 
 C                     3.6815    7.4451    1.0903 
 C                     2.9095    6.2831    0.8112 
 C                     5.0696    7.3081    1.5176 
 C                     3.5137    4.9644    0.955 
 C                     4.8654    4.8478    1.367 
 C                     5.6531    6.0224    1.6515 
 C                     7.0195    5.8886    2.0685 
 C                     5.4587    3.5547    1.5038 
 C                     2.7833    3.7776    0.6916 
 C                     5.8726    8.4313    1.8084 
 C                     6.8222    3.4214    1.9167 
 C                     7.6104    4.5792    2.2011 
 C                     8.9602    4.4315    2.6094 
 C                     7.3897    2.1226    2.0427 
 C                     4.695     2.386     1.2288 
 C                     7.7962    7.041     2.352 
 C                     9.4919    3.1217    2.7227 
 C                     8.7371    2.0071    2.4503 
 C                     6.5956    0.9712    1.7586 
 C                     9.7637    5.612     2.9018 
 C                     5.2951    1.0983    1.3663 
 C                     3.3503    2.5336    0.8228 
 C                     11.1148   5.5138    3.3128 
 C                     11.8743   6.6333    3.592 
 C                     9.1855    6.9058    2.7758 
 C                     9.9871    8.0347    3.069 
 C                     11.3034   7.9095    3.4691 
 C                     7.1815    8.303     2.2093 
 H                    -0.0389    7.7909   -0.0606 
 H                     1.3184    9.8341    0.431 
 H                     0.9568    5.5805    0.1765 
 H                     3.6365    9.6136    1.1473 
 H                     1.7484    3.838     0.3774 
 H                     5.4654    9.431     1.7194 
 H                     10.5202   2.9804    3.0326 
 H                     9.1744    1.0165    2.5477 
 H                     7.0502   -0.0109    1.8623 
 H                     4.6924    0.2195    1.1507 
 H                     2.763     1.643     0.6127 
 H                     11.5794   4.5405    3.4159 
 H                     12.9087   6.5225    3.9055 
 H                     9.5707    9.0311    2.9818 
 H                     11.8909   8.7972    3.6868 
 H                     7.7393    9.2082    2.4161 
 
 NAtoms=     48 NQM=       48 NQMF=       0 NMMI=      0 NMMIF=      0
                NMic=       0 NMicF=      0.
                    Isotopes and Nuclear Properties:
 (Nuclear quadrupole moments (NQMom) in fm**2, nuclear magnetic moments (NMagM)
  in nuclear magnetons)

  Atom         1           2           3           4           5           6           7           8           9          10
 IAtWgt=          12          12          12          12          12          12          12          12          12          12
 AtmWgt=  12.0000000  12.0000000  12.0000000  12.0000000  12.0000000  12.0000000  12.0000000  12.0000000  12.0000000  12.0000000
 NucSpn=           0           0           0           0           0           0           0           0           0           0
 AtZEff=   0.0000000   0.0000000   0.0000000   0.0000000   0.0000000   0.0000000   0.0000000   0.0000000   0.0000000   0.0000000
 NQMom=    0.0000000   0.0000000   0.0000000   0.0000000   0.0000000   0.0000000   0.0000000   0.0000000   0.0000000   0.0000000
 NMagM=    0.0000000   0.0000000   0.0000000   0.0000000   0.0000000   0.0000000   0.0000000   0.0000000   0.0000000   0.0000000
 AtZNuc=   6.0000000   6.0000000   6.0000000   6.0000000   6.0000000   6.0000000   6.0000000   6.0000000   6.0000000   6.0000000

  Atom        11          12          13          14          15          16          17          18          19          20
 IAtWgt=          12          12          12          12          12          12          12          12          12          12
 AtmWgt=  12.0000000  12.0000000  12.0000000  12.0000000  12.0000000  12.0000000  12.0000000  12.0000000  12.0000000  12.0000000
 NucSpn=           0           0           0           0           0           0           0           0           0           0
 AtZEff=   0.0000000   0.0000000   0.0000000   0.0000000   0.0000000   0.0000000   0.0000000   0.0000000   0.0000000   0.0000000
 NQMom=    0.0000000   0.0000000   0.0000000   0.0000000   0.0000000   0.0000000   0.0000000   0.0000000   0.0000000   0.0000000
 NMagM=    0.0000000   0.0000000   0.0000000   0.0000000   0.0000000   0.0000000   0.0000000   0.0000000   0.0000000   0.0000000
 AtZNuc=   6.0000000   6.0000000   6.0000000   6.0000000   6.0000000   6.0000000   6.0000000   6.0000000   6.0000000   6.0000000

  Atom        21          22          23          24          25          26          27          28          29          30
 IAtWgt=          12          12          12          12          12          12          12          12          12          12
 AtmWgt=  12.0000000  12.0000000  12.0000000  12.0000000  12.0000000  12.0000000  12.0000000  12.0000000  12.0000000  12.0000000
 NucSpn=           0           0           0           0           0           0           0           0           0           0
 AtZEff=   0.0000000   0.0000000   0.0000000   0.0000000   0.0000000   0.0000000   0.0000000   0.0000000   0.0000000   0.0000000
 NQMom=    0.0000000   0.0000000   0.0000000   0.0000000   0.0000000   0.0000000   0.0000000   0.0000000   0.0000000   0.0000000
 NMagM=    0.0000000   0.0000000   0.0000000   0.0000000   0.0000000   0.0000000   0.0000000   0.0000000   0.0000000   0.0000000
 AtZNuc=   6.0000000   6.0000000   6.0000000   6.0000000   6.0000000   6.0000000   6.0000000   6.0000000   6.0000000   6.0000000

  Atom        31          32          33          34          35          36          37          38          39          40
 IAtWgt=          12          12           1           1           1           1           1           1           1           1
 AtmWgt=  12.0000000  12.0000000   1.0078250   1.0078250   1.0078250   1.0078250   1.0078250   1.0078250   1.0078250   1.0078250
 NucSpn=           0           0           1           1           1           1           1           1           1           1
 AtZEff=   0.0000000   0.0000000   0.0000000   0.0000000   0.0000000   0.0000000   0.0000000   0.0000000   0.0000000   0.0000000
 NQMom=    0.0000000   0.0000000   0.0000000   0.0000000   0.0000000   0.0000000   0.0000000   0.0000000   0.0000000   0.0000000
 NMagM=    0.0000000   0.0000000   2.7928460   2.7928460   2.7928460   2.7928460   2.7928460   2.7928460   2.7928460   2.7928460
 AtZNuc=   6.0000000   6.0000000   1.0000000   1.0000000   1.0000000   1.0000000   1.0000000   1.0000000   1.0000000   1.0000000

  Atom        41          42          43          44          45          46          47          48
 IAtWgt=           1           1           1           1           1           1           1           1
 AtmWgt=   1.0078250   1.0078250   1.0078250   1.0078250   1.0078250   1.0078250   1.0078250   1.0078250
 NucSpn=           1           1           1           1           1           1           1           1
 AtZEff=   0.0000000   0.0000000   0.0000000   0.0000000   0.0000000   0.0000000   0.0000000   0.0000000
 NQMom=    0.0000000   0.0000000   0.0000000   0.0000000   0.0000000   0.0000000   0.0000000   0.0000000
 NMagM=    2.7928460   2.7928460   2.7928460   2.7928460   2.7928460   2.7928460   2.7928460   2.7928460
 AtZNuc=   1.0000000   1.0000000   1.0000000   1.0000000   1.0000000   1.0000000   1.0000000   1.0000000
 Leave Link  101 at Wed Jul 31 17:00:27 2019, MaxMem=  4194304000 cpu:         5.9
 (Enter /home/minenky/programs//g09/l103.exe)

 GradGradGradGradGradGradGradGradGradGradGradGradGradGradGradGradGradGrad
 Berny optimization.
 Initialization pass.
                           ----------------------------
                           !    Initial Parameters    !
                           ! (Angstroms and Degrees)  !
 --------------------------                            --------------------------
 ! Name  Definition              Value          Derivative Info.                !
 --------------------------------------------------------------------------------
 ! R1    R(1,2)                  1.4034         estimate D2E/DX2                !
 ! R2    R(1,3)                  1.3815         estimate D2E/DX2                !
 ! R3    R(1,33)                 1.0865         estimate D2E/DX2                !
 ! R4    R(2,4)                  1.3815         estimate D2E/DX2                !
 ! R5    R(2,34)                 1.0865         estimate D2E/DX2                !
 ! R6    R(3,6)                  1.4155         estimate D2E/DX2                !
 ! R7    R(3,35)                 1.0834         estimate D2E/DX2                !
 ! R8    R(4,5)                  1.4153         estimate D2E/DX2                !
 ! R9    R(4,36)                 1.0834         estimate D2E/DX2                !
 ! R10   R(5,6)                  1.4227         estimate D2E/DX2                !
 ! R11   R(5,7)                  1.4588         estimate D2E/DX2                !
 ! R12   R(6,8)                  1.4576         estimate D2E/DX2                !
 ! R13   R(7,10)                 1.4182         estimate D2E/DX2                !
 ! R14   R(7,14)                 1.411          estimate D2E/DX2                !
 ! R15   R(8,9)                  1.4179         estimate D2E/DX2                !
 ! R16   R(8,13)                 1.4182         estimate D2E/DX2                !
 ! R17   R(9,10)                 1.4426         estimate D2E/DX2                !
 ! R18   R(9,12)                 1.4293         estimate D2E/DX2                !
 ! R19   R(10,11)                1.4349         estimate D2E/DX2                !
 ! R20   R(11,16)                1.4427         estimate D2E/DX2                !
 ! R21   R(11,20)                1.4183         estimate D2E/DX2                !
 ! R22   R(12,15)                1.4309         estimate D2E/DX2                !
 ! R23   R(12,19)                1.4229         estimate D2E/DX2                !
 ! R24   R(13,26)                1.3734         estimate D2E/DX2                !
 ! R25   R(13,37)                1.0832         estimate D2E/DX2                !
 ! R26   R(14,32)                1.3749         estimate D2E/DX2                !
 ! R27   R(14,38)                1.0831         estimate D2E/DX2                !
 ! R28   R(15,16)                1.4292         estimate D2E/DX2                !
 ! R29   R(15,18)                1.423          estimate D2E/DX2                !
 ! R30   R(16,17)                1.4179         estimate D2E/DX2                !
 ! R31   R(17,21)                1.4181         estimate D2E/DX2                !
 ! R32   R(17,24)                1.4576         estimate D2E/DX2                !
 ! R33   R(18,22)                1.4124         estimate D2E/DX2                !
 ! R34   R(18,23)                1.4272         estimate D2E/DX2                !
 ! R35   R(19,25)                1.4273         estimate D2E/DX2                !
 ! R36   R(19,26)                1.4124         estimate D2E/DX2                !
 ! R37   R(20,29)                1.4588         estimate D2E/DX2                !
 ! R38   R(20,32)                1.411          estimate D2E/DX2                !
 ! R39   R(21,22)                1.3734         estimate D2E/DX2                !
 ! R40   R(21,39)                1.0832         estimate D2E/DX2                !
 ! R41   R(22,40)                1.0872         estimate D2E/DX2                !
 ! R42   R(23,25)                1.3643         estimate D2E/DX2                !
 ! R43   R(23,41)                1.0872         estimate D2E/DX2                !
 ! R44   R(24,27)                1.4156         estimate D2E/DX2                !
 ! R45   R(24,29)                1.4227         estimate D2E/DX2                !
 ! R46   R(25,42)                1.0872         estimate D2E/DX2                !
 ! R47   R(26,43)                1.0873         estimate D2E/DX2                !
 ! R48   R(27,28)                1.3813         estimate D2E/DX2                !
 ! R49   R(27,44)                1.0834         estimate D2E/DX2                !
 ! R50   R(28,31)                1.4035         estimate D2E/DX2                !
 ! R51   R(28,45)                1.0865         estimate D2E/DX2                !
 ! R52   R(29,30)                1.4153         estimate D2E/DX2                !
 ! R53   R(30,31)                1.3814         estimate D2E/DX2                !
 ! R54   R(30,46)                1.0834         estimate D2E/DX2                !
 ! R55   R(31,47)                1.0865         estimate D2E/DX2                !
 ! R56   R(32,48)                1.0832         estimate D2E/DX2                !
 ! A1    A(2,1,3)              119.7024         estimate D2E/DX2                !
 ! A2    A(2,1,33)             120.3684         estimate D2E/DX2                !
 ! A3    A(3,1,33)             119.9292         estimate D2E/DX2                !
 ! A4    A(1,2,4)              119.7032         estimate D2E/DX2                !
 ! A5    A(1,2,34)             120.3552         estimate D2E/DX2                !
 ! A6    A(4,2,34)             119.9416         estimate D2E/DX2                !
 ! A7    A(1,3,6)              121.8173         estimate D2E/DX2                !
 ! A8    A(1,3,35)             118.2184         estimate D2E/DX2                !
 ! A9    A(6,3,35)             119.9643         estimate D2E/DX2                !
 ! A10   A(2,4,5)              121.8256         estimate D2E/DX2                !
 ! A11   A(2,4,36)             118.2283         estimate D2E/DX2                !
 ! A12   A(5,4,36)             119.9461         estimate D2E/DX2                !
 ! A13   A(4,5,6)              118.4771         estimate D2E/DX2                !
 ! A14   A(4,5,7)              121.7162         estimate D2E/DX2                !
 ! A15   A(6,5,7)              119.8067         estimate D2E/DX2                !
 ! A16   A(3,6,5)              118.4745         estimate D2E/DX2                !
 ! A17   A(3,6,8)              121.8806         estimate D2E/DX2                !
 ! A18   A(5,6,8)              119.6449         estimate D2E/DX2                !
 ! A19   A(5,7,10)             120.2826         estimate D2E/DX2                !
 ! A20   A(5,7,14)             121.8107         estimate D2E/DX2                !
 ! A21   A(10,7,14)            117.9067         estimate D2E/DX2                !
 ! A22   A(6,8,9)              119.8821         estimate D2E/DX2                !
 ! A23   A(6,8,13)             121.6858         estimate D2E/DX2                !
 ! A24   A(9,8,13)             118.4321         estimate D2E/DX2                !
 ! A25   A(8,9,10)             120.7226         estimate D2E/DX2                !
 ! A26   A(8,9,12)             119.8636         estimate D2E/DX2                !
 ! A27   A(10,9,12)            119.4138         estimate D2E/DX2                !
 ! A28   A(7,10,9)             119.6605         estimate D2E/DX2                !
 ! A29   A(7,10,11)            120.2493         estimate D2E/DX2                !
 ! A30   A(9,10,11)            120.0901         estimate D2E/DX2                !
 ! A31   A(10,11,16)           120.0922         estimate D2E/DX2                !
 ! A32   A(10,11,20)           120.2524         estimate D2E/DX2                !
 ! A33   A(16,11,20)           119.6554         estimate D2E/DX2                !
 ! A34   A(9,12,15)            120.4951         estimate D2E/DX2                !
 ! A35   A(9,12,19)            120.1187         estimate D2E/DX2                !
 ! A36   A(15,12,19)           119.3862         estimate D2E/DX2                !
 ! A37   A(8,13,26)            121.8444         estimate D2E/DX2                !
 ! A38   A(8,13,37)            119.9499         estimate D2E/DX2                !
 ! A39   A(26,13,37)           118.2056         estimate D2E/DX2                !
 ! A40   A(7,14,32)            121.8422         estimate D2E/DX2                !
 ! A41   A(7,14,38)            120.2539         estimate D2E/DX2                !
 ! A42   A(32,14,38)           117.9039         estimate D2E/DX2                !
 ! A43   A(12,15,16)           120.4962         estimate D2E/DX2                !
 ! A44   A(12,15,18)           119.3815         estimate D2E/DX2                !
 ! A45   A(16,15,18)           120.1223         estimate D2E/DX2                !
 ! A46   A(11,16,15)           119.4123         estimate D2E/DX2                !
 ! A47   A(11,16,17)           120.7255         estimate D2E/DX2                !
 ! A48   A(15,16,17)           119.8622         estimate D2E/DX2                !
 ! A49   A(16,17,21)           118.4331         estimate D2E/DX2                !
 ! A50   A(16,17,24)           119.8782         estimate D2E/DX2                !
 ! A51   A(21,17,24)           121.6887         estimate D2E/DX2                !
 ! A52   A(15,18,22)           118.7276         estimate D2E/DX2                !
 ! A53   A(15,18,23)           119.7896         estimate D2E/DX2                !
 ! A54   A(22,18,23)           121.4828         estimate D2E/DX2                !
 ! A55   A(12,19,25)           119.7836         estimate D2E/DX2                !
 ! A56   A(12,19,26)           118.7319         estimate D2E/DX2                !
 ! A57   A(25,19,26)           121.4845         estimate D2E/DX2                !
 ! A58   A(11,20,29)           120.2849         estimate D2E/DX2                !
 ! A59   A(11,20,32)           117.8999         estimate D2E/DX2                !
 ! A60   A(29,20,32)           121.8152         estimate D2E/DX2                !
 ! A61   A(17,21,22)           121.8474         estimate D2E/DX2                !
 ! A62   A(17,21,39)           119.9502         estimate D2E/DX2                !
 ! A63   A(22,21,39)           118.2025         estimate D2E/DX2                !
 ! A64   A(18,22,21)           121.0074         estimate D2E/DX2                !
 ! A65   A(18,22,40)           118.9514         estimate D2E/DX2                !
 ! A66   A(21,22,40)           120.0412         estimate D2E/DX2                !
 ! A67   A(18,23,25)           120.8267         estimate D2E/DX2                !
 ! A68   A(18,23,41)           118.4977         estimate D2E/DX2                !
 ! A69   A(25,23,41)           120.6756         estimate D2E/DX2                !
 ! A70   A(17,24,27)           121.8816         estimate D2E/DX2                !
 ! A71   A(17,24,29)           119.65           estimate D2E/DX2                !
 ! A72   A(27,24,29)           118.4684         estimate D2E/DX2                !
 ! A73   A(19,25,23)           120.8322         estimate D2E/DX2                !
 ! A74   A(19,25,42)           118.4942         estimate D2E/DX2                !
 ! A75   A(23,25,42)           120.6735         estimate D2E/DX2                !
 ! A76   A(13,26,19)           121.0092         estimate D2E/DX2                !
 ! A77   A(13,26,43)           120.0305         estimate D2E/DX2                !
 ! A78   A(19,26,43)           118.9603         estimate D2E/DX2                !
 ! A79   A(24,27,28)           121.8184         estimate D2E/DX2                !
 ! A80   A(24,27,44)           119.9486         estimate D2E/DX2                !
 ! A81   A(28,27,44)           118.233          estimate D2E/DX2                !
 ! A82   A(27,28,31)           119.7093         estimate D2E/DX2                !
 ! A83   A(27,28,45)           119.9422         estimate D2E/DX2                !
 ! A84   A(31,28,45)           120.3485         estimate D2E/DX2                !
 ! A85   A(20,29,24)           119.8058         estimate D2E/DX2                !
 ! A86   A(20,29,30)           121.7142         estimate D2E/DX2                !
 ! A87   A(24,29,30)           118.48           estimate D2E/DX2                !
 ! A88   A(29,30,31)           121.8298         estimate D2E/DX2                !
 ! A89   A(29,30,46)           119.9492         estimate D2E/DX2                !
 ! A90   A(31,30,46)           118.2209         estimate D2E/DX2                !
 ! A91   A(28,31,30)           119.694          estimate D2E/DX2                !
 ! A92   A(28,31,47)           120.3592         estimate D2E/DX2                !
 ! A93   A(30,31,47)           119.9467         estimate D2E/DX2                !
 ! A94   A(14,32,20)           121.8493         estimate D2E/DX2                !
 ! A95   A(14,32,48)           117.8995         estimate D2E/DX2                !
 ! A96   A(20,32,48)           120.2512         estimate D2E/DX2                !
 ! D1    D(3,1,2,4)              0.0075         estimate D2E/DX2                !
 ! D2    D(3,1,2,34)           179.9592         estimate D2E/DX2                !
 ! D3    D(33,1,2,4)          -179.9412         estimate D2E/DX2                !
 ! D4    D(33,1,2,34)            0.0104         estimate D2E/DX2                !
 ! D5    D(2,1,3,6)              0.0102         estimate D2E/DX2                !
 ! D6    D(2,1,3,35)          -179.9132         estimate D2E/DX2                !
 ! D7    D(33,1,3,6)           179.9592         estimate D2E/DX2                !
 ! D8    D(33,1,3,35)            0.0358         estimate D2E/DX2                !
 ! D9    D(1,2,4,5)             -0.0072         estimate D2E/DX2                !
 ! D10   D(1,2,4,36)           179.9578         estimate D2E/DX2                !
 ! D11   D(34,2,4,5)          -179.959          estimate D2E/DX2                !
 ! D12   D(34,2,4,36)            0.006          estimate D2E/DX2                !
 ! D13   D(1,3,6,5)             -0.0278         estimate D2E/DX2                !
 ! D14   D(1,3,6,8)           -179.9466         estimate D2E/DX2                !
 ! D15   D(35,3,6,5)           179.8943         estimate D2E/DX2                !
 ! D16   D(35,3,6,8)            -0.0245         estimate D2E/DX2                !
 ! D17   D(2,4,5,6)             -0.0106         estimate D2E/DX2                !
 ! D18   D(2,4,5,7)            179.9381         estimate D2E/DX2                !
 ! D19   D(36,4,5,6)          -179.975          estimate D2E/DX2                !
 ! D20   D(36,4,5,7)            -0.0264         estimate D2E/DX2                !
 ! D21   D(4,5,6,3)              0.0274         estimate D2E/DX2                !
 ! D22   D(4,5,6,8)            179.948          estimate D2E/DX2                !
 ! D23   D(7,5,6,3)           -179.9223         estimate D2E/DX2                !
 ! D24   D(7,5,6,8)             -0.0016         estimate D2E/DX2                !
 ! D25   D(4,5,7,10)          -179.7425         estimate D2E/DX2                !
 ! D26   D(4,5,7,14)             0.205          estimate D2E/DX2                !
 ! D27   D(6,5,7,10)             0.2055         estimate D2E/DX2                !
 ! D28   D(6,5,7,14)          -179.8471         estimate D2E/DX2                !
 ! D29   D(3,6,8,9)            179.7123         estimate D2E/DX2                !
 ! D30   D(3,6,8,13)            -0.2448         estimate D2E/DX2                !
 ! D31   D(5,6,8,9)             -0.2055         estimate D2E/DX2                !
 ! D32   D(5,6,8,13)           179.8374         estimate D2E/DX2                !
 ! D33   D(5,7,10,9)            -0.2006         estimate D2E/DX2                !
 ! D34   D(5,7,10,11)          179.8386         estimate D2E/DX2                !
 ! D35   D(14,7,10,9)          179.8499         estimate D2E/DX2                !
 ! D36   D(14,7,10,11)          -0.1109         estimate D2E/DX2                !
 ! D37   D(5,7,14,32)         -179.904          estimate D2E/DX2                !
 ! D38   D(5,7,14,38)            0.0905         estimate D2E/DX2                !
 ! D39   D(10,7,14,32)           0.0447         estimate D2E/DX2                !
 ! D40   D(10,7,14,38)        -179.9609         estimate D2E/DX2                !
 ! D41   D(6,8,9,10)             0.2124         estimate D2E/DX2                !
 ! D42   D(6,8,9,12)          -179.8029         estimate D2E/DX2                !
 ! D43   D(13,8,9,10)         -179.8291         estimate D2E/DX2                !
 ! D44   D(13,8,9,12)            0.1556         estimate D2E/DX2                !
 ! D45   D(6,8,13,26)          179.8341         estimate D2E/DX2                !
 ! D46   D(6,8,13,37)           -0.1695         estimate D2E/DX2                !
 ! D47   D(9,8,13,26)           -0.1236         estimate D2E/DX2                !
 ! D48   D(9,8,13,37)          179.8728         estimate D2E/DX2                !
 ! D49   D(8,9,10,7)            -0.0089         estimate D2E/DX2                !
 ! D50   D(8,9,10,11)          179.952          estimate D2E/DX2                !
 ! D51   D(12,9,10,7)         -179.9936         estimate D2E/DX2                !
 ! D52   D(12,9,10,11)          -0.0327         estimate D2E/DX2                !
 ! D53   D(8,9,12,15)          179.905          estimate D2E/DX2                !
 ! D54   D(8,9,12,19)           -0.0691         estimate D2E/DX2                !
 ! D55   D(10,9,12,15)          -0.1101         estimate D2E/DX2                !
 ! D56   D(10,9,12,19)         179.9157         estimate D2E/DX2                !
 ! D57   D(7,10,11,16)        -179.8802         estimate D2E/DX2                !
 ! D58   D(7,10,11,20)           0.1025         estimate D2E/DX2                !
 ! D59   D(9,10,11,16)           0.1591         estimate D2E/DX2                !
 ! D60   D(9,10,11,20)        -179.8581         estimate D2E/DX2                !
 ! D61   D(10,11,16,15)         -0.1426         estimate D2E/DX2                !
 ! D62   D(10,11,16,17)        179.8635         estimate D2E/DX2                !
 ! D63   D(20,11,16,15)        179.8746         estimate D2E/DX2                !
 ! D64   D(20,11,16,17)         -0.1194         estimate D2E/DX2                !
 ! D65   D(10,11,20,29)       -179.9904         estimate D2E/DX2                !
 ! D66   D(10,11,20,32)         -0.0247         estimate D2E/DX2                !
 ! D67   D(16,11,20,29)         -0.0076         estimate D2E/DX2                !
 ! D68   D(16,11,20,32)        179.9582         estimate D2E/DX2                !
 ! D69   D(9,12,15,16)           0.1271         estimate D2E/DX2                !
 ! D70   D(9,12,15,18)        -179.8807         estimate D2E/DX2                !
 ! D71   D(19,12,15,16)       -179.8986         estimate D2E/DX2                !
 ! D72   D(19,12,15,18)          0.0936         estimate D2E/DX2                !
 ! D73   D(9,12,19,25)         179.9304         estimate D2E/DX2                !
 ! D74   D(9,12,19,26)          -0.0538         estimate D2E/DX2                !
 ! D75   D(15,12,19,25)         -0.044          estimate D2E/DX2                !
 ! D76   D(15,12,19,26)        179.9717         estimate D2E/DX2                !
 ! D77   D(8,13,26,19)           0.0001         estimate D2E/DX2                !
 ! D78   D(8,13,26,43)        -179.9732         estimate D2E/DX2                !
 ! D79   D(37,13,26,19)       -179.9964         estimate D2E/DX2                !
 ! D80   D(37,13,26,43)          0.0303         estimate D2E/DX2                !
 ! D81   D(7,14,32,20)           0.0333         estimate D2E/DX2                !
 ! D82   D(7,14,32,48)        -179.9924         estimate D2E/DX2                !
 ! D83   D(38,14,32,20)       -179.9612         estimate D2E/DX2                !
 ! D84   D(38,14,32,48)          0.0131         estimate D2E/DX2                !
 ! D85   D(12,15,16,11)          0.0001         estimate D2E/DX2                !
 ! D86   D(12,15,16,17)        179.9942         estimate D2E/DX2                !
 ! D87   D(18,15,16,11)       -179.9921         estimate D2E/DX2                !
 ! D88   D(18,15,16,17)          0.0019         estimate D2E/DX2                !
 ! D89   D(12,15,18,22)        179.9548         estimate D2E/DX2                !
 ! D90   D(12,15,18,23)         -0.075          estimate D2E/DX2                !
 ! D91   D(16,15,18,22)         -0.0529         estimate D2E/DX2                !
 ! D92   D(16,15,18,23)        179.9172         estimate D2E/DX2                !
 ! D93   D(11,16,17,21)       -179.9501         estimate D2E/DX2                !
 ! D94   D(11,16,17,24)          0.101          estimate D2E/DX2                !
 ! D95   D(15,16,17,21)          0.056          estimate D2E/DX2                !
 ! D96   D(15,16,17,24)       -179.893          estimate D2E/DX2                !
 ! D97   D(16,17,21,22)         -0.065          estimate D2E/DX2                !
 ! D98   D(16,17,21,39)        179.9967         estimate D2E/DX2                !
 ! D99   D(24,17,21,22)        179.883          estimate D2E/DX2                !
 ! D100  D(24,17,21,39)         -0.0553         estimate D2E/DX2                !
 ! D101  D(16,17,24,27)        179.9829         estimate D2E/DX2                !
 ! D102  D(16,17,24,29)          0.0453         estimate D2E/DX2                !
 ! D103  D(21,17,24,27)          0.0356         estimate D2E/DX2                !
 ! D104  D(21,17,24,29)       -179.9019         estimate D2E/DX2                !
 ! D105  D(15,18,22,21)          0.0457         estimate D2E/DX2                !
 ! D106  D(15,18,22,40)       -179.9962         estimate D2E/DX2                !
 ! D107  D(23,18,22,21)       -179.924          estimate D2E/DX2                !
 ! D108  D(23,18,22,40)          0.0341         estimate D2E/DX2                !
 ! D109  D(15,18,23,25)          0.0049         estimate D2E/DX2                !
 ! D110  D(15,18,23,41)       -179.9628         estimate D2E/DX2                !
 ! D111  D(22,18,23,25)        179.9743         estimate D2E/DX2                !
 ! D112  D(22,18,23,41)          0.0066         estimate D2E/DX2                !
 ! D113  D(12,19,25,23)         -0.0266         estimate D2E/DX2                !
 ! D114  D(12,19,25,42)       -179.9929         estimate D2E/DX2                !
 ! D115  D(26,19,25,23)        179.9573         estimate D2E/DX2                !
 ! D116  D(26,19,25,42)         -0.009          estimate D2E/DX2                !
 ! D117  D(12,19,26,13)          0.0892         estimate D2E/DX2                !
 ! D118  D(12,19,26,43)       -179.9372         estimate D2E/DX2                !
 ! D119  D(25,19,26,13)       -179.8948         estimate D2E/DX2                !
 ! D120  D(25,19,26,43)          0.0788         estimate D2E/DX2                !
 ! D121  D(11,20,29,24)          0.1526         estimate D2E/DX2                !
 ! D122  D(11,20,29,30)       -179.868          estimate D2E/DX2                !
 ! D123  D(32,20,29,24)       -179.8117         estimate D2E/DX2                !
 ! D124  D(32,20,29,30)          0.1676         estimate D2E/DX2                !
 ! D125  D(11,20,32,14)         -0.043          estimate D2E/DX2                !
 ! D126  D(11,20,32,48)        179.9833         estimate D2E/DX2                !
 ! D127  D(29,20,32,14)        179.9222         estimate D2E/DX2                !
 ! D128  D(29,20,32,48)         -0.0515         estimate D2E/DX2                !
 ! D129  D(17,21,22,18)          0.0138         estimate D2E/DX2                !
 ! D130  D(17,21,22,40)       -179.9438         estimate D2E/DX2                !
 ! D131  D(39,21,22,18)        179.9532         estimate D2E/DX2                !
 ! D132  D(39,21,22,40)         -0.0045         estimate D2E/DX2                !
 ! D133  D(18,23,25,19)          0.0463         estimate D2E/DX2                !
 ! D134  D(18,23,25,42)       -179.9881         estimate D2E/DX2                !
 ! D135  D(41,23,25,19)       -179.9867         estimate D2E/DX2                !
 ! D136  D(41,23,25,42)         -0.0211         estimate D2E/DX2                !
 ! D137  D(17,24,27,28)       -179.8755         estimate D2E/DX2                !
 ! D138  D(17,24,27,44)          0.1076         estimate D2E/DX2                !
 ! D139  D(29,24,27,28)          0.0628         estimate D2E/DX2                !
 ! D140  D(29,24,27,44)       -179.9541         estimate D2E/DX2                !
 ! D141  D(17,24,29,20)         -0.1703         estimate D2E/DX2                !
 ! D142  D(17,24,29,30)        179.8498         estimate D2E/DX2                !
 ! D143  D(27,24,29,20)        179.89           estimate D2E/DX2                !
 ! D144  D(27,24,29,30)         -0.09           estimate D2E/DX2                !
 ! D145  D(24,27,28,31)          0.0064         estimate D2E/DX2                !
 ! D146  D(24,27,28,45)        179.9826         estimate D2E/DX2                !
 ! D147  D(44,27,28,31)       -179.9769         estimate D2E/DX2                !
 ! D148  D(44,27,28,45)         -0.0007         estimate D2E/DX2                !
 ! D149  D(27,28,31,30)         -0.0473         estimate D2E/DX2                !
 ! D150  D(27,28,31,47)        179.9512         estimate D2E/DX2                !
 ! D151  D(45,28,31,30)        179.9767         estimate D2E/DX2                !
 ! D152  D(45,28,31,47)         -0.0249         estimate D2E/DX2                !
 ! D153  D(20,29,30,31)       -179.9278         estimate D2E/DX2                !
 ! D154  D(20,29,30,46)          0.074          estimate D2E/DX2                !
 ! D155  D(24,29,30,31)          0.0517         estimate D2E/DX2                !
 ! D156  D(24,29,30,46)       -179.9464         estimate D2E/DX2                !
 ! D157  D(29,30,31,28)          0.0177         estimate D2E/DX2                !
 ! D158  D(29,30,31,47)       -179.9808         estimate D2E/DX2                !
 ! D159  D(46,30,31,28)       -179.9841         estimate D2E/DX2                !
 ! D160  D(46,30,31,47)          0.0174         estimate D2E/DX2                !
 --------------------------------------------------------------------------------
 Trust Radius=3.00D-01 FncErr=1.00D-07 GrdErr=1.00D-06
 Number of steps in this run=    288 maximum allowed number of steps=    288.
 GradGradGradGradGradGradGradGradGradGradGradGradGradGradGradGradGradGrad

 Leave Link  103 at Wed Jul 31 17:00:28 2019, MaxMem=  4194304000 cpu:         0.3
 (Enter /home/minenky/programs//g09/l202.exe)
                          Input orientation:                          
 ---------------------------------------------------------------------
 Center     Atomic      Atomic             Coordinates (Angstroms)
 Number     Number       Type             X           Y           Z
 ---------------------------------------------------------------------
      1          6           0        0.995100    7.699300    0.260100
      2          6           0        1.756600    8.845400    0.535800
      3          6           0        1.566100    6.448800    0.397000
      4          6           0        3.070500    8.713000    0.941500
      5          6           0        3.681500    7.445100    1.090300
      6          6           0        2.909500    6.283100    0.811200
      7          6           0        5.069600    7.308100    1.517600
      8          6           0        3.513700    4.964400    0.955000
      9          6           0        4.865400    4.847800    1.367000
     10          6           0        5.653100    6.022400    1.651500
     11          6           0        7.019500    5.888600    2.068500
     12          6           0        5.458700    3.554700    1.503800
     13          6           0        2.783300    3.777600    0.691600
     14          6           0        5.872600    8.431300    1.808400
     15          6           0        6.822200    3.421400    1.916700
     16          6           0        7.610400    4.579200    2.201100
     17          6           0        8.960200    4.431500    2.609400
     18          6           0        7.389700    2.122600    2.042700
     19          6           0        4.695000    2.386000    1.228800
     20          6           0        7.796200    7.041000    2.352000
     21          6           0        9.491900    3.121700    2.722700
     22          6           0        8.737100    2.007100    2.450300
     23          6           0        6.595600    0.971200    1.758600
     24          6           0        9.763700    5.612000    2.901800
     25          6           0        5.295100    1.098300    1.366300
     26          6           0        3.350300    2.533600    0.822800
     27          6           0       11.114800    5.513800    3.312800
     28          6           0       11.874300    6.633300    3.592000
     29          6           0        9.185500    6.905800    2.775800
     30          6           0        9.987100    8.034700    3.069000
     31          6           0       11.303400    7.909500    3.469100
     32          6           0        7.181500    8.303000    2.209300
     33          1           0       -0.038900    7.790900   -0.060600
     34          1           0        1.318400    9.834100    0.431000
     35          1           0        0.956800    5.580500    0.176500
     36          1           0        3.636500    9.613600    1.147300
     37          1           0        1.748400    3.838000    0.377400
     38          1           0        5.465400    9.431000    1.719400
     39          1           0       10.520200    2.980400    3.032600
     40          1           0        9.174400    1.016500    2.547700
     41          1           0        7.050200   -0.010900    1.862300
     42          1           0        4.692400    0.219500    1.150700
     43          1           0        2.763000    1.643000    0.612700
     44          1           0       11.579400    4.540500    3.415900
     45          1           0       12.908700    6.522500    3.905500
     46          1           0        9.570700    9.031100    2.981800
     47          1           0       11.890900    8.797200    3.686800
     48          1           0        7.739300    9.208200    2.416100
 ---------------------------------------------------------------------
                    Distance matrix (angstroms):
                    1          2          3          4          5
     1  C    0.000000
     2  C    1.403367   0.000000
     3  C    1.381497   2.408163   0.000000
     4  C    2.408148   1.381469   2.772418   0.000000
     5  C    2.823224   2.444085   2.438892   1.415285   0.000000
     6  C    2.444230   2.823191   1.415536   2.438711   1.422717
     7  C    4.282043   3.781956   3.777387   2.510386   1.458827
     8  C    3.782315   4.280805   2.511564   3.774733   2.490047
     9  C    4.933103   5.131894   3.793347   4.282813   2.867778
    10  C    5.142466   4.939315   4.296412   3.796479   2.495241
    11  C    6.545406   6.228158   5.731257   4.984171   3.810749
    12  C    6.216770   6.529477   4.975254   5.712070   4.297049
    13  C    4.331695   5.173102   2.950199   4.950061   3.796878
    14  C    5.169435   4.328100   4.946544   2.946631   2.507823
    15  C    7.416188   7.548971   6.253097   6.559520   5.170793
    16  C    7.567344   7.432406   6.579038   6.267822   4.988338
    17  C    8.924155   8.699091   7.977276   7.470053   6.265311
    18  C    8.669957   8.899360   7.438995   7.956224   6.556433
    19  C    6.546663   7.130098   5.195022   6.538537   5.161478
    20  C    7.145934   6.559818   6.556437   5.207431   4.322724
    21  C    9.960644   9.868036   8.904874   8.698833   7.424100
    22  C    9.855794   9.957662   8.681473   8.908194   7.548545
    23  C    8.881353   9.322778   7.560022   8.545727   7.130918
    24  C    9.392750   8.953574   8.612485   7.632687   6.605675
    25  C    7.955305   8.557352   6.593393   7.944366   6.554521
    26  C    5.705090   6.516216   4.323594   6.186870   4.929917
    27  C   10.793689  10.314417  10.027651   8.976007   7.995209
    28  C   11.427813  10.798222  10.793565   9.426410   8.604621
    29  C    8.604710   7.998012   7.995173   6.635047   5.781502
    30  C    9.426477   8.649593   8.975963   7.268129   6.635019
    31  C   10.798283  10.031029  10.314381   8.649567   7.997982
    32  C    6.514244   5.703011   6.185079   4.321543   3.773348
    33  H    1.086460   2.165983   2.141648   3.394531   3.909671
    34  H    2.165895   1.086522   3.394520   2.141805   3.424360
    35  H    2.120794   3.380584   1.083426   3.855582   3.425749
    36  H    3.380630   2.120870   3.855576   1.083416   2.169716
    37  H    3.935843   5.009911   2.617230   5.082498   4.154067
    38  H    5.011180   3.936881   5.083975   2.618434   2.742602
    39  H   10.985550  10.836647   9.957514   9.629820   8.394873
    40  H   10.807122  10.971015   9.592790   9.953572   8.580377
    41  H    9.933703  10.402685   8.599429   9.632877   8.218033
    42  H    8.391103   9.132534   7.010420   8.649501   7.296222
    43  H    6.318906   7.272779   4.957299   7.084318   5.893735
    44  H   11.487580  11.104708  10.631159   9.794580   8.730518
    45  H   12.514298  11.879397  11.873061  10.505892   9.691118
    46  H    9.095178   8.190089   8.799039   6.820309   6.385597
    47  H   11.474586  10.612971  11.087798   9.238139   8.715746
    48  H    7.239430   6.281708   7.056873   4.921114   4.618659
                    6          7          8          9         10
     6  C    0.000000
     7  C    2.493122   0.000000
     8  C    1.457637   2.868845   0.000000
     9  C    2.488884   2.473349   1.417897   0.000000
    10  C    2.881217   1.418247   2.486264   1.442601   0.000000
    11  C    4.316078   2.473981   3.792712   2.493093   1.434866
    12  C    3.797668   3.773540   2.464033   1.429275   2.479748
    13  C    2.511526   4.286476   1.418224   2.436521   3.767796
    14  C    3.793301   1.411011   4.279264   3.748434   2.423963
    15  C    4.971989   4.282210   3.775167   2.483114   2.863970
    16  C    5.189755   3.790743   4.299313   2.881474   2.493173
    17  C    6.578215   4.960204   5.717113   4.299331   3.792815
    18  C    6.236870   5.705086   4.927707   3.775629   4.286870
    19  C    4.306947   4.944775   2.849313   2.471557   3.784182
    20  C    5.179606   2.863898   4.960210   3.790770   2.474091
    21  C    7.548263   6.207652   6.500706   5.120727   4.929292
    22  C    7.411595   6.513147   6.185908   4.922720   5.125600
    23  C    6.534614   6.522504   5.107791   4.263211   5.139494
    24  C    7.197294   5.179512   6.578139   5.189697   4.316099
    25  C    5.734228   6.215735   4.276597   3.774042   4.945327
    26  C    3.775340   5.121971   2.439870   2.819078   4.261614
    27  C    8.612594   6.556424   7.977329   6.579110   5.731384
    28  C    9.392717   7.145798   8.924048   7.567253   6.545385
    29  C    6.605724   4.322678   6.265274   4.988321   3.810813
    30  C    7.632705   5.207360   7.469983   6.267770   4.984196
    31  C    8.953612   6.559748   8.699065   7.432407   6.228219
    32  C    4.927947   2.434830   5.115885   4.244078   2.801479
    33  H    3.424406   5.368481   4.652044   5.895086   6.201431
    34  H    3.909700   4.651116   5.367299   6.190355   5.899856
    35  H    2.170145   4.658141   2.742878   4.151059   4.942280
    36  H    3.425452   2.739750   4.654795   4.926592   4.149411
    37  H    2.741323   4.936803   2.172253   3.422673   4.652055
    38  H    4.155325   2.168890   4.933959   4.635721   3.414439
    39  H    8.588667   7.122728   7.572564   6.183702   5.903377
    40  H    8.366689   7.582527   7.082805   5.885609   6.185609
    41  H    7.606881   7.590083   6.171194   5.350293   6.196534
    42  H    6.329395   7.108104   4.893026   4.636580   5.903168
    43  H    4.646654   6.183252   3.422341   3.906379   5.348918
    44  H    9.218909   7.323978   8.443414   7.026395   6.358472
    45  H   10.469766   8.232298   9.969912   8.599028   7.614089
    46  H    7.525596   5.037113   7.571870   6.499802   5.115620
    47  H    9.759883   7.311155   9.608880   8.386709   7.124052
    48  H    5.870169   3.397791   6.164442   5.326631   3.884091
                   11         12         13         14         15
    11  C    0.000000
    12  C    2.863926   0.000000
    13  C    4.929256   2.804838   0.000000
    14  C    2.801492   4.903603   5.696309   0.000000
    15  C    2.479727   1.430870   4.235618   5.100252   0.000000
    16  C    1.442662   2.483071   5.120747   4.244153   1.429211
    17  C    2.486369   3.775133   6.500741   5.115982   2.463976
    18  C    3.784240   2.463754   5.077737   6.492779   1.422959
    19  C    4.286794   1.422927   2.424816   6.186140   2.463786
    20  C    1.418330   4.282247   6.207727   2.434886   3.773548
    21  C    3.767821   4.235553   7.039949   6.490542   2.804773
    22  C    4.261685   3.746843   6.455651   7.063125   2.439634
    23  C    4.945357   2.834067   4.852628   7.495219   2.465730
    24  C    2.881238   4.971912   7.548244   4.927944   3.797575
    25  C    5.139418   2.465679   3.734034   7.368979   2.834037
    26  C    5.125507   2.439622   1.373404   6.489705   3.746851
    27  C    4.296538   6.253161   8.904997   6.185118   4.975304
    28  C    5.142442   7.416083   9.960604   6.514172   6.216643
    29  C    2.495301   5.170773   7.424129   3.773370   4.297009
    30  C    3.796498   6.559471   8.698831   4.321518   5.711998
    31  C    4.939384   7.548987   9.868090   5.702963   6.529482
    32  C    2.423922   5.100208   6.490518   1.374919   4.903543
    33  H    7.613989   7.114516   4.963587   6.232905   8.371197
    34  H    7.123968   7.597621   6.236589   4.960425   8.580317
    35  H    6.358531   5.112015   2.617609   5.912296   6.487906
    36  H    5.115557   6.337016   5.915616   2.614389   7.005998
    37  H    5.903327   3.887848   1.083230   6.336812   5.318500
    38  H    3.884031   5.880258   6.341212   1.083113   6.164019
    39  H    4.652098   5.318443   8.122526   7.267129   3.887791
    40  H    5.348886   4.619374   7.205202   8.150319   3.422652
    41  H    5.903182   3.921084   5.824921   8.524106   3.440295
    42  H    6.196487   3.440270   4.063928   8.322205   3.921093
    43  H    6.185650   3.422785   2.136154   7.561767   4.619548
    44  H    4.942221   6.487750   9.239870   7.091541   5.111843
    45  H    6.201538   8.371290  10.972117   7.586043   7.114607
    46  H    4.149463   7.005996   8.883303   3.925885   6.336989
    47  H    5.899948   8.580355  10.822014   6.315236   7.597644
    48  H    3.414481   6.164048   7.551639   2.111265   5.880266
                   16         17         18         19         20
    16  C    0.000000
    17  C    1.417915   0.000000
    18  C    2.471575   2.849322   0.000000
    19  C    3.775586   4.927683   2.827228   0.000000
    20  C    2.473409   2.868909   4.944853   5.705089   0.000000
    21  C    2.436476   1.418139   2.424839   5.077720   4.286459
    22  C    2.819087   2.439836   1.412432   4.239599   5.122022
    23  C    3.774028   4.276549   1.427245   2.427885   6.215789
    24  C    2.488847   1.457632   4.306953   6.236804   2.493066
    25  C    4.263117   5.107688   2.427768   1.427304   6.522483
    26  C    4.922666   6.185866   4.239555   1.412388   6.513151
    27  C    3.793438   2.511662   5.195167   7.439087   3.777378
    28  C    4.933029   3.782249   6.546631   8.669869   4.281906
    29  C    2.867802   2.490102   5.161525   6.556401   1.458780
    30  C    4.282807   3.774759   6.538555   7.956159   2.510293
    31  C    5.131956   4.280906   7.130209   8.899379   3.781885
    32  C    3.748428   4.279295   6.186150   6.492684   1.410980
    33  H    8.598959   9.969868   9.577974   7.299678   8.232362
    34  H    8.386685   9.608882   9.946130   8.216575   7.311193
    35  H    7.026521   8.443555   7.538035   5.028549   7.324155
    36  H    6.499812   7.571901   8.426348   7.305153   5.037130
    37  H    6.183713   7.572590   6.126997   3.393470   7.122790
    38  H    5.326633   6.164473   7.564401   7.103959   3.397780
    39  H    3.422644   2.172185   3.393487   6.126986   4.936787
    40  H    3.906285   3.422267   2.159545   4.866215   6.183230
    41  H    4.636553   4.892972   2.167862   3.419564   7.108137
    42  H    5.350238   6.171132   3.419485   2.167909   7.590096
    43  H    5.885709   7.082925   4.866340   2.159688   7.582656
    44  H    4.150927   2.742723   5.028469   7.537920   4.658002
    45  H    5.895199   4.652183   7.299898   9.578112   5.368413
    46  H    4.926630   4.654859   7.305207   8.426317   2.739707
    47  H    6.190437   5.367414   8.216700   9.946166   4.651075
    48  H    4.635783   4.934047   7.104039   7.564381   2.168894
                   21         22         23         24         25
    21  C    0.000000
    22  C    1.373411   0.000000
    23  C    3.733992   2.477410   0.000000
    24  C    2.511483   3.775323   5.734177   0.000000
    25  C    4.852535   3.721335   1.364314   6.534496   0.000000
    26  C    6.455597   5.651865   3.721396   7.411510   2.477443
    27  C    2.950282   4.323692   6.593476   1.415640   7.560054
    28  C    4.331610   5.705018   7.955212   2.444189   8.881207
    29  C    3.796856   4.929937   6.554522   1.422712   7.130846
    30  C    4.950022   6.186861   7.944335   2.438717   8.545624
    31  C    5.173169   6.516301   8.557406   2.823298   9.322762
    32  C    5.696262   6.489709   7.368969   3.793256   7.495122
    33  H   10.971980  10.806255   9.686815  10.469689   8.676318
    34  H   10.821936  10.971628  10.400113   9.759819   9.643813
    35  H    9.239955   8.858466   7.452835   9.218988   6.350322
    36  H    8.883263   9.250555   9.155383   7.525533   8.678090
    37  H    8.122519   7.516052   5.798414   8.588638   4.589440
    38  H    7.551595   8.145706   8.535052   5.870112   8.341917
    39  H    1.083238   2.113251   4.589384   2.741299   5.798321
    40  H    2.136188   1.087201   2.697210   4.646642   4.056028
    41  H    4.063911   2.695125   1.087168   6.329348   2.134647
    42  H    5.824873   4.609129   2.134658   7.606806   1.087207
    43  H    7.205328   6.260928   4.056257   8.366764   2.697432
    44  H    2.617475   3.927998   6.350182   2.170064   7.452652
    45  H    4.963767   6.317333   8.676482   3.424536   9.686918
    46  H    5.915602   7.093233   8.678100   3.425477   9.155321
    47  H    6.236665   7.588204   9.643881   3.909821  10.400113
    48  H    6.341222   7.269980   8.341974   4.155328   8.535026
                   26         27         28         29         30
    26  C    0.000000
    27  C    8.681541   0.000000
    28  C    9.855688   1.381330   0.000000
    29  C    7.548503   2.438900   2.823134   0.000000
    30  C    8.908122   2.772378   2.408106   1.415254   0.000000
    31  C    9.957661   2.408190   1.403466   2.444091   1.381449
    32  C    7.063034   4.946534   5.169345   2.507809   2.946601
    33  H    6.317141  11.873080  12.514226   9.691136  10.505927
    34  H    7.588111  11.087796  11.474496   8.715750   9.238141
    35  H    3.928122  10.631359  11.487638   8.730652   9.794691
    36  H    7.093209   8.799018   9.095059   6.385577   6.820262
    37  H    2.113273   9.957627  10.985500   8.394890   9.629807
    38  H    7.269915   7.056848   7.239320   4.618632   4.921061
    39  H    7.516004   2.617284   3.935758   4.154050   5.082467
    40  H    6.260752   4.957443   6.318897   5.893726   7.084304
    41  H    4.609154   7.010509   8.391019   7.296213   8.649462
    42  H    2.695146   8.599506   9.933603   8.217999   9.632812
    43  H    1.087305   9.593029  10.807179   8.580476   9.953635
    44  H    8.858324   1.083419   2.120799   3.425658   3.855540
    45  H   10.806358   2.141692   1.086528   3.909650   3.394441
    46  H    9.250522   3.855542   3.380586   2.169727   1.083423
    47  H   10.971647   3.394543   2.166039   3.424398   2.141854
    48  H    8.145687   5.083961   5.011095   2.742613   2.618394
                   31         32         33         34         35
    31  C    0.000000
    32  C    4.328048   0.000000
    33  H   11.879420   7.586097   0.000000
    34  H   10.612934   6.315264   2.501719   0.000000
    35  H   11.104845   7.091627   2.435878   4.276522   0.000000
    36  H    8.189998   3.925881   4.276660   2.436246   4.938536
    37  H   10.836685   7.267094   4.360241   6.011738   1.924395
    38  H    6.281613   2.111252   6.012957   4.361201   6.126530
    39  H    5.009986   6.336782  12.008472  11.764976  10.313896
    40  H    7.272900   7.561696  11.729477  11.997801   9.694413
    41  H    9.132593   8.322174  10.715455  11.481558   8.440095
    42  H   10.402711   8.524038   9.009914  10.214812   6.606368
    43  H   10.971166   8.150330   6.789746   8.319495   4.353910
    44  H    3.380705   5.912175  12.555319  11.925601  11.154145
    45  H    2.165918   6.232824  13.600703  12.544875  12.555506
    46  H    2.120777   2.614414  10.155723   8.674782   9.694102
    47  H    1.086536   4.960412  12.544950  11.110947  11.925767
    48  H    3.936780   1.083187   8.285118   6.749839   8.011137
                   36         37         38         39         40
    36  H    0.000000
    37  H    6.124967   0.000000
    38  H    1.924972   6.848263   0.000000
    39  H    9.743666   9.204892   8.299743   0.000000
    40  H   10.321801   8.235080   9.232907   2.429652   0.000000
    41  H   10.236971   6.717741   9.575045   4.728465   2.457143
    42  H    9.453256   4.728496   9.261354   6.717691   4.761842
    43  H    8.036122   2.429569   8.317493   8.235211   6.726275
    44  H    9.693944  10.313804   8.010999   1.924249   4.353892
    45  H   10.155602  12.008594   8.284994   4.360431   6.790041
    46  H    6.238544   9.743694   4.313590   6.124957   8.036125
    47  H    8.674715  11.765037   6.749772   6.011818   8.319628
    48  H    4.313603   8.299773   2.388651   6.848282   8.317498
                   41         42         43         44         45
    41  H    0.000000
    42  H    2.473596   0.000000
    43  H    4.762034   2.457312   0.000000
    44  H    6.606252   8.439961   9.694449   0.000000
    45  H    9.010106  10.715611  11.729760   2.436200   0.000000
    46  H    9.453252  10.236944  10.321891   4.938502   4.276510
    47  H   10.214881  11.481600  11.997968   4.276671   2.501601
    48  H    9.261391   9.575049   9.232988   6.126450   6.012819
                   46         47         48
    46  H    0.000000
    47  H    2.436198   0.000000
    48  H    1.924943   4.361122   0.000000
 Stoichiometry    C32H16
 Framework group  C1[X(C32H16)]
 Deg. of freedom   138
 Full point group                 C1      NOp   1
 Largest Abelian subgroup         C1      NOp   1
 Largest concise Abelian subgroup C1      NOp   1
                         Standard orientation:                         
 ---------------------------------------------------------------------
 Center     Atomic      Atomic             Coordinates (Angstroms)
 Number     Number       Type             X           Y           Z
 ---------------------------------------------------------------------
      1          6           0       -5.713939   -1.755727    0.009235
      2          6           0       -5.015518   -2.972956    0.009813
      3          6           0       -5.013795   -0.564800    0.004346
      4          6           0       -3.634060   -2.969510    0.005646
      5          6           0       -2.890744   -1.765148    0.000605
      6          6           0       -3.598669   -0.531063   -0.000368
      7          6           0       -1.431920   -1.764292   -0.002448
      8          6           0       -2.858545    0.724686   -0.004376
      9          6           0       -1.440735    0.709041   -0.002865
     10          6           0       -0.717464   -0.539148   -0.001985
     11          6           0        0.717402   -0.539142   -0.001497
     12          6           0       -0.715413    1.940599   -0.002531
     13          6           0       -3.519978    1.979215   -0.008910
     14          6           0       -0.687455   -2.962924   -0.004822
     15          6           0        0.715452    1.940583    0.001033
     16          6           0        1.440736    0.709078    0.001583
     17          6           0        2.858561    0.724751    0.005005
     18          6           0        1.413597    3.180503    0.003871
     19          6           0       -1.413617    3.180448   -0.005198
     20          6           0        1.431978   -1.764310   -0.003666
     21          6           0        3.519948    1.979211    0.009029
     22          6           0        2.825930    3.164367    0.008352
     23          6           0        0.682185    4.406089    0.001512
     24          6           0        3.598624   -0.531033    0.003205
     25          6           0       -0.682121    4.406053   -0.003343
     26          6           0       -2.825907    3.164333   -0.009315
     27          6           0        5.013856   -0.564880    0.006122
     28          6           0        5.713871   -1.755692    0.001861
     29          6           0        2.890757   -1.765130   -0.002960
     30          6           0        3.634056   -2.969467   -0.007846
     31          6           0        5.015499   -2.973040   -0.005711
     32          6           0        0.687463   -2.962875   -0.005742
     33          1           0       -6.800346   -1.745820    0.013447
     34          1           0       -5.555459   -3.915810    0.014308
     35          1           0       -5.577140    0.360648    0.005454
     36          1           0       -3.119234   -3.922790    0.006899
     37          1           0       -4.602441    2.019849   -0.012236
     38          1           0       -1.194307   -3.920125   -0.005891
     39          1           0        4.602420    2.019857    0.011752
     40          1           0        3.363037    4.109627    0.010593
     41          1           0        1.236806    5.341144    0.003133
     42          1           0       -1.236776    5.341132   -0.005324
     43          1           0       -3.363199    4.109605   -0.012406
     44          1           0        5.577003    0.360664    0.011568
     45          1           0        6.800354   -1.746093    0.003987
     46          1           0        3.119276   -3.922764   -0.013461
     47          1           0        5.555462   -3.915899   -0.009917
     48          1           0        1.194343   -3.920143   -0.007707
 ---------------------------------------------------------------------
 Rotational constants (GHZ):      0.2259739      0.1261115      0.0809407
 Leave Link  202 at Wed Jul 31 17:00:28 2019, MaxMem=  4194304000 cpu:         0.2
 (Enter /home/minenky/programs//g09/l301.exe)
 Standard basis: def2TZVP (5D, 7F)
 ======================================================================================================
                                       Pseudopotential Parameters
 ======================================================================================================
  Center     Atomic      Valence      Angular      Power
  Number     Number     Electrons     Momentum     of R      Exponent        Coefficient   SO-Coeffient
 ======================================================================================================
    1          6
                                   No pseudopotential on this center.
    2          6
                                   No pseudopotential on this center.
    3          6
                                   No pseudopotential on this center.
    4          6
                                   No pseudopotential on this center.
    5          6
                                   No pseudopotential on this center.
    6          6
                                   No pseudopotential on this center.
    7          6
                                   No pseudopotential on this center.
    8          6
                                   No pseudopotential on this center.
    9          6
                                   No pseudopotential on this center.
   10          6
                                   No pseudopotential on this center.
   11          6
                                   No pseudopotential on this center.
   12          6
                                   No pseudopotential on this center.
   13          6
                                   No pseudopotential on this center.
   14          6
                                   No pseudopotential on this center.
   15          6
                                   No pseudopotential on this center.
   16          6
                                   No pseudopotential on this center.
   17          6
                                   No pseudopotential on this center.
   18          6
                                   No pseudopotential on this center.
   19          6
                                   No pseudopotential on this center.
   20          6
                                   No pseudopotential on this center.
   21          6
                                   No pseudopotential on this center.
   22          6
                                   No pseudopotential on this center.
   23          6
                                   No pseudopotential on this center.
   24          6
                                   No pseudopotential on this center.
   25          6
                                   No pseudopotential on this center.
   26          6
                                   No pseudopotential on this center.
   27          6
                                   No pseudopotential on this center.
   28          6
                                   No pseudopotential on this center.
   29          6
                                   No pseudopotential on this center.
   30          6
                                   No pseudopotential on this center.
   31          6
                                   No pseudopotential on this center.
   32          6
                                   No pseudopotential on this center.
   33          1
                                   No pseudopotential on this center.
   34          1
                                   No pseudopotential on this center.
   35          1
                                   No pseudopotential on this center.
   36          1
                                   No pseudopotential on this center.
   37          1
                                   No pseudopotential on this center.
   38          1
                                   No pseudopotential on this center.
   39          1
                                   No pseudopotential on this center.
   40          1
                                   No pseudopotential on this center.
   41          1
                                   No pseudopotential on this center.
   42          1
                                   No pseudopotential on this center.
   43          1
                                   No pseudopotential on this center.
   44          1
                                   No pseudopotential on this center.
   45          1
                                   No pseudopotential on this center.
   46          1
                                   No pseudopotential on this center.
   47          1
                                   No pseudopotential on this center.
   48          1
                                   No pseudopotential on this center.
 ======================================================================================================
 Ernie: Thresh=  0.10000D-02 Tol=  0.10000D-05 Strict=F.
 AO basis set (Overlap normalization):
 Atom C1       Shell     1 S   6     bf    1 -     1        -10.797780103187         -3.317842652992          0.017451927930
      0.1357534968D+05  0.6064550360D-03
      0.2035233368D+04  0.4697908888D-02
      0.4632256236D+03  0.2433247765D-01
      0.1312001960D+03  0.9739996831D-01
      0.4285301589D+02  0.3019558425D+00
      0.1558418577D+02  0.6623360914D+00
 Atom C1       Shell     2 S   2     bf    2 -     2        -10.797780103187         -3.317842652992          0.017451927930
      0.6206713851D+01  0.6559530854D+00
      0.2576489653D+01  0.3758563329D+00
 Atom C1       Shell     3 S   1     bf    3 -     3        -10.797780103187         -3.317842652992          0.017451927930
      0.5769633942D+00  0.1000000000D+01
 Atom C1       Shell     4 S   1     bf    4 -     4        -10.797780103187         -3.317842652992          0.017451927930
      0.2297283136D+00  0.1000000000D+01
 Atom C1       Shell     5 S   1     bf    5 -     5        -10.797780103187         -3.317842652992          0.017451927930
      0.9516444003D-01  0.1000000000D+01
 Atom C1       Shell     6 P   4     bf    6 -     8        -10.797780103187         -3.317842652992          0.017451927930
      0.3469723224D+02  0.1132722000D-01
      0.7958262283D+01  0.7616965920D-01
      0.2378082688D+01  0.3019225220D+00
      0.8143320818D+00  0.7278502735D+00
 Atom C1       Shell     7 P   1     bf    9 -    11        -10.797780103187         -3.317842652992          0.017451927930
      0.2888754725D+00  0.1000000000D+01
 Atom C1       Shell     8 P   1     bf   12 -    14        -10.797780103187         -3.317842652992          0.017451927930
      0.1005682367D+00  0.1000000000D+01
 Atom C1       Shell     9 D   1     bf   15 -    19        -10.797780103187         -3.317842652992          0.017451927930
      0.1097000000D+01  0.1000000000D+01
 Atom C1       Shell    10 D   1     bf   20 -    24        -10.797780103187         -3.317842652992          0.017451927930
      0.3180000000D+00  0.1000000000D+01
 Atom C1       Shell    11 F   1     bf   25 -    31        -10.797780103187         -3.317842652992          0.017451927930
      0.7610000000D+00  0.1000000000D+01
 Atom C2       Shell    12 S   6     bf   32 -    32         -9.477956184015         -5.618071832966          0.018544573466
      0.1357534968D+05  0.6064550360D-03
      0.2035233368D+04  0.4697908888D-02
      0.4632256236D+03  0.2433247765D-01
      0.1312001960D+03  0.9739996831D-01
      0.4285301589D+02  0.3019558425D+00
      0.1558418577D+02  0.6623360914D+00
 Atom C2       Shell    13 S   2     bf   33 -    33         -9.477956184015         -5.618071832966          0.018544573466
      0.6206713851D+01  0.6559530854D+00
      0.2576489653D+01  0.3758563329D+00
 Atom C2       Shell    14 S   1     bf   34 -    34         -9.477956184015         -5.618071832966          0.018544573466
      0.5769633942D+00  0.1000000000D+01
 Atom C2       Shell    15 S   1     bf   35 -    35         -9.477956184015         -5.618071832966          0.018544573466
      0.2297283136D+00  0.1000000000D+01
 Atom C2       Shell    16 S   1     bf   36 -    36         -9.477956184015         -5.618071832966          0.018544573466
      0.9516444003D-01  0.1000000000D+01
 Atom C2       Shell    17 P   4     bf   37 -    39         -9.477956184015         -5.618071832966          0.018544573466
      0.3469723224D+02  0.1132722000D-01
      0.7958262283D+01  0.7616965920D-01
      0.2378082688D+01  0.3019225220D+00
      0.8143320818D+00  0.7278502735D+00
 Atom C2       Shell    18 P   1     bf   40 -    42         -9.477956184015         -5.618071832966          0.018544573466
      0.2888754725D+00  0.1000000000D+01
 Atom C2       Shell    19 P   1     bf   43 -    45         -9.477956184015         -5.618071832966          0.018544573466
      0.1005682367D+00  0.1000000000D+01
 Atom C2       Shell    20 D   1     bf   46 -    50         -9.477956184015         -5.618071832966          0.018544573466
      0.1097000000D+01  0.1000000000D+01
 Atom C2       Shell    21 D   1     bf   51 -    55         -9.477956184015         -5.618071832966          0.018544573466
      0.3180000000D+00  0.1000000000D+01
 Atom C2       Shell    22 F   1     bf   56 -    62         -9.477956184015         -5.618071832966          0.018544573466
      0.7610000000D+00  0.1000000000D+01
 Atom C3       Shell    23 S   6     bf   63 -    63         -9.474699237468         -1.067316874436          0.008212437175
      0.1357534968D+05  0.6064550360D-03
      0.2035233368D+04  0.4697908888D-02
      0.4632256236D+03  0.2433247765D-01
      0.1312001960D+03  0.9739996831D-01
      0.4285301589D+02  0.3019558425D+00
      0.1558418577D+02  0.6623360914D+00
 Atom C3       Shell    24 S   2     bf   64 -    64         -9.474699237468         -1.067316874436          0.008212437175
      0.6206713851D+01  0.6559530854D+00
      0.2576489653D+01  0.3758563329D+00
 Atom C3       Shell    25 S   1     bf   65 -    65         -9.474699237468         -1.067316874436          0.008212437175
      0.5769633942D+00  0.1000000000D+01
 Atom C3       Shell    26 S   1     bf   66 -    66         -9.474699237468         -1.067316874436          0.008212437175
      0.2297283136D+00  0.1000000000D+01
 Atom C3       Shell    27 S   1     bf   67 -    67         -9.474699237468         -1.067316874436          0.008212437175
      0.9516444003D-01  0.1000000000D+01
 Atom C3       Shell    28 P   4     bf   68 -    70         -9.474699237468         -1.067316874436          0.008212437175
      0.3469723224D+02  0.1132722000D-01
      0.7958262283D+01  0.7616965920D-01
      0.2378082688D+01  0.3019225220D+00
      0.8143320818D+00  0.7278502735D+00
 Atom C3       Shell    29 P   1     bf   71 -    73         -9.474699237468         -1.067316874436          0.008212437175
      0.2888754725D+00  0.1000000000D+01
 Atom C3       Shell    30 P   1     bf   74 -    76         -9.474699237468         -1.067316874436          0.008212437175
      0.1005682367D+00  0.1000000000D+01
 Atom C3       Shell    31 D   1     bf   77 -    81         -9.474699237468         -1.067316874436          0.008212437175
      0.1097000000D+01  0.1000000000D+01
 Atom C3       Shell    32 D   1     bf   82 -    86         -9.474699237468         -1.067316874436          0.008212437175
      0.3180000000D+00  0.1000000000D+01
 Atom C3       Shell    33 F   1     bf   87 -    93         -9.474699237468         -1.067316874436          0.008212437175
      0.7610000000D+00  0.1000000000D+01
 Atom C4       Shell    34 S   6     bf   94 -    94         -6.867378886685         -5.611561016794          0.010670001241
      0.1357534968D+05  0.6064550360D-03
      0.2035233368D+04  0.4697908888D-02
      0.4632256236D+03  0.2433247765D-01
      0.1312001960D+03  0.9739996831D-01
      0.4285301589D+02  0.3019558425D+00
      0.1558418577D+02  0.6623360914D+00
 Atom C4       Shell    35 S   2     bf   95 -    95         -6.867378886685         -5.611561016794          0.010670001241
      0.6206713851D+01  0.6559530854D+00
      0.2576489653D+01  0.3758563329D+00
 Atom C4       Shell    36 S   1     bf   96 -    96         -6.867378886685         -5.611561016794          0.010670001241
      0.5769633942D+00  0.1000000000D+01
 Atom C4       Shell    37 S   1     bf   97 -    97         -6.867378886685         -5.611561016794          0.010670001241
      0.2297283136D+00  0.1000000000D+01
 Atom C4       Shell    38 S   1     bf   98 -    98         -6.867378886685         -5.611561016794          0.010670001241
      0.9516444003D-01  0.1000000000D+01
 Atom C4       Shell    39 P   4     bf   99 -   101         -6.867378886685         -5.611561016794          0.010670001241
      0.3469723224D+02  0.1132722000D-01
      0.7958262283D+01  0.7616965920D-01
      0.2378082688D+01  0.3019225220D+00
      0.8143320818D+00  0.7278502735D+00
 Atom C4       Shell    40 P   1     bf  102 -   104         -6.867378886685         -5.611561016794          0.010670001241
      0.2888754725D+00  0.1000000000D+01
 Atom C4       Shell    41 P   1     bf  105 -   107         -6.867378886685         -5.611561016794          0.010670001241
      0.1005682367D+00  0.1000000000D+01
 Atom C4       Shell    42 D   1     bf  108 -   112         -6.867378886685         -5.611561016794          0.010670001241
      0.1097000000D+01  0.1000000000D+01
 Atom C4       Shell    43 D   1     bf  113 -   117         -6.867378886685         -5.611561016794          0.010670001241
      0.3180000000D+00  0.1000000000D+01
 Atom C4       Shell    44 F   1     bf  118 -   124         -6.867378886685         -5.611561016794          0.010670001241
      0.7610000000D+00  0.1000000000D+01
 Atom C5       Shell    45 S   6     bf  125 -   125         -5.462714270989         -3.335646527641          0.001142454170
      0.1357534968D+05  0.6064550360D-03
      0.2035233368D+04  0.4697908888D-02
      0.4632256236D+03  0.2433247765D-01
      0.1312001960D+03  0.9739996831D-01
      0.4285301589D+02  0.3019558425D+00
      0.1558418577D+02  0.6623360914D+00
 Atom C5       Shell    46 S   2     bf  126 -   126         -5.462714270989         -3.335646527641          0.001142454170
      0.6206713851D+01  0.6559530854D+00
      0.2576489653D+01  0.3758563329D+00
 Atom C5       Shell    47 S   1     bf  127 -   127         -5.462714270989         -3.335646527641          0.001142454170
      0.5769633942D+00  0.1000000000D+01
 Atom C5       Shell    48 S   1     bf  128 -   128         -5.462714270989         -3.335646527641          0.001142454170
      0.2297283136D+00  0.1000000000D+01
 Atom C5       Shell    49 S   1     bf  129 -   129         -5.462714270989         -3.335646527641          0.001142454170
      0.9516444003D-01  0.1000000000D+01
 Atom C5       Shell    50 P   4     bf  130 -   132         -5.462714270989         -3.335646527641          0.001142454170
      0.3469723224D+02  0.1132722000D-01
      0.7958262283D+01  0.7616965920D-01
      0.2378082688D+01  0.3019225220D+00
      0.8143320818D+00  0.7278502735D+00
 Atom C5       Shell    51 P   1     bf  133 -   135         -5.462714270989         -3.335646527641          0.001142454170
      0.2888754725D+00  0.1000000000D+01
 Atom C5       Shell    52 P   1     bf  136 -   138         -5.462714270989         -3.335646527641          0.001142454170
      0.1005682367D+00  0.1000000000D+01
 Atom C5       Shell    53 D   1     bf  139 -   143         -5.462714270989         -3.335646527641          0.001142454170
      0.1097000000D+01  0.1000000000D+01
 Atom C5       Shell    54 D   1     bf  144 -   148         -5.462714270989         -3.335646527641          0.001142454170
      0.3180000000D+00  0.1000000000D+01
 Atom C5       Shell    55 F   1     bf  149 -   155         -5.462714270989         -3.335646527641          0.001142454170
      0.7610000000D+00  0.1000000000D+01
 Atom C6       Shell    56 S   6     bf  156 -   156         -6.800498849880         -1.003563764021         -0.000695998460
      0.1357534968D+05  0.6064550360D-03
      0.2035233368D+04  0.4697908888D-02
      0.4632256236D+03  0.2433247765D-01
      0.1312001960D+03  0.9739996831D-01
[...]
 ,-0.00000024,0.00001000,0.00000737,0.00000357,-0.00001083,0.00000802,-
 0.00000281,-0.00000846,0.00000590,-0.00000246,0.00002246,0.00000896,0.
 00000680,0.00001459,-0.00002573,0.00000336,-0.00002012,-0.00005270,-0.
 00000783,-0.00000571,0.00002697,-0.00000060,0.00001006,-0.00000216,0.0
 0000325,-0.00003359,0.00003977,-0.00001188,0.00010207,-0.00021772,0.00
 002051,0.00001216,-0.00003791,0.00000271,-0.00000588,-0.00001707,-0.00
 000248,0.00005898,0.00010022,0.00002419,-0.00012658,0.00002829,-0.0000
 3721,-0.00022452,-0.00025326,-0.00006181,-0.00091241,0.00086527,-0.000
 25602,-0.00005722,0.00000703,-0.00001917,0.00000406,-0.00002228,0.0000
 0038,0.00025241,0.00012178,0.00011525,0.00000120,-0.00002361,-0.000010
 03,0.00009690,0.00000721,0.00003350,0.00003280,0.00002574,0.00001104,-
 0.00252755,-0.00404095,-0.00124627,-0.00003192,0.00001425,-0.00000904,
 -0.00001377,0.00001024,-0.00000404,-0.02586861,0.00673995,-0.00784369,
 0.02846342,-0.06371903,0.00782567,-0.00051410,-0.00135234,-0.00016815,
 0.00203375,-0.00512782,0.00020136,0.02829390,0.00293189,0.00877191,-0.
 00004004,-0.00004011,-0.00001480,0.00000048,0.00000014,0.00000013,0.00
 000038,-0.00000030,0.00000007,0.00000109,0.00000031,0.00000029,-0.0000
 0178,0.00000248,-0.00000060,0.00000011,0.,0.00000007,-0.00000244,-0.00
 000070,-0.00000076,0.00000616,-0.00002429,0.00000277,-0.00000806,-0.00
 001612,-0.00000355,-0.00000070,-0.00000349,-0.00000046,-0.00000123,0.0
 0000009,-0.00000042,-0.00000188,0.00000026,-0.00000062,0.00011313,0.00
 090760,0.00023251,-0.02984298,0.06229151,-0.00000200,-0.00000042,0.000
 00179,0.00000161,0.00000121,-0.00000539,0.00000096,0.00000289,-0.00000
 671,-0.00000394,0.00000085,0.00000046,0.00000217,-0.00000232,0.0000134
 7,-0.00000086,-0.00000534,0.00000596,-0.00000081,-0.00000209,-0.000007
 94,-0.00000069,0.00000039,-0.00000585,-0.00000010,0.00000361,-0.000005
 95,-0.00002536,-0.00000044,0.00007374,-0.00001521,-0.00002408,0.000085
 45,0.00000376,-0.00001522,-0.00000799,-0.00000084,-0.00000059,0.000001
 08,0.00002140,0.00000681,-0.00005936,-0.00001413,0.00001744,-0.0000290
 7,0.00010216,-0.00008794,-0.00043717,-0.00025387,0.00020717,0.00006768
 ,-0.00001937,-0.00000944,0.00004221,-0.00000332,-0.00000390,0.00000109
 ,0.00028081,0.00003351,-0.00083086,-0.00008911,-0.00001135,0.00023909,
 0.00003219,0.00000098,-0.00008189,0.00000134,0.00001092,0.00000131,-0.
 00252100,-0.00139088,0.00812916,-0.00000386,-0.00000479,-0.00001025,-0
 .00000345,0.00000051,0.00000318,-0.00546866,0.00155666,0.00085336,-0.0
 8459840,0.00758481,-0.06241936,0.00046675,-0.00007459,-0.00095229,-0.0
 0156952,0.00039665,0.00634613,-0.00204027,-0.00054596,0.00154144,-0.00
 002207,0.00001372,0.00002118,-0.00000139,0.00000007,0.00000038,-0.0000
 0090,0.00000098,0.00000087,-0.00000040,-0.00000094,0.00000150,0.000000
 29,-0.00000095,0.00000396,-0.00000114,0.00000002,-0.00000139,-0.000001
 21,0.00000144,-0.00000088,0.00001121,0.00000287,-0.00004485,-0.0000061
 6,-0.00000834,0.00001131,-0.00000045,-0.00000294,0.00000315,-0.0000020
 0,-0.00000072,0.00000067,-0.00000136,-0.00000120,0.00000091,0.00155243
 ,0.00008248,-0.00413175,0.09327030,-0.00791856,0.05433666,0.00001215,0
 .00000967,0.00000446,-0.00000793,0.00000399,-0.00000347,0.00000846,-0.
 00000236,0.00000698,0.00002128,-0.00002250,0.00001134,-0.00005508,0.00
 006753,-0.00001312,0.00001030,0.00001938,-0.00000479,0.00004978,0.0000
 3485,-0.00002517,0.00001753,0.00000242,0.00000691,-0.00001326,-0.00005
 213,-0.00001924,0.00009145,0.00008889,0.00001179,0.00008125,0.00011770
 ,0.00008743,0.00002411,-0.00000445,0.00000584,-0.00001972,0.00002129,0
 .00000283,0.00000084,0.00024974,0.00005316,-0.00000506,0.00007293,-0.0
 0002725,0.00013469,-0.00007144,0.00012668,0.00062264,-0.00078223,0.000
 10095,0.00003037,-0.00000067,0.00000833,-0.00000566,0.00000369,0.00000
 964,-0.00034033,0.00112772,0.00050751,-0.00026523,-0.00011861,-0.00009
 273,0.00001974,-0.00007111,0.00000507,-0.00002599,0.00001067,-0.000003
 18,-0.00127154,-0.00293382,-0.00252125,0.00000699,-0.00003373,-0.00000
 244,0.00003402,0.00001782,0.00000304,-0.00096435,-0.00080143,0.0000134
 4,-0.00456443,-0.00021913,-0.00415956,0.01206820,-0.01507527,0.0028016
 4,-0.09697610,0.09933655,-0.01550464,-0.00799066,0.03013047,-0.0024368
 2,-0.00256383,-0.00158429,-0.00047141,0.00000571,0.00000119,0.00000060
 ,0.00000305,-0.00000463,0.00000198,0.00000567,0.00000282,0.00000198,-0
 .00000953,0.00001529,-0.00001442,0.00000539,0.00000189,-0.00000045,-0.
 00003783,-0.00000565,0.00000859,0.00001228,0.00000910,-0.00000220,-0.0
 0001845,-0.00002482,-0.00000152,-0.00000136,0.00000315,-0.00000107,0.0
 0000120,0.00000367,0.00000020,0.00000004,0.00000361,0.00000113,-0.0000
 2097,0.00003653,0.00033100,-0.00050372,0.00134494,-0.00010182,0.106253
 41,0.00000335,0.00000131,0.00000112,-0.00000321,0.00001374,-0.00000064
 ,0.00000283,0.00001844,0.00000205,-0.00000494,-0.00002578,-0.00000180,
 -0.00000279,0.00011528,0.00000344,0.00003191,-0.00001330,0.00000838,0.
 00014898,0.00000512,0.00004142,0.00000777,0.00000930,0.00000290,-0.000
 06758,-0.00004653,-0.00002409,0.00010758,-0.00001806,0.00003033,-0.000
 20134,-0.00007668,-0.00005827,0.00005457,-0.00002385,0.00001585,-0.000
 03114,0.00001289,-0.00000822,0.00003495,0.00082212,0.00004531,-0.00001
 823,0.00006624,-0.00000654,0.00009410,-0.00002696,0.00003826,0.0010749
 5,-0.00067231,0.00030085,-0.00001478,-0.00002465,-0.00000557,0.0000025
 5,-0.00002979,0.00000103,0.00172215,-0.00041992,0.00058353,-0.00039605
 ,-0.00023998,-0.00013176,0.00007882,-0.00007451,0.00002188,-0.00001321
 ,0.00005764,-0.00000150,-0.00379494,-0.00184777,-0.00147317,-0.0000307
 8,-0.00004578,-0.00001155,0.00002318,0.00003503,0.00000748,-0.00077179
 ,0.00035797,-0.00018639,0.00049765,0.00178609,-0.00009941,0.01152067,-
 0.01853867,0.00285281,0.09979137,-0.30266037,0.02128401,-0.00103883,0.
 00041426,-0.00042719,0.00093817,-0.00049815,0.00031580,0.00000232,0.00
 000167,0.00000064,0.00000088,-0.00000095,0.00000038,0.00000863,0.00000
 023,0.00000269,-0.00000882,0.00001957,-0.00000342,-0.00000018,0.000000
 27,-0.00000030,-0.00001685,-0.00001139,-0.00000325,0.00001706,0.000025
 69,0.00000546,-0.00002470,-0.00004321,-0.00000860,0.00000036,-0.000003
 42,-0.00000010,-0.00000450,0.00000206,-0.00000135,-0.00000223,0.000000
 27,-0.00000057,0.00009649,-0.00006169,0.00006651,-0.00009897,-0.000118
 12,-0.00003414,-0.11083546,0.31875784,0.00000424,0.00000308,0.00000026
 ,-0.00000373,0.00000159,0.00000266,0.00000717,0.00000044,-0.00001217,0
 .00001197,-0.00000723,-0.00001457,-0.00001564,0.00002516,-0.00000879,-
 0.00000435,0.00000452,0.00002687,-0.00002111,0.00000616,0.00012901,0.0
 0000710,0.00000124,-0.00000231,-0.00001979,-0.00001932,0.00003614,0.00
 001248,0.00002453,0.00006831,0.00007600,0.00004031,-0.00016310,0.00000
 796,-0.00000239,0.00000706,0.00000096,0.00000799,-0.00002585,0.0000454
 0,0.00011162,-0.00012423,-0.00003052,0.00002163,0.00008292,0.00013258,
 -0.00001289,-0.00024287,0.00016738,-0.00027316,0.00024746,0.00000782,-
 0.00000121,0.00000571,0.00000960,0.00000138,-0.00003342,0.00052882,0.0
 0039975,-0.00167370,-0.00010264,-0.00004600,-0.00001235,0.00001043,-0.
 00002447,-0.00000254,-0.00000403,0.00000588,-0.00001552,-0.00255207,-0
 .00120704,0.00571392,-0.00000233,-0.00001245,0.00000980,0.00000323,0.0
 0000582,0.00002746,0.00001453,-0.00019558,-0.00110310,-0.00413392,-0.0
 0032103,0.00757826,0.00375275,-0.00536794,0.00222748,-0.01548844,0.021
 14365,-0.03935239,-0.00355152,0.00920706,0.00261100,-0.00038099,-0.000
 46357,-0.00135678,0.00000064,0.00000029,0.00000412,0.00000218,-0.00000
 132,-0.00000326,0.00000219,0.00000089,0.00000029,-0.00001529,0.0000040
 3,0.00003433,-0.00000052,0.00000034,0.00000691,0.00000821,0.00000022,-
 0.00006376,-0.00000192,0.00000300,0.00001997,-0.00000151,-0.00000863,-
 0.00001719,-0.00000117,0.00000076,0.00000215,-0.00000009,0.00000117,0.
 00000099,0.00000092,0.00000124,-0.00000286,0.00033314,0.00004800,-0.00
 098293,-0.00015347,0.00041216,-0.00005136,0.02178402,-0.02367956,0.028
 83912,-0.00001371,-0.00000815,-0.00000427,0.00000815,0.00000168,0.0000
 0441,-0.00000588,0.00001257,-0.00000146,-0.00002412,0.00000341,-0.0000
 1026,0.00005022,-0.00000451,0.00001738,0.00000089,-0.00002177,0.000001
 14,-0.00003191,-0.00004991,-0.00003207,-0.00001552,0.00000178,-0.00000
 504,-0.00003298,0.00004439,-0.00000395,-0.00005544,-0.00012152,-0.0000
 1279,-0.00044011,0.00008400,0.00000841,0.00000641,-0.00000044,0.000003
 12,-0.00000488,-0.00001214,-0.00000398,0.00004273,0.00006257,0.0000548
 5,0.00001248,-0.00003422,-0.00002279,-0.00007980,0.00018981,-0.0000452
 7,0.00012997,0.00009996,0.00032668,-0.00003802,0.00000373,-0.00000887,
 0.00000702,-0.00002032,0.00000299,0.00006227,-0.00149344,-0.00007725,-
 0.00003317,-0.00004181,-0.00001964,0.00007444,-0.00001466,0.00004405,0
 .00002719,0.00001295,0.00000310,-0.00091426,0.00071809,0.00008055,-0.0
 0002123,0.00001667,-0.00000630,-0.00001361,0.00000457,-0.00000409,0.00
 037265,0.00302420,-0.00188144,0.01099381,0.01177643,0.00314591,-0.0039
 5541,0.00195495,-0.00391643,-0.01157553,-0.02644202,-0.00528210,-0.141
 09951,-0.12412305,-0.03678241,-0.00001672,0.00000050,-0.00009913,-0.00
 000237,0.00000008,-0.00000108,-0.00000331,0.00000333,-0.00000175,-0.00
 000144,-0.00000189,-0.00000041,0.00000350,-0.00000187,0.00000222,-0.00
 000347,-0.00000201,-0.00000179,-0.00002141,0.00001010,-0.00001488,0.00
 003185,-0.00003175,-0.00001720,-0.00000162,-0.00000573,-0.00000166,0.0
 0000124,-0.00000320,-0.00000033,-0.00000225,-0.00000209,0.00000029,-0.
 00000135,-0.00000253,-0.00000019,0.00031780,0.00062161,0.00012298,0.00
 034469,-0.00058457,0.00104664,0.00033781,0.00016112,0.00153391,0.14560
 340,-0.00000807,0.00000899,-0.00000214,-0.00000818,-0.00000494,-0.0000
 0250,0.00000725,0.00000292,0.00000234,-0.00000432,-0.00000727,-0.00000
 193,0.00000023,-0.00000200,0.00000023,-0.00001053,0.00001129,-0.000002
 66,0.00000272,0.00003483,-0.00000028,0.00000011,-0.00001524,-0.0000005
 4,-0.00000878,0.00000359,-0.00000205,0.00003947,0.00001772,0.00001384,
 -0.00000443,0.00011214,0.00001901,-0.00000175,-0.00001413,-0.00000091,
 -0.00000410,0.00001053,-0.00000113,-0.00005093,-0.00003795,-0.00001254
 ,-0.00000308,0.00002808,-0.00000289,0.00005128,-0.00010607,0.00000889,
 -0.00015720,-0.00005122,-0.00001768,0.00002721,-0.00001937,0.00000804,
 -0.00001607,0.00000757,-0.00000452,0.00001270,0.00017639,0.00000524,0.
 00004831,-0.00005484,0.00001206,-0.00006685,0.00002086,-0.00001742,-0.
 00002029,0.00000936,-0.00000660,0.00102587,0.00015188,0.00036158,0.000
 00566,-0.00001238,0.00000127,0.00000979,-0.00000234,0.00000294,0.00366
 522,-0.00392613,0.00074888,-0.01839990,-0.01718313,-0.00637983,0.00149
 275,0.00141364,0.00019215,0.00397938,0.00607021,0.00135933,-0.12488360
 ,-0.24932230,-0.04621426,-0.00001162,-0.00003831,-0.00001583,-0.000002
 87,0.00000035,-0.00000092,-0.00000209,0.00000302,-0.00000064,-0.000000
 42,-0.00000250,-0.00000021,0.00000364,-0.00000150,0.00000121,-0.000002
 92,0.00000047,-0.00000096,-0.00000360,0.00000549,-0.00000191,-0.000052
 87,0.00008246,-0.00001640,0.00000023,-0.00000731,-0.00000030,0.0000027
 5,-0.00000246,0.00000069,-0.00000441,-0.00000239,-0.00000133,-0.000001
 94,-0.00000326,-0.00000068,-0.00082535,-0.00100502,-0.00029078,0.00029
 712,0.00086403,0.00023396,-0.00033383,0.00095854,0.00009586,0.13420737
 ,0.26184958,-0.00000426,-0.00000217,-0.00000225,0.00000406,0.00000055,
 -0.00000464,-0.00000165,0.00000398,-0.00000007,-0.00001053,0.00000046,
 0.00000622,0.00001755,-0.00000123,-0.00000114,0.00000155,-0.00000614,-
 0.00000507,-0.00003019,-0.00001655,0.00005614,-0.00000510,-0.00000003,
 -0.00000060,-0.00000585,0.00001439,-0.00001636,-0.00000703,-0.00003592
 ,-0.00003161,0.00000525,0.00004634,-0.00045433,0.00000307,-0.00000051,
 -0.00000280,-0.00000369,-0.00000361,0.00000531,0.00005080,0.00002255,-
 0.00011097,-0.00002168,-0.00001252,0.00007511,-0.00005024,0.00005172,0
 .00007493,0.00031750,0.00006184,-0.00081499,-0.00000803,0.00000078,-0.
 00001136,0.00000314,-0.00000583,-0.00000424,-0.00002334,-0.00046030,0.
 00011570,-0.00001641,-0.00001580,0.00001989,0.00004218,-0.00000129,-0.
 00005676,0.00000191,0.00000367,0.00001939,0.00009149,0.00026642,-0.001
 05396,-0.00000669,0.00000467,-0.00000083,-0.00000390,0.00000132,-0.000
 00102,-0.00185848,0.00055079,0.00625489,0.00206655,0.00294732,0.002922
 90,-0.00393300,0.00033495,0.00773783,-0.00419395,-0.00804367,0.0008697
 1,-0.03680966,-0.04597907,-0.04948426,-0.00009955,-0.00001210,0.000272
 79,-0.00000118,0.,0.00000075,-0.00000194,0.00000104,0.00000217,-0.0000
 0036,-0.00000066,-0.00000046,0.00000241,-0.00000049,-0.00000316,-0.000
 00182,-0.00000068,0.00000151,-0.00001537,0.00000232,0.00002323,-0.0000
 1796,-0.00000986,0.00007794,-0.00000144,-0.00000214,0.00000256,-0.0000
 0012,-0.00000115,0.00000186,0.00000021,-0.00000061,-0.00000338,-0.0000
 0017,-0.00000086,-0.00000111,0.00007122,0.00015648,0.00001951,0.001078
 18,-0.00003857,-0.00277727,0.00151624,0.00024882,-0.00412864,0.0418462
 6,0.04992744,0.04047005,-0.00002227,-0.00005347,-0.00002261,0.00005129
 ,0.00006648,0.00004747,-0.00007366,-0.00011034,-0.00002672,-0.00001242
 ,-0.00000269,-0.00006346,0.00007509,-0.00144783,-0.00014784,-0.0004252
 2,0.00008102,0.00004438,-0.00410246,0.00191466,-0.00388929,0.00002307,
 0.00023372,-0.00001483,-0.00002381,-0.00004258,0.00027709,-0.00062097,
 0.00077455,0.00007657,-0.00044055,0.00299788,-0.00186590,-0.00008182,-
 0.00008084,-0.00003835,0.00000078,-0.00014283,-0.00004884,-0.01287267,
 -0.02730974,-0.00587749,-0.00012156,0.00012115,0.00000825,0.00067240,0
 .00043100,0.00012146,0.00004472,0.00012329,0.00005133,-0.00005079,0.00
 004601,-0.00000304,0.00013269,-0.00001643,0.00000108,0.01192799,0.0098
 5604,0.00357933,-0.00003379,-0.00018234,-0.00002998,0.00010917,0.00006
 393,0.00002459,0.00002034,0.00004060,0.00001908,0.00007285,-0.00012873
 ,0.00012992,-0.00004196,0.00002343,-0.00000525,-0.00009778,0.00008384,
 -0.00000961,0.00010428,-0.00014758,-0.00003128,-0.00002193,-0.00005648
 ,0.00001566,-0.00073724,-0.00117004,0.00025030,-0.00239067,0.00192021,
 -0.00028563,-0.00002595,-0.00012960,-0.00000620,-0.13086474,-0.1220610
 1,-0.03402407,-0.00000444,0.00000318,-0.00000108,-0.00002147,0.0000097
 6,-0.00001491,-0.00005162,0.00000323,-0.00001113,-0.00003384,0.0000192
 5,0.00001072,-0.00000162,0.00000359,0.00000565,0.00021456,0.00005357,0
 .00151966,-0.00000703,0.00002266,-0.00000014,-0.00000189,-0.00000404,0
 .00000206,0.00000530,0.00000506,0.00000096,-0.00000050,-0.00000206,-0.
 00000260,-0.00000171,-0.00000386,0.00000179,0.00003035,-0.00000938,0.0
 0000456,0.00002489,-0.00003103,-0.00002036,-0.00419732,0.00095892,-0.0
 0198058,-0.00001945,0.00001094,0.00001402,0.14389339,-0.00002647,0.000
 03408,-0.00000856,-0.00003152,-0.00003230,-0.00000751,0.00003339,0.000
 00116,0.00001036,-0.00001666,-0.00003774,-0.00001340,0.00002125,0.0001
 2646,-0.00000273,-0.00001232,0.00010062,0.00001982,0.00132192,0.001472
 90,0.00014977,-0.00000567,-0.00011855,-0.00000951,-0.00007118,0.000047
 86,0.00001285,0.00080823,0.00004088,0.00027918,0.00385413,-0.00335020,
 0.00085857,0.00007404,0.00005851,0.00002380,-0.00002743,0.00008056,-0.
 00001069,0.00381433,0.00542157,0.00126656,0.00034361,-0.00034278,0.000
 09876,-0.00133916,-0.00053111,-0.00044472,-0.00008616,-0.00005410,-0.0
 0002473,-0.00007980,-0.00006212,-0.00002561,-0.00005919,-0.00001291,-0
 .00002332,-0.01679383,-0.01811553,-0.00589302,0.00003589,0.00011990,0.
 00001387,0.00000651,-0.00007994,-0.00000217,0.00002975,-0.00005101,0.0
 0000869,0.00012840,-0.00013865,0.00004772,0.00000496,0.00000815,0.0000
 0262,0.00006939,-0.00003593,0.00002221,-0.00013071,0.00011566,-0.00004
 301,-0.00012681,0.00007933,-0.00003353,-0.00168079,0.00017290,-0.00045
 311,-0.00059876,-0.00071805,-0.00016613,0.00010275,0.00086098,0.000063
 31,-0.12296451,-0.26119111,-0.04611125,-0.00000393,-0.00000041,-0.0000
 0121,-0.00000394,0.00000556,-0.00000202,0.00000060,-0.00000239,0.00000
 064,0.00000804,-0.00001630,0.00000428,-0.00000579,-0.00000165,-0.00000
 115,-0.00008064,0.00118534,0.00018564,0.00002936,-0.00005106,0.0000074
 0,0.00000431,-0.00000286,0.00000155,-0.00000664,-0.00001776,-0.0000027
 9,-0.00000462,-0.00000613,-0.00000192,-0.00000501,-0.00000608,-0.00000
 148,0.00000001,0.00000426,-0.00000037,-0.00004208,0.00009257,-0.000012
 82,0.00024007,0.00204027,0.00006404,0.00000777,-0.00002188,0.00000390,
 0.13326492,0.27292902,-0.00002164,-0.00001689,0.00003740,0.00004396,0.
 00002277,-0.00008020,-0.00002157,-0.00003407,-0.00000788,-0.00006397,-
 0.00000907,0.00017250,-0.00009529,-0.00045679,0.00033992,0.00004105,0.
 00004867,-0.00054499,-0.00391039,0.00033320,0.00750470,-0.00002340,0.0
 0006446,0.00009318,0.00027606,0.00002164,-0.00083909,0.00007790,0.0002
 6872,-0.00074520,-0.00183527,0.00059396,0.00539703,-0.00003280,-0.0000
 2405,0.00002189,-0.00004471,-0.00004633,0.00012677,-0.00476323,-0.0083
 5426,0.00120675,0.00001623,0.00002998,-0.00012816,0.00005807,0.0001024
 2,0.00035092,0.00004383,0.00003996,-0.00009210,-0.00000752,0.00001327,
 -0.00003749,-0.00000048,-0.00001010,0.00012679,0.00262491,0.00234500,0
 .00238524,-0.00002218,-0.00005355,0.00003335,0.00002251,0.00001556,0.0
 0004454,0.00001868,0.00001203,-0.00003047,0.00013914,-0.00003174,-0.00
 032055,-0.00000590,0.00000832,-0.00002380,-0.00001011,0.00002666,-0.00
 005917,-0.00003066,-0.00004818,0.00017719,0.00001313,-0.00001182,-0.00
 007550,0.00023204,-0.00029522,-0.00162101,-0.00037571,0.00061212,-0.00
 133877,0.00000205,-0.00000841,-0.00002052,-0.03405632,-0.04583230,-0.0
 4710134,-0.00000134,0.00000099,-0.00000094,-0.00001540,0.00000222,0.00
 002322,-0.00001122,0.00000146,-0.00001866,0.00001032,0.00000773,-0.000
 06284,0.00000531,0.00000175,-0.00001777,0.00151480,0.00022711,-0.00421
 904,0.00000011,0.00000532,-0.00000375,0.00000236,-0.00000103,-0.000008
 32,0.00000054,0.00000083,0.00000298,-0.00000269,-0.00000113,0.00000678
 ,0.00000175,-0.00000113,-0.00000745,0.00000489,-0.00000327,0.00001590,
 -0.00002076,-0.00000939,0.00008041,-0.00200625,0.00028646,0.00171150,0
 .00001392,0.00000487,-0.00005909,0.04221527,0.05015125,0.03760514\\0.,
 0.00000004,0.00000002,-0.00000001,-0.00000002,-0.00000003,-0.00000007,
 -0.00000006,0.00000006,0.00000005,0.00000003,0.00000012,0.00000010,0.0
 0000008,-0.00000003,0.00000004,-0.00000007,-0.00000005,-0.00000015,0.0
 0000040,-0.00000002,-0.00000038,0.00000002,-0.00000015,-0.00000027,0.0
 0000009,-0.00000003,-0.00000020,0.00000025,0.,0.00000022,0.00000021,0.
 00000002,-0.00000015,-0.00000035,-0.00000006,-0.00000001,-0.00000006,0
 .,0.,0.00000012,-0.00000005,0.00000010,-0.00000037,0.,0.00000030,0.000
 00004,0.00000002,0.00000041,-0.00000005,0.00000012,0.00000019,-0.00000
 039,0.00000010,-0.00000025,-0.00000033,-0.00000014,0.00000022,0.000000
 37,-0.00000001,0.,0.,0.00000003,-0.00000006,-0.00000010,-0.00000006,0.
 00000001,0.00000001,-0.00000002,-0.00000004,-0.00000010,0.00000004,0.,
 0.00000001,0.00000001,0.00000005,-0.00000011,0.00000003,0.,-0.00000009
 ,-0.00000003,0.00000001,0.00000004,-0.00000002,-0.00000005,0.00000008,
 -0.00000005,-0.00000005,0.00000007,-0.00000006,0.00000003,-0.00000002,
 0.00000004,-0.00000003,0.00000013,0.00000008,0.,0.,-0.00000003,0.00000
 001,0.,-0.00000003,0.00000002,0.00000003,-0.00000002,-0.00000001,-0.00
 000004,-0.00000003,0.00000017,0.,0.00000003,0.,-0.00000013,0.00000008,
 -0.00000014,0.00000005,0.00000005,-0.00000012,0.00000014,0.,-0.0000000
 7,0.00000012,0.,0.00000008,0.00000010,0.00000002,0.00000013,0.00000011
 ,0.00000003,-0.00000001,-0.00000003,0.,0.00000001,-0.00000001,0.,0.000
 00005,-0.00000006,-0.00000006,0.00000001,0.,-0.00000004,-0.00000011,-0
 .00000014,0.00000012\\\@


 Everywhere is walking distance if you have the time.
                                    -- Steven Wright
 Job cpu time:       8 days 20 hours 36 minutes 21.4 seconds.
 File lengths (MBytes):  RWF=   4419 Int=      0 D2E=      0 Chk=     85 Scr=      1
 Normal termination of Gaussian 09 at Thu Aug  1 17:43:37 2019.
