 Entering Gaussian System, Link 0=g09
 Initial command:
 /home/minenky/programs//g09/l1.exe "/local/scratch/minenky/m1_00_100-41-40_C8H8_wB97XD/Gau-177746.inp" -scrdir="/local/scratch/minenky/m1_00_100-41-40_C8H8_wB97XD/"
 Entering Link 1 = /home/minenky/programs//g09/l1.exe PID=    177747.
  
 Copyright (c) 1988,1990,1992,1993,1995,1998,2003,2009,2013,
            Gaussian, Inc.  All Rights Reserved.
  
 This is part of the Gaussian(R) 09 program.  It is based on
 the Gaussian(R) 03 system (copyright 2003, Gaussian, Inc.),
 the Gaussian(R) 98 system (copyright 1998, Gaussian, Inc.),
 the Gaussian(R) 94 system (copyright 1995, Gaussian, Inc.),
 the Gaussian 92(TM) system (copyright 1992, Gaussian, Inc.),
 the Gaussian 90(TM) system (copyright 1990, Gaussian, Inc.),
 the Gaussian 88(TM) system (copyright 1988, Gaussian, Inc.),
 the Gaussian 86(TM) system (copyright 1986, Carnegie Mellon
 University), and the Gaussian 82(TM) system (copyright 1983,
 Carnegie Mellon University). Gaussian is a federally registered
 trademark of Gaussian, Inc.
  
 This software contains proprietary and confidential information,
 including trade secrets, belonging to Gaussian, Inc.
  
 This software is provided under written license and may be
 used, copied, transmitted, or stored only in accord with that
 written license.
  
 The following legend is applicable only to US Government
 contracts under FAR:
  
                    RESTRICTED RIGHTS LEGEND
  
 Use, reproduction and disclosure by the US Government is
 subject to restrictions as set forth in subparagraphs (a)
 and (c) of the Commercial Computer Software - Restricted
 Rights clause in FAR 52.227-19.
  
 Gaussian, Inc.
 340 Quinnipiac St., Bldg. 40, Wallingford CT 06492
  
  
 ---------------------------------------------------------------
 Warning -- This program may not be used in any manner that
 competes with the business of Gaussian, Inc. or will provide
 assistance to any competitor of Gaussian, Inc.  The licensee
 of this program is prohibited from giving any competitor of
 Gaussian, Inc. access to this program.  By using this program,
 the user acknowledges that Gaussian, Inc. is engaged in the
 business of creating and licensing software in the field of
 computational chemistry and represents and warrants to the
 licensee that it is not a competitor of Gaussian, Inc. and that
 it will not use this program in any manner prohibited above.
 ---------------------------------------------------------------
  

 Cite this work as:
 Gaussian 09, Revision D.01,
 M. J. Frisch, G. W. Trucks, H. B. Schlegel, G. E. Scuseria, 
 M. A. Robb, J. R. Cheeseman, G. Scalmani, V. Barone, B. Mennucci, 
 G. A. Petersson, H. Nakatsuji, M. Caricato, X. Li, H. P. Hratchian, 
 A. F. Izmaylov, J. Bloino, G. Zheng, J. L. Sonnenberg, M. Hada, 
 M. Ehara, K. Toyota, R. Fukuda, J. Hasegawa, M. Ishida, T. Nakajima, 
 Y. Honda, O. Kitao, H. Nakai, T. Vreven, J. A. Montgomery, Jr., 
 J. E. Peralta, F. Ogliaro, M. Bearpark, J. J. Heyd, E. Brothers, 
 K. N. Kudin, V. N. Staroverov, T. Keith, R. Kobayashi, J. Normand, 
 K. Raghavachari, A. Rendell, J. C. Burant, S. S. Iyengar, J. Tomasi, 
 M. Cossi, N. Rega, J. M. Millam, M. Klene, J. E. Knox, J. B. Cross, 
 V. Bakken, C. Adamo, J. Jaramillo, R. Gomperts, R. E. Stratmann, 
 O. Yazyev, A. J. Austin, R. Cammi, C. Pomelli, J. W. Ochterski, 
 R. L. Martin, K. Morokuma, V. G. Zakrzewski, G. A. Voth, 
 P. Salvador, J. J. Dannenberg, S. Dapprich, A. D. Daniels, 
 O. Farkas, J. B. Foresman, J. V. Ortiz, J. Cioslowski, 
 and D. J. Fox, Gaussian, Inc., Wallingford CT, 2013.
 
 ******************************************
 Gaussian 09:  AM64L-G09RevD.01 24-Apr-2013
                 9-Jul-2021 
 ******************************************
 %Mem=32000MB
 %NProcShared=16
 Will use up to   16 processors via shared memory.
 %Chk=m1_00_100-41-40_C8H8_wB97XD
 ----------------------------------------------------------------------
 #P wB97XD/def2tzvp opt=(tight) freq integral(Grid=ultrafine) # SCF(Max
 Cycle=380) 5d 7f GFPrint
 ----------------------------------------------------------------------
 1/7=10,14=-1,18=20,19=15,26=4,38=1/1,3;
 2/9=110,12=2,17=6,18=5,40=1/2;
 3/5=44,7=101,8=11,11=2,16=1,24=100,25=1,30=1,71=1,74=-58,75=-5/1,2,3;
 4//1;
 5/5=2,7=380,38=5/2;
 6/7=2,8=2,9=2,10=2,28=1/1;
 7//1,2,3,16;
 1/7=10,14=-1,18=20,19=15,26=4/3(2);
 2/9=110/2;
 99//99;
 2/9=110/2;
 3/5=44,7=101,8=11,11=2,16=1,25=1,30=1,71=1,74=-58,75=-5/1,2,3;
 4/5=5,16=3,69=1/1;
 5/5=2,7=380,38=5/2;
 7//1,2,3,16;
 1/7=10,14=-1,18=20,19=15,26=4/3(-5);
 2/9=110/2;
 6/7=2,8=2,9=2,10=2,19=2,28=1/1;
 99/9=1/99;
 Leave Link    1 at Fri Jul  9 19:19:32 2021, MaxMem=  4194304000 cpu:         0.9
 (Enter /home/minenky/programs//g09/l101.exe)
 ---------------------------------------
 The PBEPBE optimization and frequencies
 ---------------------------------------
 Symbolic Z-matrix:
 Charge =  0 Multiplicity = 1
 C                     0.23803   0.49351   0. 
 C                     0.239    -0.22176   1.19732 
 C                     0.239    -0.22176  -1.19732 
 C                     0.239    -1.61116   1.20063 
 C                     0.239    -1.61116  -1.20063 
 C                     0.23805  -2.31141   0. 
 H                     0.24341   0.31746   2.13765 
 H                     0.24341   0.31746  -2.13765 
 H                     0.24383  -2.14752   2.14115 
 H                     0.24383  -2.14752  -2.14115 
 H                     0.24123  -3.39372   0. 
 C                     0.18629   1.99926   0. 
 C                    -1.25077   2.53341   0. 
 H                     0.71452   2.38195  -0.87676 
 H                     0.71452   2.38195   0.87676 
 H                    -1.26397   3.62511   0. 
 H                    -1.79325   2.18565   0.88102 
 H                    -1.79325   2.18565  -0.88102 
 
 NAtoms=     18 NQM=       18 NQMF=       0 NMMI=      0 NMMIF=      0
                NMic=       0 NMicF=      0.
                    Isotopes and Nuclear Properties:
 (Nuclear quadrupole moments (NQMom) in fm**2, nuclear magnetic moments (NMagM)
  in nuclear magnetons)

  Atom         1           2           3           4           5           6           7           8           9          10
 IAtWgt=          12          12          12          12          12          12           1           1           1           1
 AtmWgt=  12.0000000  12.0000000  12.0000000  12.0000000  12.0000000  12.0000000   1.0078250   1.0078250   1.0078250   1.0078250
 NucSpn=           0           0           0           0           0           0           1           1           1           1
 AtZEff=   0.0000000   0.0000000   0.0000000   0.0000000   0.0000000   0.0000000   0.0000000   0.0000000   0.0000000   0.0000000
 NQMom=    0.0000000   0.0000000   0.0000000   0.0000000   0.0000000   0.0000000   0.0000000   0.0000000   0.0000000   0.0000000
 NMagM=    0.0000000   0.0000000   0.0000000   0.0000000   0.0000000   0.0000000   2.7928460   2.7928460   2.7928460   2.7928460
 AtZNuc=   6.0000000   6.0000000   6.0000000   6.0000000   6.0000000   6.0000000   1.0000000   1.0000000   1.0000000   1.0000000

  Atom        11          12          13          14          15          16          17          18
 IAtWgt=           1          12          12           1           1           1           1           1
 AtmWgt=   1.0078250  12.0000000  12.0000000   1.0078250   1.0078250   1.0078250   1.0078250   1.0078250
 NucSpn=           1           0           0           1           1           1           1           1
 AtZEff=   0.0000000   0.0000000   0.0000000   0.0000000   0.0000000   0.0000000   0.0000000   0.0000000
 NQMom=    0.0000000   0.0000000   0.0000000   0.0000000   0.0000000   0.0000000   0.0000000   0.0000000
 NMagM=    2.7928460   0.0000000   0.0000000   2.7928460   2.7928460   2.7928460   2.7928460   2.7928460
 AtZNuc=   1.0000000   6.0000000   6.0000000   1.0000000   1.0000000   1.0000000   1.0000000   1.0000000
 Leave Link  101 at Fri Jul  9 19:19:32 2021, MaxMem=  4194304000 cpu:         1.9
 (Enter /home/minenky/programs//g09/l103.exe)

 GradGradGradGradGradGradGradGradGradGradGradGradGradGradGradGradGradGrad
 Berny optimization.
 Initialization pass.
                           ----------------------------
                           !    Initial Parameters    !
                           ! (Angstroms and Degrees)  !
 --------------------------                            --------------------------
 ! Name  Definition              Value          Derivative Info.                !
 --------------------------------------------------------------------------------
 ! R1    R(1,2)                  1.3947         estimate D2E/DX2                !
 ! R2    R(1,3)                  1.3947         estimate D2E/DX2                !
 ! R3    R(1,12)                 1.5066         estimate D2E/DX2                !
 ! R4    R(2,4)                  1.3894         estimate D2E/DX2                !
 ! R5    R(2,7)                  1.084          estimate D2E/DX2                !
 ! R6    R(3,5)                  1.3894         estimate D2E/DX2                !
 ! R7    R(3,8)                  1.084          estimate D2E/DX2                !
 ! R8    R(4,6)                  1.3899         estimate D2E/DX2                !
 ! R9    R(4,9)                  1.0827         estimate D2E/DX2                !
 ! R10   R(5,6)                  1.3899         estimate D2E/DX2                !
 ! R11   R(5,10)                 1.0827         estimate D2E/DX2                !
 ! R12   R(6,11)                 1.0823         estimate D2E/DX2                !
 ! R13   R(12,13)                1.5331         estimate D2E/DX2                !
 ! R14   R(12,14)                1.0928         estimate D2E/DX2                !
 ! R15   R(12,15)                1.0928         estimate D2E/DX2                !
 ! R16   R(13,16)                1.0918         estimate D2E/DX2                !
 ! R17   R(13,17)                1.0915         estimate D2E/DX2                !
 ! R18   R(13,18)                1.0915         estimate D2E/DX2                !
 ! A1    A(2,1,3)              118.2927         estimate D2E/DX2                !
 ! A2    A(2,1,12)             120.835          estimate D2E/DX2                !
 ! A3    A(3,1,12)             120.835          estimate D2E/DX2                !
 ! A4    A(1,2,4)              120.9901         estimate D2E/DX2                !
 ! A5    A(1,2,7)              119.3146         estimate D2E/DX2                !
 ! A6    A(4,2,7)              119.6949         estimate D2E/DX2                !
 ! A7    A(1,3,5)              120.9901         estimate D2E/DX2                !
 ! A8    A(1,3,8)              119.3146         estimate D2E/DX2                !
 ! A9    A(5,3,8)              119.6949         estimate D2E/DX2                !
 ! A10   A(2,4,6)              120.1157         estimate D2E/DX2                !
 ! A11   A(2,4,9)              119.8316         estimate D2E/DX2                !
 ! A12   A(6,4,9)              120.0522         estimate D2E/DX2                !
 ! A13   A(3,5,6)              120.1157         estimate D2E/DX2                !
 ! A14   A(3,5,10)             119.8316         estimate D2E/DX2                !
 ! A15   A(6,5,10)             120.0522         estimate D2E/DX2                !
 ! A16   A(4,6,5)              119.4955         estimate D2E/DX2                !
 ! A17   A(4,6,11)             120.252          estimate D2E/DX2                !
 ! A18   A(5,6,11)             120.252          estimate D2E/DX2                !
 ! A19   A(1,12,13)            112.3581         estimate D2E/DX2                !
 ! A20   A(1,12,14)            109.4747         estimate D2E/DX2                !
 ! A21   A(1,12,15)            109.4747         estimate D2E/DX2                !
 ! A22   A(13,12,14)           109.3343         estimate D2E/DX2                !
 ! A23   A(13,12,15)           109.3343         estimate D2E/DX2                !
 ! A24   A(14,12,15)           106.703          estimate D2E/DX2                !
 ! A25   A(12,13,16)           111.0829         estimate D2E/DX2                !
 ! A26   A(12,13,17)           110.7847         estimate D2E/DX2                !
 ! A27   A(12,13,18)           110.7847         estimate D2E/DX2                !
 ! A28   A(16,13,17)           108.2139         estimate D2E/DX2                !
 ! A29   A(16,13,18)           108.2139         estimate D2E/DX2                !
 ! A30   A(17,13,18)           107.6362         estimate D2E/DX2                !
 ! D1    D(3,1,2,4)             -0.0908         estimate D2E/DX2                !
 ! D2    D(3,1,2,7)            179.6884         estimate D2E/DX2                !
 ! D3    D(12,1,2,4)           177.7077         estimate D2E/DX2                !
 ! D4    D(12,1,2,7)            -2.5131         estimate D2E/DX2                !
 ! D5    D(2,1,3,5)              0.0908         estimate D2E/DX2                !
 ! D6    D(2,1,3,8)           -179.6884         estimate D2E/DX2                !
 ! D7    D(12,1,3,5)          -177.7077         estimate D2E/DX2                !
 ! D8    D(12,1,3,8)             2.5131         estimate D2E/DX2                !
 ! D9    D(2,1,12,13)          -88.8712         estimate D2E/DX2                !
 ! D10   D(2,1,12,14)          149.4494         estimate D2E/DX2                !
 ! D11   D(2,1,12,15)           32.8083         estimate D2E/DX2                !
 ! D12   D(3,1,12,13)           88.8712         estimate D2E/DX2                !
 ! D13   D(3,1,12,14)          -32.8083         estimate D2E/DX2                !
 ! D14   D(3,1,12,15)         -149.4494         estimate D2E/DX2                !
 ! D15   D(1,2,4,6)              0.0014         estimate D2E/DX2                !
 ! D16   D(1,2,4,9)            179.7523         estimate D2E/DX2                !
 ! D17   D(7,2,4,6)           -179.7771         estimate D2E/DX2                !
 ! D18   D(7,2,4,9)             -0.0261         estimate D2E/DX2                !
 ! D19   D(1,3,5,6)             -0.0014         estimate D2E/DX2                !
 ! D20   D(1,3,5,10)          -179.7523         estimate D2E/DX2                !
 ! D21   D(8,3,5,6)            179.7771         estimate D2E/DX2                !
 ! D22   D(8,3,5,10)             0.0261         estimate D2E/DX2                !
 ! D23   D(2,4,6,5)              0.0898         estimate D2E/DX2                !
 ! D24   D(2,4,6,11)           179.8055         estimate D2E/DX2                !
 ! D25   D(9,4,6,5)           -179.6606         estimate D2E/DX2                !
 ! D26   D(9,4,6,11)             0.0551         estimate D2E/DX2                !
 ! D27   D(3,5,6,4)             -0.0898         estimate D2E/DX2                !
 ! D28   D(3,5,6,11)          -179.8055         estimate D2E/DX2                !
 ! D29   D(10,5,6,4)           179.6606         estimate D2E/DX2                !
 ! D30   D(10,5,6,11)           -0.0551         estimate D2E/DX2                !
 ! D31   D(1,12,13,16)         180.0            estimate D2E/DX2                !
 ! D32   D(1,12,13,17)          59.6928         estimate D2E/DX2                !
 ! D33   D(1,12,13,18)         -59.6928         estimate D2E/DX2                !
 ! D34   D(14,12,13,16)        -58.2405         estimate D2E/DX2                !
 ! D35   D(14,12,13,17)       -178.5478         estimate D2E/DX2                !
 ! D36   D(14,12,13,18)         62.0667         estimate D2E/DX2                !
 ! D37   D(15,12,13,16)         58.2405         estimate D2E/DX2                !
 ! D38   D(15,12,13,17)        -62.0667         estimate D2E/DX2                !
 ! D39   D(15,12,13,18)        178.5478         estimate D2E/DX2                !
 --------------------------------------------------------------------------------
 Trust Radius=3.00D-01 FncErr=1.00D-07 GrdErr=1.00D-06
 Number of steps in this run=     97 maximum allowed number of steps=    108.
 GradGradGradGradGradGradGradGradGradGradGradGradGradGradGradGradGradGrad

 Leave Link  103 at Fri Jul  9 19:19:32 2021, MaxMem=  4194304000 cpu:         0.1
 (Enter /home/minenky/programs//g09/l202.exe)
                          Input orientation:                          
 ---------------------------------------------------------------------
 Center     Atomic      Atomic             Coordinates (Angstroms)
 Number     Number       Type             X           Y           Z
 ---------------------------------------------------------------------
      1          6           0        0.238031    0.493508    0.000000
      2          6           0        0.239003   -0.221759    1.197322
      3          6           0        0.239003   -0.221759   -1.197322
      4          6           0        0.239003   -1.611161    1.200632
      5          6           0        0.239003   -1.611161   -1.200632
      6          6           0        0.238054   -2.311412    0.000000
      7          1           0        0.243410    0.317461    2.137649
      8          1           0        0.243410    0.317461   -2.137649
      9          1           0        0.243827   -2.147523    2.141150
     10          1           0        0.243827   -2.147523   -2.141150
     11          1           0        0.241226   -3.393724    0.000000
     12          6           0        0.186290    1.999256    0.000000
     13          6           0       -1.250766    2.533409    0.000000
     14          1           0        0.714524    2.381950   -0.876762
     15          1           0        0.714524    2.381950    0.876762
     16          1           0       -1.263967    3.625114    0.000000
     17          1           0       -1.793252    2.185653    0.881017
     18          1           0       -1.793252    2.185653   -0.881017
 ---------------------------------------------------------------------
                    Distance matrix (angstroms):
                    1          2          3          4          5
     1  C    0.000000
     2  C    1.394700   0.000000
     3  C    1.394700   2.394644   0.000000
     4  C    2.423046   1.389406   2.771393   0.000000
     5  C    2.423046   2.771393   1.389406   2.401264   0.000000
     6  C    2.804920   2.408367   2.408367   1.389917   1.389917
     7  H    2.144893   1.083971   3.378285   2.144202   3.855350
     8  H    2.144893   3.378285   1.083971   3.855350   2.144202
     9  H    3.399941   2.144622   3.854087   1.082720   3.384555
    10  H    3.399941   3.854087   2.144622   3.384555   1.082720
    11  H    3.887233   3.390420   3.390420   2.149198   2.149198
    12  C    1.506637   2.523741   2.523741   3.805182   3.805182
    13  C    2.525413   3.353199   3.353199   4.564908   4.564908
    14  H    2.135877   3.362625   2.666117   4.526215   4.034346
    15  H    2.135877   2.666117   3.362625   4.034346   4.526215
    16  H    3.473176   4.300108   4.300108   5.578442   5.578442
    17  H    2.786693   3.166345   3.774280   4.318334   4.783212
    18  H    2.786693   3.774280   3.166345   4.783212   4.318334
                    6          7          8          9         10
     6  C    0.000000
     7  H    3.388295   0.000000
     8  H    3.388295   4.275298   0.000000
     9  H    2.147421   2.464987   4.938043   0.000000
    10  H    2.147421   4.938043   2.464987   4.282300   0.000000
    11  H    1.082317   4.282808   4.282808   2.477407   2.477407
    12  C    4.310979   2.720522   2.720522   4.667291   4.667291
    13  C    5.068419   3.422357   3.422357   5.359987   5.359987
    14  H    4.798269   3.683848   2.464528   5.463101   4.726136
    15  H    4.798269   2.464528   3.683848   4.726136   5.463101
    16  H    6.123594   4.216906   4.216906   6.338872   6.338872
    17  H    5.012583   3.035994   4.092735   4.951166   5.662120
    18  H    5.012583   4.092735   3.035994   5.662120   4.951166
                   11         12         13         14         15
    11  H    0.000000
    12  C    5.393260   0.000000
    13  C    6.112033   1.533118   0.000000
    14  H    5.860984   1.092793   2.157317   0.000000
    15  H    5.860984   1.092793   2.157317   1.753524   0.000000
    16  H    7.178419   2.178683   1.091785   2.495715   2.495715
    17  H    6.003727   2.174746   1.091520   3.068755   2.515450
    18  H    6.003727   2.174746   1.091520   2.515450   3.068755
                   16         17         18
    16  H    0.000000
    17  H    1.768723   0.000000
    18  H    1.768723   1.762034   0.000000
 Stoichiometry    C8H10
 Framework group  CS[SG(C4H2),X(C4H8)]
 Deg. of freedom    27
 Full point group                 CS      NOp   2
 Largest Abelian subgroup         CS      NOp   2
 Largest concise Abelian subgroup CS      NOp   2
                         Standard orientation:                         
 ---------------------------------------------------------------------
 Center     Atomic      Atomic             Coordinates (Angstroms)
 Number     Number       Type             X           Y           Z
 ---------------------------------------------------------------------
      1          6           0        0.238031    0.493508    0.000000
      2          6           0        0.239003   -0.221759    1.197322
      3          6           0        0.239003   -0.221759   -1.197322
      4          6           0        0.239003   -1.611161    1.200632
      5          6           0        0.239003   -1.611161   -1.200632
      6          6           0        0.238054   -2.311412    0.000000
      7          1           0        0.243410    0.317461    2.137649
      8          1           0        0.243410    0.317461   -2.137649
      9          1           0        0.243827   -2.147523    2.141150
     10          1           0        0.243827   -2.147523   -2.141150
     11          1           0        0.241226   -3.393724    0.000000
     12          6           0        0.186290    1.999256    0.000000
     13          6           0       -1.250766    2.533409    0.000000
     14          1           0        0.714524    2.381950   -0.876762
     15          1           0        0.714524    2.381950    0.876762
     16          1           0       -1.263967    3.625114    0.000000
     17          1           0       -1.793252    2.185653    0.881017
     18          1           0       -1.793252    2.185653   -0.881017
 ---------------------------------------------------------------------
 Rotational constants (GHZ):      4.5591052      1.4722259      1.2220198
 Leave Link  202 at Fri Jul  9 19:19:32 2021, MaxMem=  4194304000 cpu:         0.0
 (Enter /home/minenky/programs//g09/l301.exe)
 Standard basis: def2TZVP (5D, 7F)
 ======================================================================================================
                                       Pseudopotential Parameters
 ======================================================================================================
  Center     Atomic      Valence      Angular      Power
  Number     Number     Electrons     Momentum     of R      Exponent        Coefficient   SO-Coeffient
 ======================================================================================================
    1          6
                                   No pseudopotential on this center.
    2          6
                                   No pseudopotential on this center.
    3          6
                                   No pseudopotential on this center.
    4          6
                                   No pseudopotential on this center.
    5          6
                                   No pseudopotential on this center.
    6          6
                                   No pseudopotential on this center.
    7          1
                                   No pseudopotential on this center.
    8          1
                                   No pseudopotential on this center.
    9          1
                                   No pseudopotential on this center.
   10          1
                                   No pseudopotential on this center.
   11          1
                                   No pseudopotential on this center.
   12          6
                                   No pseudopotential on this center.
   13          6
                                   No pseudopotential on this center.
   14          1
                                   No pseudopotential on this center.
   15          1
                                   No pseudopotential on this center.
   16          1
                                   No pseudopotential on this center.
   17          1
                                   No pseudopotential on this center.
   18          1
                                   No pseudopotential on this center.
 ======================================================================================================
 Ernie: Thresh=  0.10000D-02 Tol=  0.10000D-05 Strict=F.
 AO basis set (Overlap normalization):
 Atom C1       Shell     1 S   6     bf    1 -     1          0.449813303392          0.932595029551          0.000000000000
      0.1357534968D+05  0.6064550360D-03
      0.2035233368D+04  0.4697908888D-02
      0.4632256236D+03  0.2433247765D-01
      0.1312001960D+03  0.9739996831D-01
      0.4285301589D+02  0.3019558425D+00
      0.1558418577D+02  0.6623360914D+00
 Atom C1       Shell     2 S   2     bf    2 -     2          0.449813303392          0.932595029551          0.000000000000
      0.6206713851D+01  0.6559530854D+00
      0.2576489653D+01  0.3758563329D+00
 Atom C1       Shell     3 S   1     bf    3 -     3          0.449813303392          0.932595029551          0.000000000000
      0.5769633942D+00  0.1000000000D+01
 Atom C1       Shell     4 S   1     bf    4 -     4          0.449813303392          0.932595029551          0.000000000000
      0.2297283136D+00  0.1000000000D+01
 Atom C1       Shell     5 S   1     bf    5 -     5          0.449813303392          0.932595029551          0.000000000000
      0.9516444003D-01  0.1000000000D+01
 Atom C1       Shell     6 P   4     bf    6 -     8          0.449813303392          0.932595029551          0.000000000000
      0.3469723224D+02  0.1132722000D-01
      0.7958262283D+01  0.7616965920D-01
      0.2378082688D+01  0.3019225220D+00
      0.8143320818D+00  0.7278502735D+00
 Atom C1       Shell     7 P   1     bf    9 -    11          0.449813303392          0.932595029551          0.000000000000
      0.2888754725D+00  0.1000000000D+01
 Atom C1       Shell     8 P   1     bf   12 -    14          0.449813303392          0.932595029551          0.000000000000
      0.1005682367D+00  0.1000000000D+01
 Atom C1       Shell     9 D   1     bf   15 -    19          0.449813303392          0.932595029551          0.000000000000
      0.1097000000D+01  0.1000000000D+01
 Atom C1       Shell    10 D   1     bf   20 -    24          0.449813303392          0.932595029551          0.000000000000
      0.3180000000D+00  0.1000000000D+01
 Atom C1       Shell    11 F   1     bf   25 -    31          0.449813303392          0.932595029551          0.000000000000
      0.7610000000D+00  0.1000000000D+01
 Atom C2       Shell    12 S   6     bf   32 -    32          0.451650117194         -0.419063712340          2.262610672879
      0.1357534968D+05  0.6064550360D-03
      0.2035233368D+04  0.4697908888D-02
      0.4632256236D+03  0.2433247765D-01
      0.1312001960D+03  0.9739996831D-01
      0.4285301589D+02  0.3019558425D+00
      0.1558418577D+02  0.6623360914D+00
 Atom C2       Shell    13 S   2     bf   33 -    33          0.451650117194         -0.419063712340          2.262610672879
      0.6206713851D+01  0.6559530854D+00
      0.2576489653D+01  0.3758563329D+00
 Atom C2       Shell    14 S   1     bf   34 -    34          0.451650117194         -0.419063712340          2.262610672879
      0.5769633942D+00  0.1000000000D+01
 Atom C2       Shell    15 S   1     bf   35 -    35          0.451650117194         -0.419063712340          2.262610672879
      0.2297283136D+00  0.1000000000D+01
 Atom C2       Shell    16 S   1     bf   36 -    36          0.451650117194         -0.419063712340          2.262610672879
      0.9516444003D-01  0.1000000000D+01
 Atom C2       Shell    17 P   4     bf   37 -    39          0.451650117194         -0.419063712340          2.262610672879
      0.3469723224D+02  0.1132722000D-01
      0.7958262283D+01  0.7616965920D-01
      0.2378082688D+01  0.3019225220D+00
      0.8143320818D+00  0.7278502735D+00
 Atom C2       Shell    18 P   1     bf   40 -    42          0.451650117194         -0.419063712340          2.262610672879
      0.2888754725D+00  0.1000000000D+01
 Atom C2       Shell    19 P   1     bf   43 -    45          0.451650117194         -0.419063712340          2.262610672879
      0.1005682367D+00  0.1000000000D+01
 Atom C2       Shell    20 D   1     bf   46 -    50          0.451650117194         -0.419063712340          2.262610672879
      0.1097000000D+01  0.1000000000D+01
 Atom C2       Shell    21 D   1     bf   51 -    55          0.451650117194         -0.419063712340          2.262610672879
      0.3180000000D+00  0.1000000000D+01
 Atom C2       Shell    22 F   1     bf   56 -    62          0.451650117194         -0.419063712340          2.262610672879
      0.7610000000D+00  0.1000000000D+01
 Atom C3       Shell    23 S   6     bf   63 -    63          0.451650117194         -0.419063712340         -2.262610672879
      0.1357534968D+05  0.6064550360D-03
      0.2035233368D+04  0.4697908888D-02
      0.4632256236D+03  0.2433247765D-01
      0.1312001960D+03  0.9739996831D-01
      0.4285301589D+02  0.3019558425D+00
      0.1558418577D+02  0.6623360914D+00
 Atom C3       Shell    24 S   2     bf   64 -    64          0.451650117194         -0.419063712340         -2.262610672879
      0.6206713851D+01  0.6559530854D+00
      0.2576489653D+01  0.3758563329D+00
 Atom C3       Shell    25 S   1     bf   65 -    65          0.451650117194         -0.419063712340         -2.262610672879
      0.5769633942D+00  0.1000000000D+01
 Atom C3       Shell    26 S   1     bf   66 -    66          0.451650117194         -0.419063712340         -2.262610672879
      0.2297283136D+00  0.1000000000D+01
 Atom C3       Shell    27 S   1     bf   67 -    67          0.451650117194         -0.419063712340         -2.262610672879
      0.9516444003D-01  0.1000000000D+01
 Atom C3       Shell    28 P   4     bf   68 -    70          0.451650117194         -0.419063712340         -2.262610672879
      0.3469723224D+02  0.1132722000D-01
      0.7958262283D+01  0.7616965920D-01
      0.2378082688D+01  0.3019225220D+00
      0.8143320818D+00  0.7278502735D+00
 Atom C3       Shell    29 P   1     bf   71 -    73          0.451650117194         -0.419063712340         -2.262610672879
      0.2888754725D+00  0.1000000000D+01
 Atom C3       Shell    30 P   1     bf   74 -    76          0.451650117194         -0.419063712340         -2.262610672879
      0.1005682367D+00  0.1000000000D+01
 Atom C3       Shell    31 D   1     bf   77 -    81          0.451650117194         -0.419063712340         -2.262610672879
      0.1097000000D+01  0.1000000000D+01
 Atom C3       Shell    32 D   1     bf   82 -    86          0.451650117194         -0.419063712340         -2.262610672879
      0.3180000000D+00  0.1000000000D+01
 Atom C3       Shell    33 F   1     bf   87 -    93          0.451650117194         -0.419063712340         -2.262610672879
      0.7610000000D+00  0.1000000000D+01
 Atom C4       Shell    34 S   6     bf   94 -    94          0.451650117194         -3.044652980823          2.268865666379
      0.1357534968D+05  0.6064550360D-03
      0.2035233368D+04  0.4697908888D-02
      0.4632256236D+03  0.2433247765D-01
      0.1312001960D+03  0.9739996831D-01
      0.4285301589D+02  0.3019558425D+00
      0.1558418577D+02  0.6623360914D+00
 Atom C4       Shell    35 S   2     bf   95 -    95          0.451650117194         -3.044652980823          2.268865666379
      0.6206713851D+01  0.6559530854D+00
      0.2576489653D+01  0.3758563329D+00
 Atom C4       Shell    36 S   1     bf   96 -    96          0.451650117194         -3.044652980823          2.268865666379
      0.5769633942D+00  0.1000000000D+01
 Atom C4       Shell    37 S   1     bf   97 -    97          0.451650117194         -3.044652980823          2.268865666379
      0.2297283136D+00  0.1000000000D+01
 Atom C4       Shell    38 S   1     bf   98 -    98          0.451650117194         -3.044652980823          2.268865666379
      0.9516444003D-01  0.1000000000D+01
 Atom C4       Shell    39 P   4     bf   99 -   101          0.451650117194         -3.044652980823          2.268865666379
      0.3469723224D+02  0.1132722000D-01
      0.7958262283D+01  0.7616965920D-01
      0.2378082688D+01  0.3019225220D+00
      0.8143320818D+00  0.7278502735D+00
 Atom C4       Shell    40 P   1     bf  102 -   104          0.451650117194         -3.044652980823          2.268865666379
      0.2888754725D+00  0.1000000000D+01
 Atom C4       Shell    41 P   1     bf  105 -   107          0.451650117194         -3.044652980823          2.268865666379
      0.1005682367D+00  0.1000000000D+01
 Atom C4       Shell    42 D   1     bf  108 -   112          0.451650117194         -3.044652980823          2.268865666379
      0.1097000000D+01  0.1000000000D+01
 Atom C4       Shell    43 D   1     bf  113 -   117          0.451650117194         -3.044652980823          2.268865666379
      0.3180000000D+00  0.1000000000D+01
 Atom C4       Shell    44 F   1     bf  118 -   124          0.451650117194         -3.044652980823          2.268865666379
      0.7610000000D+00  0.1000000000D+01
 Atom C5       Shell    45 S   6     bf  125 -   125          0.451650117194         -3.044652980823         -2.268865666379
      0.1357534968D+05  0.6064550360D-03
      0.2035233368D+04  0.4697908888D-02
      0.4632256236D+03  0.2433247765D-01
      0.1312001960D+03  0.9739996831D-01
      0.4285301589D+02  0.3019558425D+00
      0.1558418577D+02  0.6623360914D+00
 Atom C5       Shell    46 S   2     bf  126 -   126          0.451650117194         -3.044652980823         -2.268865666379
      0.6206713851D+01  0.6559530854D+00
      0.2576489653D+01  0.3758563329D+00
 Atom C5       Shell    47 S   1     bf  127 -   127          0.451650117194         -3.044652980823         -2.268865666379
      0.5769633942D+00  0.1000000000D+01
 Atom C5       Shell    48 S   1     bf  128 -   128          0.451650117194         -3.044652980823         -2.268865666379
      0.2297283136D+00  0.1000000000D+01
 Atom C5       Shell    49 S   1     bf  129 -   129          0.451650117194         -3.044652980823         -2.268865666379
      0.9516444003D-01  0.1000000000D+01
 Atom C5       Shell    50 P   4     bf  130 -   132          0.451650117194         -3.044652980823         -2.268865666379
      0.3469723224D+02  0.1132722000D-01
      0.7958262283D+01  0.7616965920D-01
      0.2378082688D+01  0.3019225220D+00
      0.8143320818D+00  0.7278502735D+00
 Atom C5       Shell    51 P   1     bf  133 -   135          0.451650117194         -3.044652980823         -2.268865666379
      0.2888754725D+00  0.1000000000D+01
 Atom C5       Shell    52 P   1     bf  136 -   138          0.451650117194         -3.044652980823         -2.268865666379
      0.1005682367D+00  0.1000000000D+01
 Atom C5       Shell    53 D   1     bf  139 -   143          0.451650117194         -3.044652980823         -2.268865666379
      0.1097000000D+01  0.1000000000D+01
 Atom C5       Shell    54 D   1     bf  144 -   148          0.451650117194         -3.044652980823         -2.268865666379
      0.3180000000D+00  0.1000000000D+01
 Atom C5       Shell    55 F   1     bf  149 -   155          0.451650117194         -3.044652980823         -2.268865666379
      0.7610000000D+00  0.1000000000D+01
 Atom C6       Shell    56 S   6     bf  156 -   156          0.449856767094         -4.367935595102          0.000000000000
      0.1357534968D+05  0.6064550360D-03
      0.2035233368D+04  0.4697908888D-02
      0.4632256236D+03  0.2433247765D-01
      0.1312001960D+03  0.9739996831D-01
      0.4285301589D+02  0.3019558425D+00
      0.1558418577D+02  0.6623360914D+00
 Atom C6       Shell    57 S   2     bf  157 -   157          0.449856767094         -4.367935595102          0.000000000000
      0.6206713851D+01  0.6559530854D+00
      0.2576489653D+01  0.3758563329D+00
 Atom C6       Shell    58 S   1     bf  158 -   158          0.449856767094         -4.367935595102          0.000000000000
      0.5769633942D+00  0.1000000000D+01
 Atom C6       Shell    59 S   1     bf  159 -   159          0.449856767094         -4.367935595102          0.000000000000
      0.2297283136D+00  0.1000000000D+01
 Atom C6       Shell    60 S   1     bf  160 -   160          0.449856767094         -4.367935595102          0.000000000000
      0.9516444003D-01  0.1000000000D+01
 Atom C6       Shell    61 P   4     bf  161 -   163          0.449856767094         -4.367935595102          0.000000000000
      0.3469723224D+02  0.1132722000D-01
      0.7958262283D+01  0.7616965920D-01
      0.2378082688D+01  0.3019225220D+00
      0.8143320818D+00  0.7278502735D+00
 Atom C6       Shell    62 P   1     bf  164 -   166          0.449856767094         -4.367935595102          0.000000000000
      0.2888754725D+00  0.1000000000D+01
 Atom C6       Shell    63 P   1     bf  167 -   169          0.449856767094         -4.367935595102          0.000000000000
      0.1005682367D+00  0.1000000000D+01
 Atom C6       Shell    64 D   1     bf  170 -   174          0.449856767094         -4.367935595102          0.000000000000
      0.1097000000D+01  0.1000000000D+01
 Atom C6       Shell    65 D   1     bf  175 -   179          0.449856767094         -4.367935595102          0.000000000000
      0.3180000000D+00  0.1000000000D+01
 Atom C6       Shell    66 F   1     bf  180 -   186          0.449856767094         -4.367935595102          0.000000000000
      0.7610000000D+00  0.1000000000D+01
 Atom H7       Shell    67 S   3     bf  187 -   187          0.459978140261          0.599914413035          4.039571178237
      0.3406134100D+02  0.2543930721D-01
      0.5123574600D+01  0.1900859489D+00
      0.1164662600D+01  0.8524411301D+00
 Atom H7       Shell    68 S   1     bf  188 -   188          0.459978140261          0.599914413035          4.039571178237
      0.3272304100D+00  0.1000000000D+01
 Atom H7       Shell    69 S   1     bf  189 -   189          0.459978140261          0.599914413035          4.039571178237
      0.1030724100D+00  0.1000000000D+01
 Atom H7       Shell    70 P   1     bf  190 -   192          0.459978140261          0.599914413035          4.039571178237
      0.8000000000D+00  0.1000000000D+01
 Atom H8       Shell    71 S   3     bf  193 -   193          0.459978140261          0.599914413035         -4.039571178237
      0.3406134100D+02  0.2543930721D-01
      0.5123574600D+01  0.1900859489D+00
      0.1164662600D+01  0.8524411301D+00
 Atom H8       Shell    72 S   1     bf  194 -   194          0.459978140261          0.599914413035         -4.039571178237
      0.3272304100D+00  0.1000000000D+01
 Atom H8       Shell    73 S   1     bf  195 -   195          0.459978140261          0.599914413035         -4.039571178237
      0.1030724100D+00  0.1000000000D+01
 Atom H8       Shell    74 P   1     bf  196 -   198          0.459978140261          0.599914413035         -4.039571178237
      0.8000000000D+00  0.1000000000D+01
 Atom H9       Shell    75 S   3     bf  199 -   199          0.460766156059         -4.058230268910          4.046187109428
      0.3406134100D+02  0.2543930721D-01
      0.5123574600D+01  0.1900859489D+00
      0.1164662600D+01  0.8524411301D+00
 Atom H9       Shell    76 S   1     bf  200 -   200          0.460766156059         -4.058230268910          4.046187109428
      0.3272304100D+00  0.1000000000D+01
 Atom H9       Shell    77 S   1     bf  201 -   201          0.460766156059         -4.058230268910          4.046187109428
      0.1030724100D+00  0.1000000000D+01
 Atom H9       Shell    78 P   1     bf  202 -   204          0.460766156059         -4.058230268910          4.046187109428
      0.8000000000D+00  0.1000000000D+01
 Atom H10      Shell    79 S   3     bf  205 -   205          0.460766156059         -4.058230268910         -4.046187109428
      0.3406134100D+02  0.2543930721D-01
      0.5123574600D+01  0.1900859489D+00
      0.1164662600D+01  0.8524411301D+00
 Atom H10      Shell    80 S   1     bf  206 -   206          0.460766156059         -4.058230268910         -4.046187109428
      0.3272304100D+00  0.1000000000D+01
 Atom H10      Shell    81 S   1     bf  207 -   207          0.460766156059         -4.058230268910         -4.046187109428
      0.1030724100D+00  0.1000000000D+01
 Atom H10      Shell    82 P   1     bf  208 -   210          0.460766156059         -4.058230268910         -4.046187109428
      0.8000000000D+00  0.1000000000D+01
 Atom H11      Shell    83 S   3     bf  211 -   211          0.455850978387         -6.413208865438          0.000000000000
      0.3406134100D+02  0.2543930721D-01
      0.5123574600D+01  0.1900859489D+00
      0.1164662600D+01  0.8524411301D+00
 Atom H11      Shell    84 S   1     bf  212 -   212          0.455850978387         -6.413208865438          0.000000000000
      0.3272304100D+00  0.1000000000D+01
 Atom H11      Shell    85 S   1     bf  213 -   213          0.455850978387         -6.413208865438          0.000000000000
      0.1030724100D+00  0.1000000000D+01
 Atom H11      Shell    86 P   1     bf  214 -   216          0.455850978387         -6.413208865438          0.000000000000
      0.8000000000D+00  0.1000000000D+01
 Atom C12      Shell    87 S   6     bf  217 -   217          0.352036983551          3.778046374691          0.000000000000
      0.1357534968D+05  0.6064550360D-03
      0.2035233368D+04  0.4697908888D-02
      0.4632256236D+03  0.2433247765D-01
      0.1312001960D+03  0.9739996831D-01
      0.4285301589D+02  0.3019558425D+00
      0.1558418577D+02  0.6623360914D+00
 Atom C12      Shell    88 S   2     bf  218 -   218          0.352036983551          3.778046374691          0.000000000000
      0.6206713851D+01  0.6559530854D+00
      0.2576489653D+01  0.3758563329D+00
 Atom C12      Shell    89 S   1     bf  219 -   219          0.352036983551          3.778046374691          0.000000000000
      0.5769633942D+00  0.1000000000D+01
 Atom C12      Shell    90 S   1     bf  220 -   220          0.352036983551          3.778046374691          0.000000000000
      0.2297283136D+00  0.1000000000D+01
 Atom C12      Shell    91 S   1     bf  221 -   221          0.352036983551          3.778046374691          0.000000000000
      0.9516444003D-01  0.1000000000D+01
 Atom C12      Shell    92 P   4     bf  222 -   224          0.352036983551          3.778046374691          0.000000000000
      0.3469723224D+02  0.1132722000D-01
      0.7958262283D+01  0.7616965920D-01
      0.2378082688D+01  0.3019225220D+00
      0.8143320818D+00  0.7278502735D+00
 Atom C12      Shell    93 P   1     bf  225 -   227          0.352036983551          3.778046374691          0.000000000000
      0.2888754725D+00  0.1000000000D+01
 Atom C12      Shell    94 P   1     bf  228 -   230          0.352036983551          3.778046374691          0.000000000000
      0.1005682367D+00  0.1000000000D+01
 Atom C12      Shell    95 D   1     bf  231 -   235          0.352036983551          3.778046374691          0.000000000000
      0.1097000000D+01  0.1000000000D+01
 Atom C12      Shell    96 D   1     bf  236 -   240          0.352036983551          3.778046374691          0.000000000000
      0.3180000000D+00  0.1000000000D+01
 Atom C12      Shell    97 F   1     bf  241 -   247          0.352036983551          3.778046374691          0.000000000000
      0.7610000000D+00  0.1000000000D+01
 Atom C13      Shell    98 S   6     bf  248 -   248         -2.363605294069          4.787449257751          0.000000000000
      0.1357534968D+05  0.6064550360D-03
      0.2035233368D+04  0.4697908888D-02
      0.4632256236D+03  0.2433247765D-01
      0.1312001960D+03  0.9739996831D-01
      0.4285301589D+02  0.3019558425D+00
      0.1558418577D+02  0.6623360914D+00
 Atom C13      Shell    99 S   2     bf  249 -   249         -2.363605294069          4.787449257751          0.000000000000
      0.6206713851D+01  0.6559530854D+00
      0.2576489653D+01  0.3758563329D+00
 Atom C13      Shell   100 S   1     bf  250 -   250         -2.363605294069          4.787449257751          0.000000000000
      0.5769633942D+00  0.1000000000D+01
 Atom C13      Shell   101 S   1     bf  251 -   251         -2.363605294069          4.787449257751          0.000000000000
      0.2297283136D+00  0.1000000000D+01
 Atom C13      Shell   102 S   1     bf  252 -   252         -2.363605294069          4.787449257751          0.000000000000
      0.9516444003D-01  0.1000000000D+01
 Atom C13      Shell   103 P   4     bf  253 -   255         -2.363605294069          4.787449257751          0.000000000000
      0.3469723224D+02  0.1132722000D-01
      0.7958262283D+01  0.7616965920D-01
      0.2378082688D+01  0.3019225220D+00
      0.8143320818D+00  0.7278502735D+00
 Atom C13      Shell   104 P   1     bf  256 -   258         -2.363605294069          4.787449257751          0.000000000000
      0.2888754725D+00  0.1000000000D+01
 Atom C13      Shell   105 P   1     bf  259 -   261         -2.363605294069          4.787449257751          0.000000000000
      0.1005682367D+00  0.1000000000D+01
 Atom C13      Shell   106 D   1     bf  262 -   266         -2.363605294069          4.787449257751          0.000000000000
      0.1097000000D+01  0.1000000000D+01
 Atom C13      Shell   107 D   1     bf  267 -   271         -2.363605294069          4.787449257751          0.000000000000
      0.3180000000D+00  0.1000000000D+01
 Atom C13      Shell   108 F   1     bf  272 -   278         -2.363605294069          4.787449257751          0.000000000000
      0.7610000000D+00  0.1000000000D+01
 Atom H14      Shell   109 S   3     bf  279 -   279          1.350254577630          4.501233227390         -1.656840063721
      0.3406134100D+02  0.2543930721D-01
      0.5123574600D+01  0.1900859489D+00
      0.1164662600D+01  0.8524411301D+00
 Atom H14      Shell   110 S   1     bf  280 -   280          1.350254577630          4.501233227390         -1.656840063721
      0.3272304100D+00  0.1000000000D+01
 Atom H14      Shell   111 S   1     bf  281 -   281          1.350254577630          4.501233227390         -1.656840063721
      0.1030724100D+00  0.1000000000D+01
 Atom H14      Shell   112 P   1     bf  282 -   284          1.350254577630          4.501233227390         -1.656840063721
      0.8000000000D+00  0.1000000000D+01
 Atom H15      Shell   113 S   3     bf  285 -   285          1.350254577630          4.501233227390          1.656840063721
      0.3406134100D+02  0.2543930721D-01
      0.5123574600D+01  0.1900859489D+00
      0.1164662600D+01  0.8524411301D+00
 Atom H15      Shell   114 S   1     bf  286 -   286          1.350254577630          4.501233227390          1.656840063721
      0.3272304100D+00  0.1000000000D+01
 Atom H15      Shell   115 S   1     bf  287 -   287          1.350254577630          4.501233227390          1.656840063721
      0.1030724100D+00  0.1000000000D+01
 Atom H15      Shell   116 P   1     bf  288 -   290          1.350254577630          4.501233227390          1.656840063721
      0.8000000000D+00  0.1000000000D+01
 Atom H16      Shell   117 S   3     bf  291 -   291         -2.388551568750          6.850472725653          0.000000000000
      0.3406134100D+02  0.2543930721D-01
      0.5123574600D+01  0.1900859489D+00
      0.1164662600D+01  0.8524411301D+00
 Atom H16      Shell   118 S   1     bf  292 -   292         -2.388551568750          6.850472725653          0.000000000000
      0.3272304100D+00  0.1000000000D+01
 Atom H16      Shell   119 S   1     bf  293 -   293         -2.388551568750          6.850472725653          0.000000000000
      0.1030724100D+00  0.1000000000D+01
 Atom H16      Shell   120 P   1     bf  294 -   296         -2.388551568750          6.850472725653          0.000000000000
      0.8000000000D+00  0.1000000000D+01
 Atom H17      Shell   121 S   3     bf  297 -   297         -3.388755264994          4.130285656683          1.664880848417
      0.3406134100D+02  0.2543930721D-01
      0.5123574600D+01  0.1900859489D+00
      0.1164662600D+01  0.8524411301D+00
 Atom H17      Shell   122 S   1     bf  298 -   298         -3.388755264994          4.130285656683          1.664880848417
      0.3272304100D+00  0.1000000000D+01
 Atom H17      Shell   123 S   1     bf  299 -   299         -3.388755264994          4.130285656683          1.664880848417
      0.1030724100D+00  0.1000000000D+01
 Atom H17      Shell   124 P   1     bf  300 -   302         -3.388755264994          4.130285656683          1.664880848417
      0.8000000000D+00  0.1000000000D+01
 Atom H18      Shell   125 S   3     bf  303 -   303         -3.388755264994          4.130285656683         -1.664880848417
      0.3406134100D+02  0.2543930721D-01
      0.5123574600D+01  0.1900859489D+00
      0.1164662600D+01  0.8524411301D+00
 Atom H18      Shell   126 S   1     bf  304 -   304         -3.388755264994          4.130285656683         -1.664880848417
      0.3272304100D+00  0.1000000000D+01
 Atom H18      Shell   127 S   1     bf  305 -   305         -3.388755264994          4.130285656683         -1.664880848417
      0.1030724100D+00  0.1000000000D+01
 Atom H18      Shell   128 P   1     bf  306 -   308         -3.388755264994          4.130285656683         -1.664880848417
      0.8000000000D+00  0.1000000000D+01
 There are   206 symmetry adapted cartesian basis functions of A'  symmetry.
 There are   142 symmetry adapted cartesian basis functions of A"  symmetry.
 There are   180 symmetry adapted basis functions of A'  symmetry.
 There are   128 symmetry adapted basis functions of A"  symmetry.
   308 basis functions,   488 primitive gaussians,   348 cartesian basis functions
    29 alpha electrons       29 beta electrons
       nuclear repulsion energy       340.9398480154 Hartrees.
 IExCor= 4639 DFT=T Ex+Corr=wB97XD ExCW=0 ScaHFX=  1.000000
 ScaDFX=  1.000000  1.000000  1.000000  1.000000 ScalE2=  1.000000  1.000000
 IRadAn=      5 IRanWt=     -1 IRanGd=            0 ICorTp=0 IEmpDi=121
  HFx wShort=  0.000000 wLong=  0.200000 cFull=  0.222036 cShort=  0.000000 cLong=  0.777964
  DFx wShort=  0.000000 wLong=  0.200000 cFull=  0.000000 cShort=  0.000000 cLong=  1.000000
 NAtoms=   18 NActive=   18 NUniq=   12 SFac= 2.25D+00 NAtFMM=   60 NAOKFM=F Big=F
 Integral buffers will be    131072 words long.
 Raffenetti 2 integral format.
 Two-electron integral symmetry is turned on.
 R6Disp:  Grimme-D2 Dispersion energy=       -0.0091793564 Hartrees.
 Nuclear repulsion after empirical dispersion term =      340.9306686591 Hartrees.
 Leave Link  301 at Fri Jul  9 19:19:32 2021, MaxMem=  4194304000 cpu:         1.1
 (Enter /home/minenky/programs//g09/l302.exe)
 NPDir=0 NMtPBC=     1 NCelOv=     1 NCel=       1 NClECP=     1 NCelD=      1
         NCelK=      1 NCelE2=     1 NClLst=     1 CellRange=     0.0.
 One-electron integrals computed using PRISM.
 One-electron integral symmetry used in STVInt
   2 Symmetry operations used in ECPInt.
 ECPInt:  NShTT=    8256 NPrTT=   24516 LenC2=    8077 LenP2D=   19307.
 LDataN:  DoStor=T MaxTD1= 6 Len=  172
 NBasis=   308 RedAO= T EigKep=  7.04D-06  NBF=   180   128
 NBsUse=   308 1.00D-06 EigRej= -1.00D+00 NBFU=   180   128
 Precomputing XC quadrature grid using
 IXCGrd= 4 IRadAn=           5 IRanWt=          -1 IRanGd=           0 AccXCQ= 0.00D+00.
 Generated NRdTot=       0 NPtTot=           0 NUsed=           0 NTot=          32
 NSgBfM=   347   347   347   347   347 MxSgAt=    18 MxSgA2=    18.
 Leave Link  302 at Fri Jul  9 19:19:33 2021, MaxMem=  4194304000 cpu:         5.8
 (Enter /home/minenky/programs//g09/l303.exe)
 DipDrv:  MaxL=1.
 Leave Link  303 at Fri Jul  9 19:19:33 2021, MaxMem=  4194304000 cpu:         0.7
 (Enter /home/minenky/programs//g09/l401.exe)
 ExpMin= 9.52D-02 ExpMax= 1.36D+04 ExpMxC= 4.63D+02 IAcc=3 IRadAn=         5 AccDes= 0.00D+00
 Harris functional with IExCor= 4639 and IRadAn=       5 diagonalized for initial guess.
 HarFok:  IExCor= 4639 AccDes= 0.00D+00 IRadAn=         5 IDoV= 1 UseB2=F ITyADJ=14
 ICtDFT=  3500011 ScaDFX=  1.000000  1.000000  1.000000  1.000000
 FoFCou: FMM=F IPFlag=           0 FMFlag=      100000 FMFlg1=           0
         NFxFlg=           0 DoJE=T BraDBF=F KetDBF=T FulRan=T
         wScrn=  0.000000 ICntrl=     500 IOpCl=  0 I1Cent=   200000004 NGrid=           0
         NMat0=    1 NMatS0=      1 NMatT0=    0 NMatD0=    1 NMtDS0=    0 NMtDT0=    0
 Petite list used in FoFCou.
 Harris En= -296.174332830615    
 JPrj=0 DoOrth=F DoCkMO=F.
 Initial guess orbital symmetries:
       Occupied  (A') (A') (A') (A") (A') (A") (A') (A') (A') (A')
                 (A") (A') (A') (A") (A') (A') (A") (A') (A") (A')
                 (A") (A') (A') (A') (A") (A') (A") (A") (A')
       Virtual   (A") (A') (A') (A') (A") (A') (A') (A") (A') (A')
                 (A") (A') (A") (A') (A') (A') (A') (A") (A') (A")
                 (A") (A') (A") (A') (A") (A') (A') (A") (A') (A")
                 (A') (A') (A") (A') (A') (A') (A") (A') (A') (A")
                 (A') (A') (A") (A') (A") (A') (A") (A') (A') (A")
                 (A") (A') (A') (A') (A") (A') (A") (A') (A") (A")
                 (A') (A') (A') (A") (A") (A') (A") (A') (A') (A")
                 (A') (A') (A") (A') (A") (A') (A') (A") (A') (A")
                 (A') (A') (A") (A') (A") (A') (A") (A') (A') (A")
                 (A") (A') (A') (A") (A') (A") (A') (A') (A') (A')
                 (A") (A") (A') (A") (A') (A") (A') (A") (A") (A')
                 (A') (A") (A') (A') (A") (A') (A') (A') (A") (A")
                 (A") (A') (A') (A") (A') (A') (A') (A") (A") (A")
                 (A') (A') (A") (A') (A") (A') (A') (A") (A") (A')
                 (A') (A') (A") (A') (A") (A') (A") (A') (A') (A")
                 (A') (A") (A") (A') (A') (A") (A') (A") (A') (A')
                 (A') (A") (A") (A') (A") (A') (A") (A') (A") (A")
                 (A') (A') (A') (A') (A") (A') (A') (A") (A') (A")
                 (A') (A') (A") (A') (A') (A") (A') (A') (A") (A')
                 (A') (A") (A") (A') (A") (A') (A") (A') (A') (A")
                 (A") (A') (A") (A') (A') (A") (A') (A") (A') (A")
                 (A') (A") (A") (A") (A") (A") (A') (A') (A") (A')
                 (A") (A') (A') (A") (A') (A") (A') (A") (A') (A")
                 (A") (A') (A') (A") (A') (A') (A") (A') (A") (A')
                 (A') (A') (A") (A') (A') (A") (A") (A") (A') (A')
                 (A') (A") (A') (A') (A') (A") (A") (A') (A") (A')
                 (A') (A") (A') (A") (A') (A') (A") (A') (A") (A')
                 (A") (A') (A') (A') (A") (A') (A") (A') (A')
 The electronic state of the initial guess is 1-A'.
 Leave Link  401 at Fri Jul  9 19:19:35 2021, MaxMem=  4194304000 cpu:        21.1
 (Enter /home/minenky/programs//g09/l502.exe)
 Closed shell SCF:
 Using DIIS extrapolation, IDIIS=  1040.
 Integral symmetry usage will be decided dynamically.
 Keep R1 ints in memory in symmetry-blocked form, NReq=3398488442.
 IVT=      519706 IEndB=      519706 NGot=  4194304000 MDV=  3626988500
 LenX=  3626988500 LenY=  3626866955
 Requested convergence on RMS density matrix=1.00D-08 within 380 cycles.
 Requested convergence on MAX density matrix=1.00D-06.
 Requested convergence on             energy=1.00D-06.
 No special actions if energy rises.
 FoFCou: FMM=F IPFlag=           0 FMFlag=           0 FMFlg1=           0
         NFxFlg=           0 DoJE=F BraDBF=F KetDBF=F FulRan=T
         wScrn=  0.000000 ICntrl=     600 IOpCl=  0 I1Cent=           0 NGrid=           0
         NMat0=    1 NMatS0=  47586 NMatT0=    0 NMatD0=    1 NMtDS0=    0 NMtDT0=    0
 Petite list used in FoFCou.
 Integral accuracy reduced to 1.0D-05 until final iterations.

 Cycle   1  Pass 0  IDiag  1:
 E= -310.797385626942    
 DIIS: error= 5.36D-02 at cycle   1 NSaved=   1.
 NSaved= 1 IEnMin= 1 EnMin= -310.797385626942     IErMin= 1 ErrMin= 5.36D-02
 ErrMax= 5.36D-02  0.00D+00 EMaxC= 1.00D-01 BMatC= 6.61D-01 BMatP= 6.61D-01
 IDIUse=3 WtCom= 4.64D-01 WtEn= 5.36D-01
 Coeff-Com:  0.100D+01
 Coeff-En:   0.100D+01
 Coeff:      0.100D+01
 Gap=     0.376 Goal=   None    Shift=    0.000
 GapD=    0.376 DampG=1.000 DampE=0.500 DampFc=0.5000 IDamp=-1.
 Damping current iteration by 5.00D-01
 RMSDP=1.32D-03 MaxDP=5.90D-02              OVMax= 4.69D-02

 Cycle   2  Pass 0  IDiag  1:
 E= -310.840927963043     Delta-E=       -0.043542336101 Rises=F Damp=T
 DIIS: error= 2.60D-02 at cycle   2 NSaved=   2.
 NSaved= 2 IEnMin= 2 EnMin= -310.840927963043     IErMin= 2 ErrMin= 2.60D-02
 ErrMax= 2.60D-02  0.00D+00 EMaxC= 1.00D-01 BMatC= 1.49D-01 BMatP= 6.61D-01
 IDIUse=3 WtCom= 7.40D-01 WtEn= 2.60D-01
 Coeff-Com: -0.858D+00 0.186D+01
 Coeff-En:   0.000D+00 0.100D+01
 Coeff:     -0.635D+00 0.163D+01
 Gap=     0.381 Goal=   None    Shift=    0.000
 RMSDP=7.39D-04 MaxDP=3.79D-02 DE=-4.35D-02 OVMax= 2.44D-02

 Cycle   3  Pass 0  IDiag  1:
 E= -310.879724491061     Delta-E=       -0.038796528018 Rises=F Damp=F
 DIIS: error= 2.68D-03 at cycle   3 NSaved=   3.
 NSaved= 3 IEnMin= 3 EnMin= -310.879724491061     IErMin= 3 ErrMin= 2.68D-03
 ErrMax= 2.68D-03  0.00D+00 EMaxC= 1.00D-01 BMatC= 2.94D-03 BMatP= 1.49D-01
 IDIUse=3 WtCom= 9.73D-01 WtEn= 2.68D-02
 Coeff-Com: -0.303D+00 0.652D+00 0.651D+00
 Coeff-En:   0.000D+00 0.000D+00 0.100D+01
 Coeff:     -0.295D+00 0.635D+00 0.660D+00
 Gap=     0.379 Goal=   None    Shift=    0.000
 RMSDP=1.22D-04 MaxDP=4.83D-03 DE=-3.88D-02 OVMax= 8.41D-03

 Cycle   4  Pass 0  IDiag  1:
 E= -310.882357214086     Delta-E=       -0.002632723024 Rises=F Damp=F
 DIIS: error= 3.30D-04 at cycle   4 NSaved=   4.
 NSaved= 4 IEnMin= 4 EnMin= -310.882357214086     IErMin= 4 ErrMin= 3.30D-04
 ErrMax= 3.30D-04  0.00D+00 EMaxC= 1.00D-01 BMatC= 2.10D-05 BMatP= 2.94D-03
 IDIUse=3 WtCom= 9.97D-01 WtEn= 3.30D-03
 Coeff-Com: -0.194D-01 0.421D-01 0.790D-01 0.898D+00
 Coeff-En:   0.000D+00 0.000D+00 0.000D+00 0.100D+01
 Coeff:     -0.193D-01 0.419D-01 0.788D-01 0.899D+00
 Gap=     0.378 Goal=   None    Shift=    0.000
 RMSDP=3.58D-05 MaxDP=7.97D-04 DE=-2.63D-03 OVMax= 2.11D-03

 Cycle   5  Pass 0  IDiag  1:
 E= -310.882370256277     Delta-E=       -0.000013042191 Rises=F Damp=F
 DIIS: error= 2.50D-04 at cycle   5 NSaved=   5.
 NSaved= 5 IEnMin= 5 EnMin= -310.882370256277     IErMin= 5 ErrMin= 2.50D-04
 ErrMax= 2.50D-04  0.00D+00 EMaxC= 1.00D-01 BMatC= 1.16D-05 BMatP= 2.10D-05
 IDIUse=3 WtCom= 9.97D-01 WtEn= 2.50D-03
 Coeff-Com:  0.270D-01-0.581D-01-0.391D-01 0.470D+00 0.601D+00
 Coeff-En:   0.000D+00 0.000D+00 0.000D+00 0.263D+00 0.737D+00
 Coeff:      0.269D-01-0.580D-01-0.390D-01 0.469D+00 0.601D+00
 Gap=     0.378 Goal=   None    Shift=    0.000
 RMSDP=1.37D-05 MaxDP=3.02D-04 DE=-1.30D-05 OVMax= 1.40D-03

 Cycle   6  Pass 0  IDiag  1:
 E= -310.882382693441     Delta-E=       -0.000012437164 Rises=F Damp=F
 DIIS: error= 3.27D-05 at cycle   6 NSaved=   6.
 NSaved= 6 IEnMin= 6 EnMin= -310.882382693441     IErMin= 6 ErrMin= 3.27D-05
 ErrMax= 3.27D-05  0.00D+00 EMaxC= 1.00D-01 BMatC= 2.17D-07 BMatP= 1.16D-05
 IDIUse=1 WtCom= 1.00D+00 WtEn= 0.00D+00
 Coeff-Com:  0.904D-02-0.195D-01-0.156D-01 0.870D-01 0.171D+00 0.767D+00
 Coeff:      0.904D-02-0.195D-01-0.156D-01 0.870D-01 0.171D+00 0.767D+00
 Gap=     0.378 Goal=   None    Shift=    0.000
 RMSDP=3.66D-06 MaxDP=9.69D-05 DE=-1.24D-05 OVMax= 1.50D-04

 Initial convergence to 1.0D-05 achieved.  Increase integral accuracy.
 Cycle   7  Pass 1  IDiag  1:
 E= -310.882472735966     Delta-E=       -0.000090042525 Rises=F Damp=F
 DIIS: error= 3.71D-05 at cycle   1 NSaved=   1.
 NSaved= 1 IEnMin= 1 EnMin= -310.882472735966     IErMin= 1 ErrMin= 3.71D-05
 ErrMax= 3.71D-05  0.00D+00 EMaxC= 1.00D-01 BMatC= 4.83D-07 BMatP= 4.83D-07
 IDIUse=1 WtCom= 1.00D+00 WtEn= 0.00D+00
 Coeff-Com:  0.100D+01
 Coeff:      0.100D+01
 Gap=     0.378 Goal=   None    Shift=    0.000
 RMSDP=3.66D-06 MaxDP=9.69D-05 DE=-9.00D-05 OVMax= 1.03D-04

 Cycle   8  Pass 1  IDiag  1:
 E= -310.882473038960     Delta-E=       -0.000000302994 Rises=F Damp=F
 DIIS: error= 7.23D-06 at cycle   2 NSaved=   2.
 NSaved= 2 IEnMin= 2 EnMin= -310.882473038960     IErMin= 2 ErrMin= 7.23D-06
 ErrMax= 7.23D-06  0.00D+00 EMaxC= 1.00D-01 BMatC= 1.73D-08 BMatP= 4.83D-07
 IDIUse=1 WtCom= 1.00D+00 WtEn= 0.00D+00
 Coeff-Com: -0.764D-02 0.101D+01
 Coeff:     -0.764D-02 0.101D+01
 Gap=     0.378 Goal=   None    Shift=    0.000
 RMSDP=7.56D-07 MaxDP=1.71D-05 DE=-3.03D-07 OVMax= 5.69D-05

 Cycle   9  Pass 1  IDiag  1:
 E= -310.882473045909     Delta-E=       -0.000000006949 Rises=F Damp=F
 DIIS: error= 6.96D-06 at cycle   3 NSaved=   3.
 NSaved= 3 IEnMin= 3 EnMin= -310.882473045909     IErMin= 3 ErrMin= 6.96D-06
 ErrMax= 6.96D-06  0.00D+00 EMaxC= 1.00D-01 BMatC= 1.20D-08 BMatP= 1.73D-08
 IDIUse=1 WtCom= 1.00D+00 WtEn= 0.00D+00
 Coeff-Com: -0.389D-01 0.470D+00 0.569D+00
 Coeff:     -0.389D-01 0.470D+00 0.569D+00
 Gap=     0.378 Goal=   None    Shift=    0.000
 RMSDP=2.56D-07 MaxDP=8.85D-06 DE=-6.95D-09 OVMax= 4.22D-05

 Cycle  10  Pass 1  IDiag  1:
 E= -310.882473057504     Delta-E=       -0.000000011595 Rises=F Damp=F
 DIIS: error= 1.62D-06 at cycle   4 NSaved=   4.
 NSaved= 4 IEnMin= 4 EnMin= -310.882473057504     IErMin= 4 ErrMin= 1.62D-06
 ErrMax= 1.62D-06  0.00D+00 EMaxC= 1.00D-01 BMatC= 3.34D-10 BMatP= 1.20D-08
 IDIUse=1 WtCom= 1.00D+00 WtEn= 0.00D+00
 Coeff-Com: -0.126D-01 0.112D+00 0.192D+00 0.708D+00
 Coeff:     -0.126D-01 0.112D+00 0.192D+00 0.708D+00
 Gap=     0.378 Goal=   None    Shift=    0.000
 RMSDP=8.17D-08 MaxDP=1.63D-06 DE=-1.16D-08 OVMax= 9.33D-06

 Cycle  11  Pass 1  IDiag  1:
 E= -310.882473057870     Delta-E=       -0.000000000366 Rises=F Damp=F
 DIIS: error= 4.95D-07 at cycle   5 NSaved=   5.
 NSaved= 5 IEnMin= 5 EnMin= -310.882473057870     IErMin= 5 ErrMin= 4.95D-07
 ErrMax= 4.95D-07  0.00D+00 EMaxC= 1.00D-01 BMatC= 5.18D-11 BMatP= 3.34D-10
 IDIUse=1 WtCom= 1.00D+00 WtEn= 0.00D+00
 Coeff-Com:  0.315D-02-0.526D-01-0.390D-01 0.257D+00 0.831D+00
 Coeff:      0.315D-02-0.526D-01-0.390D-01 0.257D+00 0.831D+00
 Gap=     0.378 Goal=   None    Shift=    0.000
 RMSDP=4.67D-08 MaxDP=1.22D-06 DE=-3.66D-10 OVMax= 5.72D-06

 Cycle  12  Pass 1  IDiag  1:
 E= -310.882473057959     Delta-E=       -0.000000000089 Rises=F Damp=F
 DIIS: error= 1.02D-07 at cycle   6 NSaved=   6.
 NSaved= 6 IEnMin= 6 EnMin= -310.882473057959     IErMin= 6 ErrMin= 1.02D-07
 ErrMax= 1.02D-07  0.00D+00 EMaxC= 1.00D-01 BMatC= 2.55D-12 BMatP= 5.18D-11
 IDIUse=1 WtCom= 1.00D+00 WtEn= 0.00D+00
 Coeff-Com:  0.140D-02-0.172D-01-0.186D-01-0.780D-02 0.143D+00 0.899D+00
 Coeff:      0.140D-02-0.172D-01-0.186D-01-0.780D-02 0.143D+00 0.899D+00
 Gap=     0.378 Goal=   None    Shift=    0.000
 RMSDP=1.48D-08 MaxDP=3.61D-07 DE=-8.87D-11 OVMax= 1.48D-06

 Cycle  13  Pass 1  IDiag  1:
 E= -310.882473057975     Delta-E=       -0.000000000016 Rises=F Damp=F
 DIIS: error= 4.52D-08 at cycle   7 NSaved=   7.
 NSaved= 7 IEnMin= 7 EnMin= -310.882473057975     IErMin= 7 ErrMin= 4.52D-08
 ErrMax= 4.52D-08  0.00D+00 EMaxC= 1.00D-01 BMatC= 3.51D-13 BMatP= 2.55D-12
 IDIUse=1 WtCom= 1.00D+00 WtEn= 0.00D+00
 Coeff-Com: -0.149D-03 0.379D-02 0.260D-02-0.357D-01-0.760D-01 0.162D+00
 Coeff-Com:  0.944D+00
 Coeff:     -0.149D-03 0.379D-02 0.260D-02-0.357D-01-0.760D-01 0.162D+00
 Coeff:      0.944D+00
 Gap=     0.378 Goal=   None    Shift=    0.000
 RMSDP=5.61D-09 MaxDP=1.50D-07 DE=-1.64D-11 OVMax= 7.58D-07

 SCF Done:  E(RwB97XD) =  -310.882473058     A.U. after   13 cycles
            NFock= 13  Conv=0.56D-08     -V/T= 2.0054
 KE= 3.092197328796D+02 PE=-1.402249860867D+03 EE= 4.412169862705D+02
 Leave Link  502 at Fri Jul  9 19:20:09 2021, MaxMem=  4194304000 cpu:       439.8
 (Enter /home/minenky/programs//g09/l601.exe)
 Copying SCF densities to generalized density rwf, IOpCl= 0 IROHF=0.

 **********************************************************************

            Population analysis using the SCF density.

 **********************************************************************

 Orbital symmetries:
       Occupied  (A') (A') (A") (A') (A') (A") (A') (A') (A') (A')
                 (A") (A') (A') (A") (A') (A') (A") (A') (A') (A")
                 (A") (A') (A') (A') (A") (A") (A') (A") (A')
       Virtual   (A") (A') (A') (A') (A") (A') (A') (A") (A') (A')
                 (A") (A") (A') (A') (A') (A') (A') (A") (A') (A")
                 (A") (A') (A") (A') (A") (A') (A') (A") (A') (A")
                 (A') (A') (A") (A') (A') (A') (A") (A") (A') (A')
                 (A') (A') (A") (A') (A") (A') (A') (A") (A") (A')
                 (A') (A") (A') (A') (A") (A') (A") (A') (A") (A')
                 (A") (A') (A') (A") (A") (A') (A") (A') (A') (A")
                 (A') (A') (A') (A") (A") (A') (A') (A") (A") (A')
                 (A') (A') (A") (A') (A") (A') (A") (A') (A') (A")
                 (A') (A") (A') (A") (A') (A") (A') (A') (A') (A")
                 (A') (A") (A') (A") (A') (A") (A') (A") (A') (A")
                 (A') (A") (A') (A") (A') (A') (A') (A') (A") (A")
                 (A") (A') (A') (A") (A') (A') (A") (A') (A") (A')
                 (A") (A') (A") (A') (A") (A') (A') (A") (A") (A')
                 (A') (A') (A") (A') (A") (A") (A') (A') (A') (A")
                 (A') (A") (A') (A") (A') (A") (A') (A") (A') (A')
                 (A') (A") (A") (A") (A') (A') (A") (A') (A") (A")
                 (A') (A') (A') (A') (A") (A') (A') (A") (A') (A")
                 (A') (A') (A") (A') (A') (A") (A') (A') (A") (A')
                 (A') (A") (A") (A') (A") (A') (A") (A') (A') (A")
                 (A") (A') (A") (A') (A') (A") (A') (A") (A') (A")
                 (A') (A") (A") (A") (A") (A') (A") (A') (A') (A")
                 (A") (A') (A') (A") (A") (A') (A') (A") (A') (A")
                 (A") (A') (A') (A") (A') (A') (A") (A') (A") (A')
                 (A') (A') (A") (A') (A') (A") (A") (A") (A') (A')
                 (A') (A") (A') (A') (A') (A") (A") (A') (A") (A')
                 (A') (A") (A') (A") (A') (A') (A") (A') (A") (A')
                 (A") (A') (A') (A') (A") (A') (A") (A') (A')
 The electronic state is 1-A'.
 Alpha  occ. eigenvalues --  -10.29222 -10.28505 -10.28499 -10.28475 -10.28281
 Alpha  occ. eigenvalues --  -10.28248 -10.28244 -10.27329  -0.96027  -0.88786
 Alpha  occ. eigenvalues --   -0.84345  -0.82069  -0.72867  -0.69901  -0.66935
 Alpha  occ. eigenvalues --   -0.60187  -0.55650  -0.54596  -0.51655  -0.50881
 Alpha  occ. eigenvalues --   -0.50058  -0.48226  -0.45702  -0.44000  -0.43381
 Alpha  occ. eigenvalues --   -0.41343  -0.41101  -0.32943  -0.31938
 Alpha virt. eigenvalues --    0.05907   0.06051   0.11584   0.13711   0.14666
 Alpha virt. eigenvalues --    0.15732   0.17220   0.17704   0.18861   0.19680
 Alpha virt. eigenvalues --    0.20354   0.21883   0.22229   0.22861   0.25294
 Alpha virt. eigenvalues --    0.27126   0.27727   0.29136   0.29514   0.30673
 Alpha virt. eigenvalues --    0.31358   0.31967   0.32251   0.33435   0.34140
 Alpha virt. eigenvalues --    0.36183   0.38062   0.38901   0.40105   0.41484
 Alpha virt. eigenvalues --    0.42496   0.42774   0.44116   0.44747   0.45016
 Alpha virt. eigenvalues --    0.48564   0.48589   0.49567   0.49580   0.49940
 Alpha virt. eigenvalues --    0.50109   0.51249   0.51579   0.52963   0.53639
 Alpha virt. eigenvalues --    0.54850   0.57798   0.57986   0.59068   0.59270
 Alpha virt. eigenvalues --    0.60150   0.60885   0.63084   0.64987   0.67395
 Alpha virt. eigenvalues --    0.70207   0.73265   0.73464   0.74465   0.76370
 Alpha virt. eigenvalues --    0.77308   0.78938   0.80915   0.83169   0.83771
 Alpha virt. eigenvalues --    0.87805   0.88097   0.88856   0.92108   0.93202
 Alpha virt. eigenvalues --    0.93470   0.95450   0.98199   0.98881   1.01317
 Alpha virt. eigenvalues --    1.02128   1.08096   1.09533   1.09590   1.10222
 Alpha virt. eigenvalues --    1.13437   1.15874   1.16712   1.19973   1.21197
 Alpha virt. eigenvalues --    1.25801   1.26251   1.27611   1.29895   1.30203
 Alpha virt. eigenvalues --    1.32308   1.32932   1.33967   1.37710   1.38450
 Alpha virt. eigenvalues --    1.38636   1.40300   1.46481   1.48154   1.53299
 Alpha virt. eigenvalues --    1.53354   1.54202   1.55877   1.58449   1.59573
 Alpha virt. eigenvalues --    1.61649   1.64310   1.64483   1.64980   1.65459
 Alpha virt. eigenvalues --    1.68353   1.69640   1.71735   1.72233   1.72980
 Alpha virt. eigenvalues --    1.77029   1.78678   1.79016   1.79443   1.81245
 Alpha virt. eigenvalues --    1.84146   1.85801   1.87661   1.88524   1.93927
 Alpha virt. eigenvalues --    1.96561   1.99389   2.00872   2.02972   2.05823
 Alpha virt. eigenvalues --    2.06107   2.10059   2.13714   2.15633   2.17544
 Alpha virt. eigenvalues --    2.20156   2.23382   2.25046   2.26417   2.29006
 Alpha virt. eigenvalues --    2.31056   2.33867   2.34178   2.38234   2.41041
 Alpha virt. eigenvalues --    2.42638   2.42729   2.45835   2.48717   2.50924
 Alpha virt. eigenvalues --    2.55212   2.56607   2.60619   2.61422   2.61583
 Alpha virt. eigenvalues --    2.64556   2.65832   2.67928   2.69723   2.70581
 Alpha virt. eigenvalues --    2.71916   2.73523   2.75368   2.76338   2.76789
 Alpha virt. eigenvalues --    2.76964   2.77600   2.78612   2.80179   2.84322
 Alpha virt. eigenvalues --    2.85525   2.86709   2.87287   2.88374   2.89094
 Alpha virt. eigenvalues --    2.91954   2.92445   2.94296   2.95612   2.97964
 Alpha virt. eigenvalues --    3.00152   3.04728   3.05611   3.07374   3.10452
 Alpha virt. eigenvalues --    3.12746   3.13440   3.17323   3.17717   3.19816
 Alpha virt. eigenvalues --    3.20760   3.22685   3.23460   3.24052   3.26447
 Alpha virt. eigenvalues --    3.27214   3.28864   3.31111   3.33828   3.34196
 Alpha virt. eigenvalues --    3.35053   3.35109   3.37429   3.37947   3.42435
 Alpha virt. eigenvalues --    3.43312   3.44285   3.47070   3.47248   3.49009
 Alpha virt. eigenvalues --    3.52095   3.52389   3.53758   3.55926   3.59072
 Alpha virt. eigenvalues --    3.60426   3.61353   3.61599   3.63339   3.63406
 Alpha virt. eigenvalues --    3.68172   3.68456   3.76763   3.77690   3.79177
 Alpha virt. eigenvalues --    3.79236   3.87361   3.88918   3.91150   3.92043
 Alpha virt. eigenvalues --    3.97475   4.00506   4.01827   4.03720   4.06926
 Alpha virt. eigenvalues --    4.10141   4.11435   4.15739   4.21937   4.22535
 Alpha virt. eigenvalues --    4.23611   4.29185   4.29876   4.30987   4.33996
 Alpha virt. eigenvalues --    4.34245   4.38852   4.39978   4.41151   4.43145
 Alpha virt. eigenvalues --    4.49586   4.53755   4.55902   4.64863   4.67800
 Alpha virt. eigenvalues --    4.71116   4.79234   4.79512   4.80589   4.83047
 Alpha virt. eigenvalues --    4.89459   4.97414   4.99641   5.06813   5.17210
 Alpha virt. eigenvalues --    5.31871   5.33219   5.46939   5.49686   5.56662
 Alpha virt. eigenvalues --    5.75150  22.10011  22.43467  22.60543  22.72989
 Alpha virt. eigenvalues --   22.74464  22.84344  22.92847  23.34034
          Condensed to atoms (all electrons):
               1          2          3          4          5          6
     1  C    4.933592   0.428051   0.428051   0.008454   0.008454  -0.080686
     2  C    0.428051   5.067020   0.021163   0.432593  -0.073484   0.027694
     3  C    0.428051   0.021163   5.067020  -0.073484   0.432593   0.027694
     4  C    0.008454   0.432593  -0.073484   4.913900   0.007931   0.444673
     5  C    0.008454  -0.073484   0.432593   0.007931   4.913900   0.444673
     6  C   -0.080686   0.027694   0.027694   0.444673   0.444673   4.931940
     7  H   -0.064006   0.441769   0.013505  -0.051070  -0.003817   0.010204
     8  H   -0.064006   0.013505   0.441769  -0.003817  -0.051070   0.010204
     9  H    0.012157  -0.057644  -0.003525   0.444364   0.010599  -0.055737
    10  H    0.012157  -0.003525  -0.057644   0.010599   0.444364  -0.055737
    11  H   -0.002198   0.009439   0.009439  -0.053409  -0.053409   0.441233
    12  C    0.291010  -0.068731  -0.068731   0.011430   0.011430  -0.003077
    13  C   -0.021033  -0.012735  -0.012735   0.001853   0.001853  -0.000413
    14  H   -0.055888   0.004888   0.001731  -0.000937   0.000914   0.000218
    15  H   -0.055888   0.001731   0.004888   0.000914  -0.000937   0.000218
    16  H    0.011822  -0.000013  -0.000013  -0.000012  -0.000012   0.000001
    17  H   -0.003731  -0.000510   0.003035  -0.000361  -0.000139   0.000014
    18  H   -0.003731   0.003035  -0.000510  -0.000139  -0.000361   0.000014
               7          8          9         10         11         12
     1  C   -0.064006  -0.064006   0.012157   0.012157  -0.002198   0.291010
     2  C    0.441769   0.013505  -0.057644  -0.003525   0.009439  -0.068731
     3  C    0.013505   0.441769  -0.003525  -0.057644   0.009439  -0.068731
     4  C   -0.051070  -0.003817   0.444364   0.010599  -0.053409   0.011430
     5  C   -0.003817  -0.051070   0.010599   0.444364  -0.053409   0.011430
     6  C    0.010204   0.010204  -0.055737  -0.055737   0.441233  -0.003077
     7  H    0.549080  -0.000089  -0.007060   0.000044  -0.000153  -0.003523
     8  H   -0.000089   0.549080   0.000044  -0.007060  -0.000153  -0.003523
     9  H   -0.007060   0.000044   0.547481  -0.000133  -0.006983  -0.000176
    10  H    0.000044  -0.007060  -0.000133   0.547481  -0.006983  -0.000176
    11  H   -0.000153  -0.000153  -0.006983  -0.006983   0.545579   0.000070
    12  C   -0.003523  -0.003523  -0.000176  -0.000176   0.000070   5.000237
    13  C   -0.001678  -0.001678   0.000024   0.000024  -0.000002   0.299269
    14  H    0.000351   0.001685   0.000010  -0.000037  -0.000002   0.429929
    15  H    0.001685   0.000351  -0.000037   0.000010  -0.000002   0.429929
    16  H   -0.000039  -0.000039  -0.000001  -0.000001   0.000000  -0.043034
    17  H    0.000852   0.000038   0.000007   0.000000  -0.000001  -0.034731
    18  H    0.000038   0.000852   0.000000   0.000007  -0.000001  -0.034731
              13         14         15         16         17         18
     1  C   -0.021033  -0.055888  -0.055888   0.011822  -0.003731  -0.003731
     2  C   -0.012735   0.004888   0.001731  -0.000013  -0.000510   0.003035
     3  C   -0.012735   0.001731   0.004888  -0.000013   0.003035  -0.000510
     4  C    0.001853  -0.000937   0.000914  -0.000012  -0.000361  -0.000139
     5  C    0.001853   0.000914  -0.000937  -0.000012  -0.000139  -0.000361
     6  C   -0.000413   0.000218   0.000218   0.000001   0.000014   0.000014
     7  H   -0.001678   0.000351   0.001685  -0.000039   0.000852   0.000038
     8  H   -0.001678   0.001685   0.000351  -0.000039   0.000038   0.000852
     9  H    0.000024   0.000010  -0.000037  -0.000001   0.000007   0.000000
    10  H    0.000024  -0.000037   0.000010  -0.000001   0.000000   0.000007
    11  H   -0.000002  -0.000002  -0.000002   0.000000  -0.000001  -0.000001
    12  C    0.299269   0.429929   0.429929  -0.043034  -0.034731  -0.034731
    13  C    4.945070  -0.039797  -0.039797   0.408119   0.408904   0.408904
    14  H   -0.039797   0.577845  -0.026646  -0.003175   0.006130  -0.003916
    15  H   -0.039797  -0.026646   0.577845  -0.003175  -0.003916   0.006130
    16  H    0.408119  -0.003175  -0.003175   0.561653  -0.023541  -0.023541
    17  H    0.408904   0.006130  -0.003916  -0.023541   0.555430  -0.023091
    18  H    0.408904  -0.003916   0.006130  -0.023541  -0.023091   0.555430
 Mulliken charges:
               1
     1  C    0.217419
     2  C   -0.234246
     3  C   -0.234246
     4  C   -0.093482
     5  C   -0.093482
     6  C   -0.143132
     7  H    0.113908
     8  H    0.113908
     9  H    0.116609
    10  H    0.116609
    11  H    0.117535
    12  C   -0.212872
    13  C   -0.344151
    14  H    0.106699
    15  H    0.106699
    16  H    0.115001
    17  H    0.115612
    18  H    0.115612
 Sum of Mulliken charges =   0.00000
 Mulliken charges with hydrogens summed into heavy atoms:
               1
     1  C    0.217419
     2  C   -0.120338
     3  C   -0.120338
     4  C    0.023127
     5  C    0.023127
     6  C   -0.025596
    12  C    0.000525
    13  C    0.002073
 Electronic spatial extent (au):  <R**2>=           1033.1238
 Charge=              0.0000 electrons
 Dipole moment (field-independent basis, Debye):
    X=             -0.0605    Y=              0.3800    Z=              0.0000  Tot=              0.3847
 Quadrupole moment (field-independent basis, Debye-Ang):
   XX=            -52.8399   YY=            -44.8391   ZZ=            -44.8782
   XY=              0.0988   XZ=              0.0000   YZ=              0.0000
 Traceless Quadrupole moment (field-independent basis, Debye-Ang):
   XX=             -5.3208   YY=              2.6800   ZZ=              2.6408
   XY=              0.0988   XZ=              0.0000   YZ=              0.0000
 Octapole moment (field-independent basis, Debye-Ang**2):
  XXX=             -2.7615  YYY=             -6.8413  ZZZ=              0.0000  XYY=              1.4177
  XXY=              4.4164  XXZ=              0.0000  XZZ=              0.7398  YZZ=             -2.2948
  YYZ=              0.0000  XYZ=              0.0000
 Hexadecapole moment (field-independent basis, Debye-Ang**3):
 XXXX=           -169.6092 YYYY=           -905.1820 ZZZZ=           -297.3058 XXXY=             94.3853
 XXXZ=              0.0000 YYYX=             87.7171 YYYZ=              0.0000 ZZZX=              0.0000
 ZZZY=              0.0000 XXYY=           -199.3187 XXZZ=            -85.6570 YYZZ=           -201.0627
 XXYZ=              0.0000 YYXZ=              0.0000 ZZXY=             29.4384
 N-N= 3.409306686591D+02 E-N=-1.402249859506D+03  KE= 3.092197328796D+02
 Symmetry A'   KE= 2.247830153290D+02
 Symmetry A"   KE= 8.443671755058D+01
 No NMR shielding tensors so no spin-rotation constants.
 Leave Link  601 at Fri Jul  9 19:20:09 2021, MaxMem=  4194304000 cpu:         4.6
 (Enter /home/minenky/programs//g09/l701.exe)
 Compute integral first derivatives.
 ... and contract with generalized density number  0.
 R6Disp: Adding Grimme-D2 dispersion energy 1st derivatives to the gradient.
   2 Symmetry operations used in ECPInt.
 ECPInt:  NShTT=    8256 NPrTT=   24516 LenC2=    8077 LenP2D=   19307.
 LDataN:  DoStor=T MaxTD1= 7 Len=  274
 Leave Link  701 at Fri Jul  9 19:20:10 2021, MaxMem=  4194304000 cpu:         3.5
 (Enter /home/minenky/programs//g09/l702.exe)
 L702 exits ... SP integral derivatives will be done elsewhere.
 Leave Link  702 at Fri Jul  9 19:20:10 2021, MaxMem=  4194304000 cpu:         0.1
 (Enter /home/minenky/programs//g09/l703.exe)
 Compute integral first derivatives, UseDBF=F ICtDFT=           0.
 Integral derivatives from FoFJK, PRISM(SPDF).
 Calling FoFJK, ICntrl=      2127 FMM=F ISym2X=1 I1Cent= 0 IOpClX= 0 NMat=1 NMatS=1 NMatT=0.
 FoFJK:  IHMeth= 1 ICntrl=    2127 DoSepK=T KAlg= 0 I1Cent=   0 FoldK=F
 IRaf=         1 NMat=   1 IRICut=       1 DoRegI=T DoRafI=F ISym2E= 1.
 FoFCou: FMM=F IPFlag=           0 FMFlag=      100000 FMFlg1=         800
         NFxFlg=           0 DoJE=F BraDBF=F KetDBF=F FulRan=T
         wScrn=  0.000000 ICntrl=    2527 IOpCl=  0 I1Cent=           0 NGrid=           0
         NMat0=    1 NMatS0=      1 NMatT0=    0 NMatD0=    1 NMtDS0=    0 NMtDT0=    0
 Petite list used in FoFCou.
 Leave Link  703 at Fri Jul  9 19:20:23 2021, MaxMem=  4194304000 cpu:       208.6
 (Enter /home/minenky/programs//g09/l716.exe)
[...]
 4472445\H,0.2422049018,-2.1435788113,2.1386175772\H,0.2422049018,-2.14
 35788113,-2.1386175772\H,0.2406411447,-3.3881789787,0.\C,0.186555586,1
 .9977712097,0.\C,-1.2477779721,2.5277202782,0.\H,0.71491099,2.38001500
 77,-0.8766490442\H,0.71491099,2.3800150077,0.8766490442\H,-1.262808946
 2,3.6189966958,0.\H,-1.7891729256,2.1787200163,0.8812941913\H,-1.78917
 29256,2.1787200163,-0.8812941913\\Version=AM64L-G09RevD.01\State=1-A'\
 HF=-310.8825422\RMSD=5.653e-10\RMSF=3.638e-07\ZeroPoint=0.157828\Therm
 al=0.1651013\Dipole=-0.0236962,0.1484273,0.\DipoleDeriv=-0.1035986,-0.
 0611879,0.,-0.0597169,0.3251093,0.,0.,0.,-0.0647762,-0.1312109,0.00227
 61,-0.0020926,0.0225906,-0.1397865,0.0519008,0.0002402,0.1164135,0.045
 2445,-0.131211,0.0022761,0.0020926,0.0225907,-0.1397865,-0.0519008,-0.
 0002402,-0.1164135,0.0452445,-0.1330908,0.0050661,0.0032157,-0.0022727
 ,0.0125296,-0.0449454,0.0034368,-0.0569564,0.0837597,-0.1330908,0.0050
 661,-0.0032157,-0.0022728,0.0125296,0.0449454,-0.0034369,0.0569564,0.0
 837597,-0.1486099,-0.0001142,0.,0.0131391,0.0376632,0.,0.,0.,-0.100302
 3,0.1239343,-0.0060655,-0.000047,-0.0054148,0.0158842,-0.0908179,0.001
 8836,-0.0784089,-0.0491447,0.1239343,-0.0060655,0.000047,-0.0054148,0.
 0158842,0.0908179,-0.0018836,0.078409,-0.0491447,0.1331992,-0.0011778,
 -0.0027954,0.0034182,0.0173669,0.0703794,-0.0024832,0.0791297,-0.05902
 28,0.1331992,-0.0011778,0.0027954,0.0034182,0.0173669,-0.0703794,0.002
 4832,-0.0791297,-0.0590228,0.1391944,0.0001058,0.,0.0020492,-0.1039788
 ,0.,0.,0.,0.0698229,0.120042,0.1377157,0.,0.0112458,0.0786562,0.,0.,0.
 ,0.1439194,0.0379667,-0.0553567,0.,0.027849,0.0087842,0.,0.,0.,0.09335
 45,-0.0194818,-0.0268825,0.067992,-0.002121,-0.0211459,0.0169825,0.099
 2975,0.0791786,-0.0668829,-0.0194818,-0.0268825,-0.067992,-0.002121,-0
 .0211459,-0.0169825,-0.0992975,-0.0791786,-0.0668829,0.0296334,0.04465
 35,0.,0.052399,-0.2164138,0.,0.,0.,0.0811578,-0.0106639,-0.0061245,0.0
 422969,-0.039683,0.0502417,0.0738578,0.0942182,0.0391624,-0.0655418,-0
 .0106639,-0.0061245,-0.0422969,-0.039683,0.0502417,-0.0738578,-0.09421
 82,-0.0391624,-0.0655419\Polar=61.3318002,-5.1151909,113.2431514,0.,0.
 ,94.2784462\PG=CS [SG(C4H2),X(C4H8)]\NImag=0\\0.18758615,-0.00910466,0
 .65683781,0.,0.,0.68195453,-0.07027090,0.00084017,-0.00155463,0.138091
 38,0.00083930,-0.17978297,0.04619548,-0.00129173,0.70633742,-0.0003292
 6,0.12110890,-0.27684316,0.00217233,0.03348290,0.71894050,-0.07027090,
 0.00084017,0.00155463,0.00964226,0.00094778,-0.00046818,0.13809138,0.0
 0083930,-0.17978297,-0.04619548,0.00094778,0.07100359,-0.02624881,-0.0
 0129173,0.70633742,0.00032926,-0.12110890,-0.27684316,0.00046818,0.026
 24881,-0.05942982,-0.00217233,-0.03348290,0.71894050,0.00653353,0.0001
 7231,0.00005629,-0.06289495,0.00041862,-0.00002263,-0.00682686,-0.0000
 1288,-0.00006760,0.13725736,-0.00002494,-0.02612173,0.08638964,0.00084
 163,-0.34522835,-0.03609120,-0.00069407,-0.05999085,-0.03281632,-0.000
 71691,0.69644789,-0.00094608,0.03025015,0.04141983,0.00036053,0.037157
 29,-0.13347126,-0.00030273,-0.03444793,-0.02108014,0.00147657,-0.03196
 338,0.73650778,0.00653353,0.00017231,-0.00005629,-0.00682686,-0.000012
 88,0.00006760,-0.06289495,0.00041862,0.00002263,0.00741888,-0.00014894
 ,-0.00000684,0.13725736,-0.00002493,-0.02612173,-0.08638964,-0.0006940
 7,-0.05999085,0.03281632,0.00084163,-0.34522835,0.03609120,-0.00014894
 ,0.07297142,0.02795352,-0.00071691,0.69644789,0.00094608,-0.03025015,0
 .04141983,0.00030273,0.03444793,-0.02108014,-0.00036053,-0.03715729,-0
 .13347126,0.00000684,-0.02795352,-0.06117768,-0.00147657,0.03196338,0.
 73650778,-0.00671880,0.00041126,0.,0.00741634,-0.00020415,0.00017655,0
 .00741634,-0.00020415,-0.00017655,-0.06320582,0.00035578,-0.00003999,-
 0.06320582,0.00035578,0.00003999,0.13422642,-0.00054675,0.00133462,0.,
 -0.00000259,-0.02742513,-0.02958105,-0.00000259,-0.02742514,0.02958105
 ,0.00010377,-0.18697268,-0.12811455,0.00010377,-0.18697268,0.12811455,
 -0.00110771,0.75787534,0.,0.,-0.08231144,-0.00075720,-0.08543925,0.039
 70908,0.00075720,0.08543925,0.03970908,-0.00034257,-0.05521225,-0.2902
 6888,0.00034257,0.05521225,-0.29026888,0.,0.,0.67522786,0.00386009,-0.
 00084700,0.00007492,-0.03733215,-0.00038885,-0.00143178,0.00674586,0.0
 0009960,0.00014502,0.00266452,0.00010032,0.00004976,-0.00079646,-0.000
 06232,0.00002111,0.00774483,0.00000933,-0.00005020,0.02579692,-0.00003
 746,0.01028210,0.01357864,-0.00065876,-0.12759251,-0.11853751,-0.00003
 152,-0.00087997,0.00348564,0.00003432,-0.01040299,-0.02955477,0.000020
 84,-0.00081207,0.00084601,0.00001430,-0.00571694,0.00125618,0.00062475
 ,0.13319475,-0.00018555,-0.01638158,-0.01965530,-0.00090739,-0.1184749
 3,-0.26798791,-0.00005570,0.00390895,-0.00339974,0.00007409,0.00235717
 ,0.00345555,-0.00000836,0.00106791,0.00013926,-0.00006329,0.00039587,0
 .00195889,0.00106135,0.12843595,0.28441337,0.00386009,-0.00084700,-0.0
 0007492,0.00674586,0.00009960,-0.00014502,-0.03733215,-0.00038885,0.00
 143178,-0.00079646,-0.00006232,-0.00002111,0.00266452,0.00010032,-0.00
 004976,0.00774483,0.00000933,0.00005020,0.00018498,0.00004590,0.000027
 32,0.02579692,-0.00003746,0.01028210,-0.01357864,-0.00003152,-0.000879
 97,-0.00348564,-0.00065876,-0.12759251,0.11853751,0.00002084,-0.000812
 07,-0.00084601,0.00003432,-0.01040299,0.02955477,0.00001430,-0.0057169
 4,-0.00125618,0.00004590,0.00053692,-0.00078049,0.00062475,0.13319475,
 0.00018555,0.01638158,-0.01965530,0.00005570,-0.00390895,-0.00339974,0
 .00090739,0.11847493,-0.26798791,0.00000836,-0.00106791,0.00013926,-0.
 00007409,-0.00235717,0.00345555,0.00006329,-0.00039587,0.00195889,-0.0
 0002732,0.00078049,-0.00114120,-0.00106135,-0.12843595,0.28441337,0.00
 785274,-0.00021094,0.00019512,0.00288183,-0.00000766,-0.00017580,-0.00
 090197,-0.00005946,-0.00001985,-0.03728076,0.00050931,-0.00114637,0.00
 763995,0.00005715,-0.00004605,0.00287807,0.00005136,0.00006231,-0.0040
 3819,0.00001382,0.00002577,-0.00117938,-0.00000631,-0.00001335,0.02603
 455,0.00017622,-0.00562883,-0.00112424,0.00015360,-0.00995626,0.029424
 43,-0.00003074,-0.00096877,-0.00100866,0.00046824,-0.12943848,0.120618
 19,0.00003138,-0.00072409,-0.00336948,-0.00006593,0.01200696,-0.015074
 13,-0.00002450,0.00083440,-0.00041753,0.00000007,0.00005020,0.00009629
 ,-0.00058501,0.13324536,-0.00000410,-0.00056534,0.00189762,0.00002401,
 -0.00235712,0.00352787,-0.00002077,-0.00097566,0.00028258,-0.00104865,
 0.12063364,-0.27216812,-0.00000285,-0.00399821,-0.00336419,-0.00011784
 ,0.01667758,-0.01809302,0.00001049,0.00040210,0.00079682,0.00000724,0.
 00008852,-0.00002217,0.00113720,-0.13024605,0.28734569,0.00785274,-0.0
 0021094,-0.00019512,-0.00090197,-0.00005946,0.00001985,0.00288183,-0.0
 0000766,0.00017580,0.00763995,0.00005715,0.00004605,-0.03728076,0.0005
 0931,0.00114637,0.00287807,0.00005136,-0.00006231,-0.00117938,-0.00000
 631,0.00001335,-0.00403819,0.00001382,-0.00002577,0.00010765,0.0000023
 5,0.00000489,0.02603455,0.00017622,-0.00562883,0.00112424,-0.00003074,
 -0.00096877,0.00100866,0.00015360,-0.00995626,-0.02942443,0.00003138,-
 0.00072409,0.00336948,0.00046824,-0.12943848,-0.12061819,-0.00006593,0
 .01200696,0.01507413,0.00000007,0.00005020,-0.00009629,-0.00002450,0.0
 0083440,0.00041753,0.00000235,0.00039855,0.00078935,-0.00058501,0.1332
 4536,0.00000410,0.00056534,0.00189762,0.00002077,0.00097566,0.00028258
 ,-0.00002401,0.00235712,0.00352787,0.00000285,0.00399821,-0.00336419,0
 .00104865,-0.12063364,-0.27216812,0.00011784,-0.01667758,-0.01809302,-
 0.00000724,-0.00008852,-0.00002217,-0.00001049,-0.00040210,0.00079682,
 -0.00000489,-0.00078935,-0.00104612,-0.00113720,0.13024605,0.28734569,
 -0.00107554,-0.00014527,0.,0.00768522,0.00007171,-0.00004664,0.0076852
 2,0.00007171,0.00004663,0.00230816,-0.00005904,-0.00011272,0.00230816,
 -0.00005904,0.00011272,-0.03606851,0.00091115,0.,0.00017068,-0.0000385
 6,-0.00000788,0.00017068,-0.00003856,0.00000788,-0.00394374,-0.0000074
 2,0.00001908,-0.00394374,-0.00000742,-0.00001908,0.02569945,0.00002276
 ,0.00067394,0.,0.00001756,0.00059533,-0.00318045,0.00001756,0.00059533
 ,0.00318045,0.00005597,-0.01132216,0.00327218,0.00005596,-0.01132216,-
 0.00327218,0.00082517,-0.34165282,0.,-0.00000513,-0.00068516,0.0001517
 1,-0.00000513,-0.00068516,-0.00015171,-0.00001237,0.00076698,-0.000365
 14,-0.00001237,0.00076698,0.00036514,-0.00093335,0.36221606,0.,0.,-0.0
 0156864,-0.00000999,-0.00244602,-0.00446663,0.00000999,0.00244602,-0.0
 0446663,0.00008901,-0.02856625,0.00514285,-0.00008901,0.02856625,0.005
 14285,0.,0.,-0.06047609,-0.00000935,-0.00139532,0.00001321,0.00000935,
 0.00139532,0.00001321,0.00000998,0.00051461,0.00086758,-0.00000998,-0.
 00051461,0.00086758,0.,0.,0.05867459,-0.07226965,-0.00369264,0.,0.0043
 4331,-0.00004865,-0.00056147,0.00434331,-0.00004865,0.00056147,0.00694
 563,-0.00101214,0.00062237,0.00694563,-0.00101214,-0.00062237,-0.00102
 356,0.00106905,0.,-0.00351744,0.00045913,-0.00026397,-0.00351744,0.000
 45913,0.00026397,0.00007554,-0.00012477,-0.00000837,0.00007554,-0.0001
 2477,0.00000837,-0.00094199,-0.00004842,0.,0.48306725,0.00044021,-0.21
 310282,0.,-0.00063468,-0.02137465,0.00441495,-0.00063468,-0.02137465,-
 0.00441495,-0.00006022,0.00187896,0.00124061,-0.00006022,0.00187896,-0
 .00124061,-0.00020398,-0.00059811,0.,0.00052344,0.00110183,-0.00173754
 ,0.00052344,0.00110183,0.00173754,0.00017413,-0.00005981,-0.00018950,0
 .00017413,-0.00005981,0.00018950,0.00018505,0.00002637,0.,0.04700342,0
 .50049784,0.,0.,-0.09314550,-0.00124153,0.02890126,0.00403425,0.001241
 53,-0.02890126,0.00403425,-0.00096370,0.00311201,-0.00433013,0.0009637
 0,-0.00311201,-0.00433013,0.,0.,-0.00178430,0.00070118,0.00116975,0.00
 068156,-0.00070118,-0.00116975,0.00068156,0.00007137,0.00139628,0.0000
 0338,-0.00007137,-0.00139628,0.00000338,0.,0.,0.00012446,0.,0.,0.61409
 194,-0.00046950,0.01205866,0.,-0.00016172,-0.00236491,0.00085742,-0.00
 016172,-0.00236491,-0.00085742,-0.00008403,0.00040149,0.00012744,-0.00
 008403,0.00040149,-0.00012744,0.00004132,-0.00082675,0.,0.00016654,-0.
 00004327,0.00005016,0.00016654,-0.00004327,-0.00005016,-0.00000473,-0.
 00012522,0.00004031,-0.00000473,-0.00012522,-0.00004031,-0.00001095,-0
 .00000350,0.,-0.17949695,0.03044224,0.,0.47987363,0.03444335,-0.018530
 81,0.,0.00040198,-0.00076462,-0.00149352,0.00040198,-0.00076462,0.0014
 9352,-0.00143565,0.00002397,-0.00011675,-0.00143565,0.00002397,0.00011
 675,0.00014785,-0.00050429,0.,0.00048755,0.00003282,0.00037269,0.00048
 755,0.00003282,-0.00037269,0.00002889,-0.00010212,0.00004703,0.0000288
 9,-0.00010212,-0.00004703,0.00012101,0.00001491,0.,0.03622629,-0.08766
 615,0.,0.03513310,0.56792550,0.,0.,0.00028689,0.00030909,0.00184157,-0
 .00039607,-0.00030909,-0.00184157,-0.00039607,0.00038366,-0.00089680,-
 0.00049724,-0.00038366,0.00089680,-0.00049724,0.,0.,0.00099133,-0.0003
 7310,0.00006079,-0.00003825,0.00037310,-0.00006079,-0.00003825,-0.0000
 3930,0.00000914,-0.00002039,0.00003930,-0.00000914,-0.00002039,0.,0.,0
 .00001044,0.,0.,-0.07825143,0.,0.,0.57390795,0.00042603,0.00203305,-0.
 00170514,0.00049132,0.00018194,-0.00008135,0.00044148,0.00047397,0.000
 24611,-0.00005534,0.00069385,0.00015189,-0.00000663,-0.00026059,-0.000
 01126,0.00000578,-0.00005493,-0.00042712,0.00005380,-0.00001292,0.0001
 7037,-0.00004039,-0.00034222,-0.00034903,-0.00007456,0.00002447,-0.000
 01486,-0.00002911,-0.00002166,0.00000810,0.00001117,0.00002039,-0.0000
 1924,-0.10517157,-0.04604843,0.09909068,-0.01789354,-0.01000241,0.0269
 7844,0.11723445,-0.01504416,-0.01372478,0.02859704,-0.00040346,-0.0056
 3400,-0.00176246,0.00062922,0.00153819,0.00179427,0.00094192,-0.000122
 80,0.00134388,0.00031921,-0.00008068,0.00009120,-0.00015098,-0.0000981
 6,-0.00020838,-0.00034712,0.00002128,0.00000099,-0.00032639,-0.0000580
 9,-0.00115999,0.00006384,-0.00044717,0.00002765,-0.00002914,0.00002633
 ,-0.00002189,-0.00005096,0.00000859,-0.00008531,-0.04509873,-0.0793976
 7,0.07036830,0.00659108,0.00409766,-0.01033251,0.04493949,0.08964087,-
 0.00126482,-0.00020887,-0.00046027,0.00036059,0.00094313,0.00025198,-0
 .00053555,-0.00212961,0.00058014,-0.00001870,-0.00031735,-0.00018204,-
 0.00054319,0.00068356,0.00007445,-0.00002362,-0.00014191,0.00047843,0.
 00007300,-0.00018159,0.00042884,0.00051980,0.00016518,0.00025109,0.000
 01522,0.00006046,-0.00000895,0.00003033,0.00005755,0.00000475,0.000136
 06,0.00003581,0.00004694,0.09994891,0.07285772,-0.22135880,-0.00086274
 ,-0.00053938,0.00134679,-0.11054736,-0.07956741,0.23665949,0.00042603,
 0.00203305,0.00170514,0.00044148,0.00047397,-0.00024611,0.00049132,0.0
 0018194,0.00008135,-0.00000663,-0.00026059,0.00001126,-0.00005534,0.00
 069385,-0.00015189,0.00000578,-0.00005493,0.00042712,-0.00004039,-0.00
 034222,0.00034903,0.00005380,-0.00001292,-0.00017037,-0.00002911,-0.00
 002166,-0.00000810,-0.00007456,0.00002447,0.00001486,0.00001117,0.0000
 2039,0.00001924,-0.10517157,-0.04604843,-0.09909068,-0.01789354,-0.010
 00241,-0.02697844,0.00786992,0.00628783,0.01249539,0.11723445,-0.01504
 416,-0.01372478,-0.02859704,0.00062922,0.00153819,-0.00179427,-0.00040
 346,-0.00563400,0.00176246,0.00031921,-0.00008068,-0.00009120,0.000941
 92,-0.00012280,-0.00134388,-0.00015098,-0.00009816,0.00020838,-0.00032
 639,-0.00005809,0.00115999,-0.00034712,0.00002128,-0.00000099,-0.00002
 914,0.00002633,0.00002189,0.00006384,-0.00044717,-0.00002765,-0.000050
 96,0.00000859,0.00008531,-0.04509872,-0.07939767,-0.07036830,0.0065910
 8,0.00409766,0.01033251,0.00628783,0.00392067,0.00925351,0.04493949,0.
 08964087,0.00126482,0.00020887,-0.00046027,0.00053555,0.00212961,0.000
 58014,-0.00036059,-0.00094313,0.00025198,0.00054319,-0.00068356,0.0000
 7445,0.00001870,0.00031735,-0.00018204,0.00002362,0.00014191,0.0004784
 3,-0.00051980,-0.00016518,0.00025109,-0.00007300,0.00018159,0.00042884
 ,-0.00003033,-0.00005755,0.00000475,-0.00001522,-0.00006046,-0.0000089
 5,-0.00013606,-0.00003581,0.00004694,-0.09994891,-0.07285772,-0.221358
 80,0.00086274,0.00053938,0.00134679,-0.01249539,-0.00925351,-0.0204413
 8,0.11054736,0.07956741,0.23665949,-0.00592845,0.00010143,0.,0.0001473
 8,0.00070421,0.00011514,0.00014738,0.00070421,-0.00011514,0.00039477,-
 0.00001537,-0.00006563,0.00039477,-0.00001537,0.00006563,-0.00004772,0
 .00028494,0.,-0.00023039,-0.00003418,-0.00013137,-0.00023039,-0.000034
 18,0.00013137,-0.00001215,0.00007651,-0.00002555,-0.00001215,0.0000765
 1,0.00002555,-0.00005322,0.00000589,0.,-0.00046023,0.03343149,0.,-0.04
 720123,-0.00128018,0.,0.00132864,-0.00047306,0.00045437,0.00132864,-0.
 00047306,-0.00045437,0.05124442,0.00267956,0.00035093,0.,0.00021173,0.
 00002289,-0.00044463,0.00021174,0.00002289,0.00044462,-0.00013521,0.00
 000787,-0.00010114,-0.00013521,0.00000787,0.00010114,0.00000798,-0.000
 18516,0.,0.00000334,0.00001409,0.00003372,0.00000334,0.00001409,-0.000
 03372,-0.00001186,-0.00003902,0.00002541,-0.00001185,-0.00003902,-0.00
 002541,0.00001249,-0.00002182,0.,-0.00158569,-0.00902859,0.,0.00013748
 ,-0.31493275,0.,0.00020577,0.00033359,-0.00047851,0.00020577,0.0003335
 9,0.00047851,-0.00194791,0.34098105,0.,0.,0.00121668,0.00001658,0.0002
 6852,-0.00012634,-0.00001658,-0.00026852,-0.00012634,-0.00011029,-0.00
 052379,-0.00014371,0.00011029,0.00052379,-0.00014371,0.,0.,0.00047413,
 0.00016190,-0.00000616,0.00004787,-0.00016190,0.00000616,0.00004787,-0
 .00003134,-0.00001441,-0.00000519,0.00003134,0.00001441,-0.00000519,0.
 ,0.,0.00001280,0.,0.,-0.00098688,0.,0.,-0.04864797,-0.00010382,-0.0003
 7252,0.00001611,0.00010382,0.00037252,0.00001611,0.,0.,0.04633425,0.00
 103640,-0.00180197,-0.00032083,0.00028687,-0.00014864,0.00039444,0.000
 21531,0.00078979,0.00029509,0.00002483,0.00064235,0.00002005,-0.000036
 78,-0.00060756,0.00022446,-0.00004378,0.00000109,-0.00058819,-0.000230
 89,0.00003286,-0.00024625,-0.00002291,-0.00004075,-0.00009832,0.000004
 11,0.00004167,0.00001047,-0.00000985,0.00001071,0.00000261,-0.00000612
 ,-0.00001069,-0.00003330,-0.01711291,-0.00960346,0.02663655,-0.1083906
 7,-0.04187607,0.10404798,-0.00576545,0.00278414,-0.00056679,0.00117399
 ,-0.00063274,-0.00032912,-0.00040504,0.00007427,-0.00103859,0.12117024
 ,0.00012379,0.00119438,-0.00108592,-0.00013402,0.00030104,0.00012920,-
 0.00016212,-0.00020038,-0.00023416,-0.00007254,-0.00027092,-0.00006011
 ,0.00001576,0.00015770,-0.00009053,0.00001068,0.00007117,0.00020449,0.
 00012242,0.00005502,0.00009124,-0.00001541,0.00002432,0.00008785,0.000
 01951,0.00002330,-0.00000953,0.00000237,0.00001245,0.00000662,0.000008
 73,0.00000810,0.00001333,0.00633915,0.00278707,-0.01010529,-0.04292978
 ,-0.07644090,0.07100626,0.00272806,-0.00018933,-0.00024363,-0.00084565
 ,0.00016552,0.00024866,-0.01555595,-0.00892124,0.02684931,0.04422805,0
 .07815072,-0.00015085,0.00037614,0.00042504,-0.00015839,-0.00027480,0.
 00018899,-0.00000306,-0.00030893,-0.00031431,-0.00004052,-0.00022713,-
 0.00005367,0.00002618,0.00017120,-0.00000266,-0.00000006,-0.00010812,0
 .00015477,0.00006397,-0.00004222,-0.00005028,-0.00005606,0.00004427,0.
 00010839,0.00000271,-0.00002262,0.00000966,0.00001240,-0.00000463,-0.0
 0000781,0.00000427,-0.00000944,0.00000727,-0.00076422,-0.00055504,0.00
 094560,0.10507417,0.07011314,-0.22454345,-0.00053455,0.00017851,0.0015
 2697,0.00035647,-0.00036215,0.00078548,-0.00152708,-0.00076790,0.00100
 976,-0.11535783,-0.07750403,0.24017916,0.00103640,-0.00180197,0.000320
 83,0.00021531,0.00078979,-0.00029509,0.00028687,-0.00014864,-0.0003944
 4,-0.00003678,-0.00060756,-0.00022446,0.00002483,0.00064235,-0.0000200
 5,-0.00004378,0.00000109,0.00058819,-0.00002291,-0.00004075,0.00009832
 ,-0.00023089,0.00003286,0.00024625,-0.00000985,0.00001071,-0.00000261,
 0.00000411,0.00004167,-0.00001047,-0.00000612,-0.00001069,0.00003330,-
 0.01711291,-0.00960346,-0.02663655,-0.10839067,-0.04187607,-0.10404798
 ,0.00117399,-0.00063274,0.00032912,-0.00576545,0.00278414,0.00056679,-
 0.00040504,0.00007427,0.00103859,0.00811264,0.00611695,0.01305245,0.12
 117024,0.00012379,0.00119438,0.00108592,-0.00016212,-0.00020038,0.0002
 3416,-0.00013402,0.00030104,-0.00012920,0.00001576,0.00015770,0.000090
 53,-0.00007254,-0.00027092,0.00006011,0.00001068,0.00007117,-0.0002044
 9,-0.00001541,0.00002432,-0.00008785,0.00012242,0.00005502,-0.00009124
 ,0.00000237,0.00001245,-0.00000662,0.00001951,0.00002330,0.00000953,0.
 00000873,0.00000810,-0.00001333,0.00633915,0.00278707,0.01010529,-0.04
 292978,-0.07644090,-0.07100626,-0.00084565,0.00016552,-0.00024866,0.00
 272806,-0.00018933,0.00024363,-0.01555595,-0.00892124,-0.02684931,0.00
 611695,0.00307200,0.00930376,0.04422805,0.07815072,0.00015085,-0.00037
 614,0.00042504,0.00000306,0.00030893,-0.00031431,0.00015839,0.00027480
 ,0.00018899,-0.00002618,-0.00017120,-0.00000266,0.00004052,0.00022713,
 -0.00005367,0.00000006,0.00010812,0.00015477,0.00005606,-0.00004427,0.
 00010839,-0.00006397,0.00004222,-0.00005028,-0.00001240,0.00000463,-0.
 00000781,-0.00000271,0.00002262,0.00000966,-0.00000427,0.00000944,0.00
 000727,0.00076422,0.00055504,0.00094560,-0.10507417,-0.07011314,-0.224
 54345,-0.00035647,0.00036215,0.00078548,0.00053455,-0.00017851,0.00152
 697,0.00152708,0.00076791,0.00100976,-0.01305245,-0.00930376,-0.020368
 93,0.11535783,0.07750403,0.24017916\\0.00000093,0.00000065,0.,-0.00000
 006,-0.00000006,-0.00000066,-0.00000006,-0.00000006,0.00000066,-0.0000
 0082,-0.00000037,0.00000041,-0.00000082,-0.00000037,-0.00000041,0.0000
 0123,-0.00000015,0.,0.00000011,0.00000008,0.00000010,0.00000011,0.0000
 0008,-0.00000010,-0.00000004,0.00000016,-0.00000012,-0.00000004,0.0000
 0016,0.00000012,0.,-0.00000013,0.,-0.00000052,0.00000053,0.,-0.0000002
 9,0.00000019,0.,0.00000015,-0.00000022,0.00000022,0.00000015,-0.000000
 22,-0.00000022,-0.00000048,0.00000009,0.,0.00000022,-0.00000017,-0.000
 00005,0.00000022,-0.00000017,0.00000005\\\@


 LOVE IS BLIND, THAT'S WHY ALL THE WORLD LOVES A LOUVER.
 Job cpu time:       0 days  1 hours 38 minutes 51.5 seconds.
 File lengths (MBytes):  RWF=    112 Int=      0 D2E=      0 Chk=      8 Scr=      1
 Normal termination of Gaussian 09 at Fri Jul  9 19:29:18 2021.
