 Entering Gaussian System, Link 0=g09
 Initial command:
 /home/minenky/programs//g09/l1.exe "/local/scratch/minenky/m1_00_31541-03-4-C32H18_wB97XD/Gau-65444.inp" -scrdir="/local/scratch/minenky/m1_00_31541-03-4-C32H18_wB97XD/"
 Entering Link 1 = /home/minenky/programs//g09/l1.exe PID=     65445.
  
 Copyright (c) 1988,1990,1992,1993,1995,1998,2003,2009,2013,
            Gaussian, Inc.  All Rights Reserved.
  
 This is part of the Gaussian(R) 09 program.  It is based on
 the Gaussian(R) 03 system (copyright 2003, Gaussian, Inc.),
 the Gaussian(R) 98 system (copyright 1998, Gaussian, Inc.),
 the Gaussian(R) 94 system (copyright 1995, Gaussian, Inc.),
 the Gaussian 92(TM) system (copyright 1992, Gaussian, Inc.),
 the Gaussian 90(TM) system (copyright 1990, Gaussian, Inc.),
 the Gaussian 88(TM) system (copyright 1988, Gaussian, Inc.),
 the Gaussian 86(TM) system (copyright 1986, Carnegie Mellon
 University), and the Gaussian 82(TM) system (copyright 1983,
 Carnegie Mellon University). Gaussian is a federally registered
 trademark of Gaussian, Inc.
  
 This software contains proprietary and confidential information,
 including trade secrets, belonging to Gaussian, Inc.
  
 This software is provided under written license and may be
 used, copied, transmitted, or stored only in accord with that
 written license.
  
 The following legend is applicable only to US Government
 contracts under FAR:
  
                    RESTRICTED RIGHTS LEGEND
  
 Use, reproduction and disclosure by the US Government is
 subject to restrictions as set forth in subparagraphs (a)
 and (c) of the Commercial Computer Software - Restricted
 Rights clause in FAR 52.227-19.
  
 Gaussian, Inc.
 340 Quinnipiac St., Bldg. 40, Wallingford CT 06492
  
  
 ---------------------------------------------------------------
 Warning -- This program may not be used in any manner that
 competes with the business of Gaussian, Inc. or will provide
 assistance to any competitor of Gaussian, Inc.  The licensee
 of this program is prohibited from giving any competitor of
 Gaussian, Inc. access to this program.  By using this program,
 the user acknowledges that Gaussian, Inc. is engaged in the
 business of creating and licensing software in the field of
 computational chemistry and represents and warrants to the
 licensee that it is not a competitor of Gaussian, Inc. and that
 it will not use this program in any manner prohibited above.
 ---------------------------------------------------------------
  

 Cite this work as:
 Gaussian 09, Revision D.01,
 M. J. Frisch, G. W. Trucks, H. B. Schlegel, G. E. Scuseria, 
 M. A. Robb, J. R. Cheeseman, G. Scalmani, V. Barone, B. Mennucci, 
 G. A. Petersson, H. Nakatsuji, M. Caricato, X. Li, H. P. Hratchian, 
 A. F. Izmaylov, J. Bloino, G. Zheng, J. L. Sonnenberg, M. Hada, 
 M. Ehara, K. Toyota, R. Fukuda, J. Hasegawa, M. Ishida, T. Nakajima, 
 Y. Honda, O. Kitao, H. Nakai, T. Vreven, J. A. Montgomery, Jr., 
 J. E. Peralta, F. Ogliaro, M. Bearpark, J. J. Heyd, E. Brothers, 
 K. N. Kudin, V. N. Staroverov, T. Keith, R. Kobayashi, J. Normand, 
 K. Raghavachari, A. Rendell, J. C. Burant, S. S. Iyengar, J. Tomasi, 
 M. Cossi, N. Rega, J. M. Millam, M. Klene, J. E. Knox, J. B. Cross, 
 V. Bakken, C. Adamo, J. Jaramillo, R. Gomperts, R. E. Stratmann, 
 O. Yazyev, A. J. Austin, R. Cammi, C. Pomelli, J. W. Ochterski, 
 R. L. Martin, K. Morokuma, V. G. Zakrzewski, G. A. Voth, 
 P. Salvador, J. J. Dannenberg, S. Dapprich, A. D. Daniels, 
 O. Farkas, J. B. Foresman, J. V. Ortiz, J. Cioslowski, 
 and D. J. Fox, Gaussian, Inc., Wallingford CT, 2013.
 
 ******************************************
 Gaussian 09:  AM64L-G09RevD.01 24-Apr-2013
                29-Jul-2019 
 ******************************************
 %Mem=32000MB
 %NProcShared=16
 Will use up to   16 processors via shared memory.
 %Chk=m1_00_31541-03-4-C32H18_wB97XD
 ----------------------------------------------------------------------
 #P wB97XD/def2tzvp opt=(tight) freq integral(Grid=ultrafine) # SCF(Max
 Cycle=380) 5d 7f GFPrint
 ----------------------------------------------------------------------
 1/7=10,14=-1,18=20,19=15,26=4,38=1/1,3;
 2/9=110,12=2,17=6,18=5,40=1/2;
 3/5=44,7=101,8=11,11=2,16=1,24=100,25=1,30=1,71=1,74=-58,75=-5/1,2,3;
 4//1;
 5/5=2,7=380,38=5/2;
 6/7=2,8=2,9=2,10=2,28=1/1;
 7//1,2,3,16;
 1/7=10,14=-1,18=20,19=15,26=4/3(2);
 2/9=110/2;
 99//99;
 2/9=110/2;
 3/5=44,7=101,8=11,11=2,16=1,25=1,30=1,71=1,74=-58,75=-5/1,2,3;
 4/5=5,16=3,69=1/1;
 5/5=2,7=380,38=5/2;
 7//1,2,3,16;
 1/7=10,14=-1,18=20,19=15,26=4/3(-5);
 2/9=110/2;
 6/7=2,8=2,9=2,10=2,19=2,28=1/1;
 99/9=1/99;
 Leave Link    1 at Mon Jul 29 09:50:34 2019, MaxMem=  4194304000 cpu:         0.9
 (Enter /home/minenky/programs//g09/l101.exe)
 ---------------------------------------
 The PBEPBE optimization and frequencies
 ---------------------------------------
 Symbolic Z-matrix:
 Charge =  0 Multiplicity = 1
 C                     0.9443    6.2718    1.644 
 C                     1.2224    5.2385    0.71 
 C                     2.4453    4.6104    0.7123 
 C                     1.8948    6.6548    2.5604 
 C                     3.1708    6.0243    2.5888 
 C                     3.4509    4.9839    1.6479 
 C                     4.1747    6.3829    3.5098 
 C                     4.7179    4.3689    1.6871 
 C                     5.4233    5.7723    3.5433 
 C                     5.7053    4.7288    2.5971 
 C                     6.4529    6.17      4.5232 
 C                     7.024     4.0658    2.6099 
 C                     7.7382    5.507     4.5274 
 C                     8.0216    4.4642    3.5782 
 C                     8.7253    5.8932    5.4769 
 C                     9.2899    3.8187    3.5869 
 C                     7.3354    3.0663    1.7145 
 C                     6.2214    7.1665    5.4459 
 C                     9.5917    2.7699    2.6352 
 C                     8.5887    2.4024    1.6933 
 C                     10.8319   2.0848    2.5837 
 C                     8.8521    1.3793    0.7459 
 C                     10.2461   4.2323    4.5515 
 C                     7.1813    7.5769    6.4062 
 C                     8.456     6.9424    6.4378 
 C                     6.8851    8.61      7.333 
 C                     9.3892    7.3782    7.4119 
 C                     9.9766    5.2225    5.4538 
 C                     9.0787    8.3857    8.304 
 C                     7.8142    9.0108    8.2672 
 C                     10.0678   0.7325    0.7221 
 C                     11.0658   1.092     1.6526 
 H                    -0.0268    6.7591    1.6299 
 H                     0.461     4.9468   -0.0082 
 H                     2.6618    3.8188   -0.0014 
 H                     1.685     7.4458    3.2768 
 H                     3.9328    7.1733    4.2115 
 H                     4.9011    3.5825    0.9635 
 H                     6.6102    2.747     0.9747 
 H                     5.269     7.6839    5.4677 
 H                     11.6225   2.3342    3.2822 
 H                     8.0718    1.1148    0.0359 
 H                     11.2195   3.7573    4.5829 
 H                     5.9057    9.081     7.2908 
 H                     10.3706   6.921     7.4706 
 H                     10.7469   5.4949    6.1655 
 H                     9.8149    8.6982    9.0395 
 H                     7.578     9.8028    8.9726 
 H                     10.2601  -0.0497   -0.007 
 H                     12.0265   0.5846    1.6376 
 
 NAtoms=     50 NQM=       50 NQMF=       0 NMMI=      0 NMMIF=      0
                NMic=       0 NMicF=      0.
                    Isotopes and Nuclear Properties:
 (Nuclear quadrupole moments (NQMom) in fm**2, nuclear magnetic moments (NMagM)
  in nuclear magnetons)

  Atom         1           2           3           4           5           6           7           8           9          10
 IAtWgt=          12          12          12          12          12          12          12          12          12          12
 AtmWgt=  12.0000000  12.0000000  12.0000000  12.0000000  12.0000000  12.0000000  12.0000000  12.0000000  12.0000000  12.0000000
 NucSpn=           0           0           0           0           0           0           0           0           0           0
 AtZEff=   0.0000000   0.0000000   0.0000000   0.0000000   0.0000000   0.0000000   0.0000000   0.0000000   0.0000000   0.0000000
 NQMom=    0.0000000   0.0000000   0.0000000   0.0000000   0.0000000   0.0000000   0.0000000   0.0000000   0.0000000   0.0000000
 NMagM=    0.0000000   0.0000000   0.0000000   0.0000000   0.0000000   0.0000000   0.0000000   0.0000000   0.0000000   0.0000000
 AtZNuc=   6.0000000   6.0000000   6.0000000   6.0000000   6.0000000   6.0000000   6.0000000   6.0000000   6.0000000   6.0000000

  Atom        11          12          13          14          15          16          17          18          19          20
 IAtWgt=          12          12          12          12          12          12          12          12          12          12
 AtmWgt=  12.0000000  12.0000000  12.0000000  12.0000000  12.0000000  12.0000000  12.0000000  12.0000000  12.0000000  12.0000000
 NucSpn=           0           0           0           0           0           0           0           0           0           0
 AtZEff=   0.0000000   0.0000000   0.0000000   0.0000000   0.0000000   0.0000000   0.0000000   0.0000000   0.0000000   0.0000000
 NQMom=    0.0000000   0.0000000   0.0000000   0.0000000   0.0000000   0.0000000   0.0000000   0.0000000   0.0000000   0.0000000
 NMagM=    0.0000000   0.0000000   0.0000000   0.0000000   0.0000000   0.0000000   0.0000000   0.0000000   0.0000000   0.0000000
 AtZNuc=   6.0000000   6.0000000   6.0000000   6.0000000   6.0000000   6.0000000   6.0000000   6.0000000   6.0000000   6.0000000

  Atom        21          22          23          24          25          26          27          28          29          30
 IAtWgt=          12          12          12          12          12          12          12          12          12          12
 AtmWgt=  12.0000000  12.0000000  12.0000000  12.0000000  12.0000000  12.0000000  12.0000000  12.0000000  12.0000000  12.0000000
 NucSpn=           0           0           0           0           0           0           0           0           0           0
 AtZEff=   0.0000000   0.0000000   0.0000000   0.0000000   0.0000000   0.0000000   0.0000000   0.0000000   0.0000000   0.0000000
 NQMom=    0.0000000   0.0000000   0.0000000   0.0000000   0.0000000   0.0000000   0.0000000   0.0000000   0.0000000   0.0000000
 NMagM=    0.0000000   0.0000000   0.0000000   0.0000000   0.0000000   0.0000000   0.0000000   0.0000000   0.0000000   0.0000000
 AtZNuc=   6.0000000   6.0000000   6.0000000   6.0000000   6.0000000   6.0000000   6.0000000   6.0000000   6.0000000   6.0000000

  Atom        31          32          33          34          35          36          37          38          39          40
 IAtWgt=          12          12           1           1           1           1           1           1           1           1
 AtmWgt=  12.0000000  12.0000000   1.0078250   1.0078250   1.0078250   1.0078250   1.0078250   1.0078250   1.0078250   1.0078250
 NucSpn=           0           0           1           1           1           1           1           1           1           1
 AtZEff=   0.0000000   0.0000000   0.0000000   0.0000000   0.0000000   0.0000000   0.0000000   0.0000000   0.0000000   0.0000000
 NQMom=    0.0000000   0.0000000   0.0000000   0.0000000   0.0000000   0.0000000   0.0000000   0.0000000   0.0000000   0.0000000
 NMagM=    0.0000000   0.0000000   2.7928460   2.7928460   2.7928460   2.7928460   2.7928460   2.7928460   2.7928460   2.7928460
 AtZNuc=   6.0000000   6.0000000   1.0000000   1.0000000   1.0000000   1.0000000   1.0000000   1.0000000   1.0000000   1.0000000

  Atom        41          42          43          44          45          46          47          48          49          50
 IAtWgt=           1           1           1           1           1           1           1           1           1           1
 AtmWgt=   1.0078250   1.0078250   1.0078250   1.0078250   1.0078250   1.0078250   1.0078250   1.0078250   1.0078250   1.0078250
 NucSpn=           1           1           1           1           1           1           1           1           1           1
 AtZEff=   0.0000000   0.0000000   0.0000000   0.0000000   0.0000000   0.0000000   0.0000000   0.0000000   0.0000000   0.0000000
 NQMom=    0.0000000   0.0000000   0.0000000   0.0000000   0.0000000   0.0000000   0.0000000   0.0000000   0.0000000   0.0000000
 NMagM=    2.7928460   2.7928460   2.7928460   2.7928460   2.7928460   2.7928460   2.7928460   2.7928460   2.7928460   2.7928460
 AtZNuc=   1.0000000   1.0000000   1.0000000   1.0000000   1.0000000   1.0000000   1.0000000   1.0000000   1.0000000   1.0000000
 Leave Link  101 at Mon Jul 29 09:50:36 2019, MaxMem=  4194304000 cpu:         5.9
 (Enter /home/minenky/programs//g09/l103.exe)

 GradGradGradGradGradGradGradGradGradGradGradGradGradGradGradGradGradGrad
 Berny optimization.
 Initialization pass.
                           ----------------------------
                           !    Initial Parameters    !
                           ! (Angstroms and Degrees)  !
 --------------------------                            --------------------------
 ! Name  Definition              Value          Derivative Info.                !
 --------------------------------------------------------------------------------
 ! R1    R(1,2)                  1.4204         estimate D2E/DX2                !
 ! R2    R(1,4)                  1.3747         estimate D2E/DX2                !
 ! R3    R(1,33)                 1.0866         estimate D2E/DX2                !
 ! R4    R(2,3)                  1.3748         estimate D2E/DX2                !
 ! R5    R(2,34)                 1.0866         estimate D2E/DX2                !
 ! R6    R(3,6)                  1.4234         estimate D2E/DX2                !
 ! R7    R(3,35)                 1.0876         estimate D2E/DX2                !
 ! R8    R(4,5)                  1.4236         estimate D2E/DX2                !
 ! R9    R(4,36)                 1.0876         estimate D2E/DX2                !
 ! R10   R(5,6)                  1.4304         estimate D2E/DX2                !
 ! R11   R(5,7)                  1.4088         estimate D2E/DX2                !
 ! R12   R(6,8)                  1.4089         estimate D2E/DX2                !
 ! R13   R(7,9)                  1.3903         estimate D2E/DX2                !
 ! R14   R(7,37)                 1.0843         estimate D2E/DX2                !
 ! R15   R(8,10)                 1.3902         estimate D2E/DX2                !
 ! R16   R(8,38)                 1.0842         estimate D2E/DX2                !
 ! R17   R(9,10)                 1.4366         estimate D2E/DX2                !
 ! R18   R(9,11)                 1.476          estimate D2E/DX2                !
 ! R19   R(10,12)                1.476          estimate D2E/DX2                !
 ! R20   R(11,13)                1.4462         estimate D2E/DX2                !
 ! R21   R(11,18)                1.3777         estimate D2E/DX2                !
 ! R22   R(12,14)                1.4462         estimate D2E/DX2                !
 ! R23   R(12,17)                1.3776         estimate D2E/DX2                !
 ! R24   R(13,14)                1.4383         estimate D2E/DX2                !
 ! R25   R(13,15)                1.423          estimate D2E/DX2                !
 ! R26   R(14,16)                1.4231         estimate D2E/DX2                !
 ! R27   R(15,25)                1.448          estimate D2E/DX2                !
 ! R28   R(15,28)                1.4199         estimate D2E/DX2                !
 ! R29   R(16,19)                1.448          estimate D2E/DX2                !
 ! R30   R(16,23)                1.4198         estimate D2E/DX2                !
 ! R31   R(17,20)                1.4184         estimate D2E/DX2                !
 ! R32   R(17,39)                1.0841         estimate D2E/DX2                !
 ! R33   R(18,24)                1.4185         estimate D2E/DX2                !
 ! R34   R(18,40)                1.0841         estimate D2E/DX2                !
 ! R35   R(19,20)                1.4242         estimate D2E/DX2                !
 ! R36   R(19,21)                1.4178         estimate D2E/DX2                !
 ! R37   R(20,22)                1.419          estimate D2E/DX2                !
 ! R38   R(21,32)                1.3811         estimate D2E/DX2                !
 ! R39   R(21,41)                1.084          estimate D2E/DX2                !
 ! R40   R(22,31)                1.3773         estimate D2E/DX2                !
 ! R41   R(22,42)                1.0876         estimate D2E/DX2                !
 ! R42   R(23,28)                1.3665         estimate D2E/DX2                !
 ! R43   R(23,43)                1.0836         estimate D2E/DX2                !
 ! R44   R(24,25)                1.4242         estimate D2E/DX2                !
 ! R45   R(24,26)                1.4192         estimate D2E/DX2                !
 ! R46   R(25,27)                1.4176         estimate D2E/DX2                !
 ! R47   R(26,30)                1.3772         estimate D2E/DX2                !
 ! R48   R(26,44)                1.0876         estimate D2E/DX2                !
 ! R49   R(27,29)                1.3811         estimate D2E/DX2                !
 ! R50   R(27,45)                1.0843         estimate D2E/DX2                !
 ! R51   R(28,46)                1.0836         estimate D2E/DX2                !
 ! R52   R(29,30)                1.4111         estimate D2E/DX2                !
 ! R53   R(29,47)                1.0866         estimate D2E/DX2                !
 ! R54   R(30,48)                1.0866         estimate D2E/DX2                !
 ! R55   R(31,32)                1.4111         estimate D2E/DX2                !
 ! R56   R(31,49)                1.0865         estimate D2E/DX2                !
 ! R57   R(32,50)                1.0866         estimate D2E/DX2                !
 ! A1    A(2,1,4)              120.3742         estimate D2E/DX2                !
 ! A2    A(2,1,33)             119.5186         estimate D2E/DX2                !
 ! A3    A(4,1,33)             120.1071         estimate D2E/DX2                !
 ! A4    A(1,2,3)              120.3606         estimate D2E/DX2                !
 ! A5    A(1,2,34)             119.5215         estimate D2E/DX2                !
 ! A6    A(3,2,34)             120.1178         estimate D2E/DX2                !
 ! A7    A(2,3,6)              120.6403         estimate D2E/DX2                !
 ! A8    A(2,3,35)             120.5645         estimate D2E/DX2                !
 ! A9    A(6,3,35)             118.7953         estimate D2E/DX2                !
 ! A10   A(1,4,5)              120.6399         estimate D2E/DX2                !
 ! A11   A(1,4,36)             120.5521         estimate D2E/DX2                !
 ! A12   A(5,4,36)             118.8079         estimate D2E/DX2                !
 ! A13   A(4,5,6)              118.9816         estimate D2E/DX2                !
 ! A14   A(4,5,7)              122.6185         estimate D2E/DX2                !
 ! A15   A(6,5,7)              118.3998         estimate D2E/DX2                !
 ! A16   A(3,6,5)              119.0033         estimate D2E/DX2                !
 ! A17   A(3,6,8)              122.6198         estimate D2E/DX2                !
 ! A18   A(5,6,8)              118.3769         estimate D2E/DX2                !
 ! A19   A(5,7,9)              122.9517         estimate D2E/DX2                !
 ! A20   A(5,7,37)             116.7223         estimate D2E/DX2                !
 ! A21   A(9,7,37)             120.326          estimate D2E/DX2                !
 ! A22   A(6,8,10)             122.9517         estimate D2E/DX2                !
 ! A23   A(6,8,38)             116.742          estimate D2E/DX2                !
 ! A24   A(10,8,38)            120.3062         estimate D2E/DX2                !
 ! A25   A(7,9,10)             118.6488         estimate D2E/DX2                !
 ! A26   A(7,9,11)             121.6103         estimate D2E/DX2                !
 ! A27   A(10,9,11)            119.7408         estimate D2E/DX2                !
 ! A28   A(8,10,9)             118.6709         estimate D2E/DX2                !
 ! A29   A(8,10,12)            121.5974         estimate D2E/DX2                !
 ! A30   A(9,10,12)            119.7317         estimate D2E/DX2                !
 ! A31   A(9,11,13)            119.8916         estimate D2E/DX2                !
 ! A32   A(9,11,18)            121.4891         estimate D2E/DX2                !
 ! A33   A(13,11,18)           118.6193         estimate D2E/DX2                !
 ! A34   A(10,12,14)           119.8902         estimate D2E/DX2                !
 ! A35   A(10,12,17)           121.4809         estimate D2E/DX2                !
 ! A36   A(14,12,17)           118.6289         estimate D2E/DX2                !
 ! A37   A(11,13,14)           120.3691         estimate D2E/DX2                !
 ! A38   A(11,13,15)           119.6031         estimate D2E/DX2                !
 ! A39   A(14,13,15)           120.0278         estimate D2E/DX2                !
 ! A40   A(12,14,13)           120.3758         estimate D2E/DX2                !
 ! A41   A(12,14,16)           119.5968         estimate D2E/DX2                !
 ! A42   A(13,14,16)           120.0274         estimate D2E/DX2                !
 ! A43   A(13,15,25)           120.6918         estimate D2E/DX2                !
 ! A44   A(13,15,28)           118.1797         estimate D2E/DX2                !
 ! A45   A(25,15,28)           121.1285         estimate D2E/DX2                !
 ! A46   A(14,16,19)           120.6803         estimate D2E/DX2                !
 ! A47   A(14,16,23)           118.1786         estimate D2E/DX2                !
 ! A48   A(19,16,23)           121.1411         estimate D2E/DX2                !
 ! A49   A(12,17,20)           123.3012         estimate D2E/DX2                !
 ! A50   A(12,17,39)           120.4017         estimate D2E/DX2                !
 ! A51   A(20,17,39)           116.2971         estimate D2E/DX2                !
 ! A52   A(11,18,24)           123.2977         estimate D2E/DX2                !
 ! A53   A(11,18,40)           120.4185         estimate D2E/DX2                !
 ! A54   A(24,18,40)           116.2838         estimate D2E/DX2                !
 ! A55   A(16,19,20)           118.3459         estimate D2E/DX2                !
 ! A56   A(16,19,21)           123.7921         estimate D2E/DX2                !
 ! A57   A(20,19,21)           117.862          estimate D2E/DX2                !
 ! A58   A(17,20,19)           119.4468         estimate D2E/DX2                !
 ! A59   A(17,20,22)           120.7598         estimate D2E/DX2                !
 ! A60   A(19,20,22)           119.7934         estimate D2E/DX2                !
 ! A61   A(19,21,32)           121.3331         estimate D2E/DX2                !
 ! A62   A(19,21,41)           120.2239         estimate D2E/DX2                !
 ! A63   A(32,21,41)           118.443          estimate D2E/DX2                !
 ! A64   A(20,22,31)           120.9289         estimate D2E/DX2                !
 ! A65   A(20,22,42)           118.5546         estimate D2E/DX2                !
 ! A66   A(31,22,42)           120.5165         estimate D2E/DX2                !
 ! A67   A(16,23,28)           121.7946         estimate D2E/DX2                !
 ! A68   A(16,23,43)           119.801          estimate D2E/DX2                !
 ! A69   A(28,23,43)           118.4044         estimate D2E/DX2                !
 ! A70   A(18,24,25)           119.4586         estimate D2E/DX2                !
 ! A71   A(18,24,26)           120.7644         estimate D2E/DX2                !
 ! A72   A(25,24,26)           119.777          estimate D2E/DX2                !
 ! A73   A(15,25,24)           118.3293         estimate D2E/DX2                !
 ! A74   A(15,25,27)           123.8011         estimate D2E/DX2                !
 ! A75   A(24,25,27)           117.8696         estimate D2E/DX2                !
 ! A76   A(24,26,30)           120.9346         estimate D2E/DX2                !
 ! A77   A(24,26,44)           118.5468         estimate D2E/DX2                !
 ! A78   A(30,26,44)           120.5186         estimate D2E/DX2                !
 ! A79   A(25,27,29)           121.3405         estimate D2E/DX2                !
 ! A80   A(25,27,45)           120.2257         estimate D2E/DX2                !
 ! A81   A(29,27,45)           118.4338         estimate D2E/DX2                !
 ! A82   A(15,28,23)           121.7916         estimate D2E/DX2                !
 ! A83   A(15,28,46)           119.8054         estimate D2E/DX2                !
 ! A84   A(23,28,46)           118.403          estimate D2E/DX2                !
 ! A85   A(27,29,30)           120.518          estimate D2E/DX2                !
 ! A86   A(27,29,47)           119.6521         estimate D2E/DX2                !
 ! A87   A(30,29,47)           119.8299         estimate D2E/DX2                !
 ! A88   A(26,30,29)           119.5603         estimate D2E/DX2                !
 ! A89   A(26,30,48)           120.3883         estimate D2E/DX2                !
 ! A90   A(29,30,48)           120.0513         estimate D2E/DX2                !
 ! A91   A(22,31,32)           119.5552         estimate D2E/DX2                !
 ! A92   A(22,31,49)           120.3937         estimate D2E/DX2                !
 ! A93   A(32,31,49)           120.0511         estimate D2E/DX2                !
 ! A94   A(21,32,31)           120.5275         estimate D2E/DX2                !
 ! A95   A(21,32,50)           119.6531         estimate D2E/DX2                !
 ! A96   A(31,32,50)           119.8193         estimate D2E/DX2                !
 ! D1    D(4,1,2,3)             -0.0098         estimate D2E/DX2                !
 ! D2    D(4,1,2,34)           179.9987         estimate D2E/DX2                !
 ! D3    D(33,1,2,3)           179.9908         estimate D2E/DX2                !
 ! D4    D(33,1,2,34)           -0.0006         estimate D2E/DX2                !
 ! D5    D(2,1,4,5)              0.0131         estimate D2E/DX2                !
 ! D6    D(2,1,4,36)           179.9899         estimate D2E/DX2                !
 ! D7    D(33,1,4,5)          -179.9875         estimate D2E/DX2                !
 ! D8    D(33,1,4,36)           -0.0108         estimate D2E/DX2                !
 ! D9    D(1,2,3,6)             -0.0096         estimate D2E/DX2                !
 ! D10   D(1,2,3,35)          -179.9985         estimate D2E/DX2                !
 ! D11   D(34,2,3,6)           179.9817         estimate D2E/DX2                !
 ! D12   D(34,2,3,35)           -0.0071         estimate D2E/DX2                !
 ! D13   D(2,3,6,5)              0.0252         estimate D2E/DX2                !
 ! D14   D(2,3,6,8)           -179.9785         estimate D2E/DX2                !
 ! D15   D(35,3,6,5)          -179.9858         estimate D2E/DX2                !
 ! D16   D(35,3,6,8)             0.0105         estimate D2E/DX2                !
 ! D17   D(1,4,5,6)              0.0027         estimate D2E/DX2                !
 ! D18   D(1,4,5,7)           -179.9586         estimate D2E/DX2                !
 ! D19   D(36,4,5,6)          -179.9744         estimate D2E/DX2                !
 ! D20   D(36,4,5,7)             0.0642         estimate D2E/DX2                !
 ! D21   D(4,5,6,3)             -0.0216         estimate D2E/DX2                !
 ! D22   D(4,5,6,8)            179.9819         estimate D2E/DX2                !
 ! D23   D(7,5,6,3)            179.9414         estimate D2E/DX2                !
 ! D24   D(7,5,6,8)             -0.0551         estimate D2E/DX2                !
 ! D25   D(4,5,7,9)           -179.969          estimate D2E/DX2                !
 ! D26   D(4,5,7,37)             0.0637         estimate D2E/DX2                !
 ! D27   D(6,5,7,9)              0.0695         estimate D2E/DX2                !
 ! D28   D(6,5,7,37)          -179.8979         estimate D2E/DX2                !
 ! D29   D(3,6,8,10)           179.9528         estimate D2E/DX2                !
 ! D30   D(3,6,8,38)            -0.1113         estimate D2E/DX2                !
 ! D31   D(5,6,8,10)            -0.0509         estimate D2E/DX2                !
 ! D32   D(5,6,8,38)           179.885          estimate D2E/DX2                !
 ! D33   D(5,7,9,10)             0.0206         estimate D2E/DX2                !
 ! D34   D(5,7,9,11)          -179.8872         estimate D2E/DX2                !
 ! D35   D(37,7,9,10)          179.9868         estimate D2E/DX2                !
 ! D36   D(37,7,9,11)            0.079          estimate D2E/DX2                !
 ! D37   D(6,8,10,9)             0.1413         estimate D2E/DX2                !
 ! D38   D(6,8,10,12)         -179.8822         estimate D2E/DX2                !
 ! D39   D(38,8,10,9)         -179.7924         estimate D2E/DX2                !
 ! D40   D(38,8,10,12)           0.1841         estimate D2E/DX2                !
 ! D41   D(7,9,10,8)            -0.1239         estimate D2E/DX2                !
 ! D42   D(7,9,10,12)          179.8991         estimate D2E/DX2                !
 ! D43   D(11,9,10,8)          179.7857         estimate D2E/DX2                !
 ! D44   D(11,9,10,12)          -0.1913         estimate D2E/DX2                !
 ! D45   D(7,9,11,13)          179.8199         estimate D2E/DX2                !
 ! D46   D(7,9,11,18)           -0.1393         estimate D2E/DX2                !
 ! D47   D(10,9,11,13)          -0.0869         estimate D2E/DX2                !
 ! D48   D(10,9,11,18)         179.9538         estimate D2E/DX2                !
 ! D49   D(8,10,12,14)        -179.636          estimate D2E/DX2                !
 ! D50   D(8,10,12,17)           0.381          estimate D2E/DX2                !
 ! D51   D(9,10,12,14)           0.3403         estimate D2E/DX2                !
 ! D52   D(9,10,12,17)        -179.6427         estimate D2E/DX2                !
 ! D53   D(9,11,13,14)           0.2214         estimate D2E/DX2                !
 ! D54   D(9,11,13,15)        -179.8542         estimate D2E/DX2                !
 ! D55   D(18,11,13,14)       -179.8182         estimate D2E/DX2                !
 ! D56   D(18,11,13,15)          0.1062         estimate D2E/DX2                !
 ! D57   D(9,11,18,24)         179.8433         estimate D2E/DX2                !
 ! D58   D(9,11,18,40)          -0.1426         estimate D2E/DX2                !
 ! D59   D(13,11,18,24)         -0.1165         estimate D2E/DX2                !
 ! D60   D(13,11,18,40)        179.8977         estimate D2E/DX2                !
 ! D61   D(10,12,14,13)         -0.2085         estimate D2E/DX2                !
 ! D62   D(10,12,14,16)        179.8593         estimate D2E/DX2                !
 ! D63   D(17,12,14,13)        179.7749         estimate D2E/DX2                !
 ! D64   D(17,12,14,16)         -0.1573         estimate D2E/DX2                !
 ! D65   D(10,12,17,20)       -179.9182         estimate D2E/DX2                !
 ! D66   D(10,12,17,39)          0.1507         estimate D2E/DX2                !
 ! D67   D(14,12,17,20)          0.0986         estimate D2E/DX2                !
 ! D68   D(14,12,17,39)       -179.8324         estimate D2E/DX2                !
 ! D69   D(11,13,14,12)         -0.0721         estimate D2E/DX2                !
 ! D70   D(11,13,14,16)        179.8598         estimate D2E/DX2                !
 ! D71   D(15,13,14,12)       -179.9962         estimate D2E/DX2                !
 ! D72   D(15,13,14,16)         -0.0643         estimate D2E/DX2                !
 ! D73   D(11,13,15,25)         -0.0074         estimate D2E/DX2                !
 ! D74   D(11,13,15,28)       -179.9848         estimate D2E/DX2                !
 ! D75   D(14,13,15,25)        179.9172         estimate D2E/DX2                !
 ! D76   D(14,13,15,28)         -0.0602         estimate D2E/DX2                !
 ! D77   D(12,14,16,19)          0.1155         estimate D2E/DX2                !
 ! D78   D(12,14,16,23)       -179.9173         estimate D2E/DX2                !
 ! D79   D(13,14,16,19)       -179.8169         estimate D2E/DX2                !
 ! D80   D(13,14,16,23)          0.1503         estimate D2E/DX2                !
 ! D81   D(13,15,25,24)         -0.0837         estimate D2E/DX2                !
 ! D82   D(13,15,25,27)        179.9451         estimate D2E/DX2                !
 ! D83   D(28,15,25,24)        179.893          estimate D2E/DX2                !
 ! D84   D(28,15,25,27)         -0.0782         estimate D2E/DX2                !
 ! D85   D(13,15,28,23)          0.0992         estimate D2E/DX2                !
 ! D86   D(13,15,28,46)       -179.9459         estimate D2E/DX2                !
 ! D87   D(25,15,28,23)       -179.8781         estimate D2E/DX2                !
 ! D88   D(25,15,28,46)          0.0767         estimate D2E/DX2                !
 ! D89   D(14,16,19,20)         -0.0117         estimate D2E/DX2                !
 ! D90   D(14,16,19,21)        179.9197         estimate D2E/DX2                !
 ! D91   D(23,16,19,20)       -179.9779         estimate D2E/DX2                !
 ! D92   D(23,16,19,21)         -0.0466         estimate D2E/DX2                !
 ! D93   D(14,16,23,28)         -0.1152         estimate D2E/DX2                !
 ! D94   D(14,16,23,43)        179.8827         estimate D2E/DX2                !
 ! D95   D(19,16,23,28)        179.8519         estimate D2E/DX2                !
 ! D96   D(19,16,23,43)         -0.1502         estimate D2E/DX2                !
 ! D97   D(12,17,20,19)          0.0055         estimate D2E/DX2                !
 ! D98   D(12,17,20,22)       -179.9844         estimate D2E/DX2                !
 ! D99   D(39,17,20,19)        179.9392         estimate D2E/DX2                !
 ! D100  D(39,17,20,22)         -0.0507         estimate D2E/DX2                !
 ! D101  D(11,18,24,25)          0.0241         estimate D2E/DX2                !
 ! D102  D(11,18,24,26)       -179.9663         estimate D2E/DX2                !
 ! D103  D(40,18,24,25)       -179.9895         estimate D2E/DX2                !
 ! D104  D(40,18,24,26)          0.0201         estimate D2E/DX2                !
 ! D105  D(16,19,20,17)         -0.0498         estimate D2E/DX2                !
 ! D106  D(16,19,20,22)        179.9402         estimate D2E/DX2                !
 ! D107  D(21,19,20,17)       -179.9853         estimate D2E/DX2                !
 ! D108  D(21,19,20,22)          0.0047         estimate D2E/DX2                !
 ! D109  D(16,19,21,32)       -179.9406         estimate D2E/DX2                !
 ! D110  D(16,19,21,41)          0.031          estimate D2E/DX2                !
 ! D111  D(20,19,21,32)         -0.0089         estimate D2E/DX2                !
 ! D112  D(20,19,21,41)        179.9627         estimate D2E/DX2                !
 ! D113  D(17,20,22,31)        179.9929         estimate D2E/DX2                !
 ! D114  D(17,20,22,42)         -0.0074         estimate D2E/DX2                !
 ! D115  D(19,20,22,31)          0.003          estimate D2E/DX2                !
 ! D116  D(19,20,22,42)       -179.9972         estimate D2E/DX2                !
 ! D117  D(19,21,32,31)          0.0054         estimate D2E/DX2                !
 ! D118  D(19,21,32,50)       -179.9987         estimate D2E/DX2                !
 ! D119  D(41,21,32,31)       -179.9666         estimate D2E/DX2                !
 ! D120  D(41,21,32,50)          0.0292         estimate D2E/DX2                !
 ! D121  D(20,22,31,32)         -0.0067         estimate D2E/DX2                !
 ! D122  D(20,22,31,49)        179.9921         estimate D2E/DX2                !
 ! D123  D(42,22,31,32)        179.9935         estimate D2E/DX2                !
 ! D124  D(42,22,31,49)         -0.0077         estimate D2E/DX2                !
 ! D125  D(16,23,28,15)         -0.0107         estimate D2E/DX2                !
 ! D126  D(16,23,28,46)       -179.9662         estimate D2E/DX2                !
 ! D127  D(43,23,28,15)        179.9913         estimate D2E/DX2                !
 ! D128  D(43,23,28,46)          0.0358         estimate D2E/DX2                !
 ! D129  D(18,24,25,15)          0.0769         estimate D2E/DX2                !
 ! D130  D(18,24,25,27)       -179.9502         estimate D2E/DX2                !
 ! D131  D(26,24,25,15)       -179.9326         estimate D2E/DX2                !
 ! D132  D(26,24,25,27)          0.0403         estimate D2E/DX2                !
 ! D133  D(18,24,26,30)        179.9704         estimate D2E/DX2                !
 ! D134  D(18,24,26,44)         -0.0292         estimate D2E/DX2                !
 ! D135  D(25,24,26,30)         -0.02           estimate D2E/DX2                !
 ! D136  D(25,24,26,44)        179.9805         estimate D2E/DX2                !
 ! D137  D(15,25,27,29)        179.9359         estimate D2E/DX2                !
 ! D138  D(15,25,27,45)         -0.08           estimate D2E/DX2                !
 ! D139  D(24,25,27,29)         -0.0354         estimate D2E/DX2                !
 ! D140  D(24,25,27,45)        179.9487         estimate D2E/DX2                !
 ! D141  D(24,26,30,29)         -0.0069         estimate D2E/DX2                !
 ! D142  D(24,26,30,48)        179.9967         estimate D2E/DX2                !
 ! D143  D(44,26,30,29)        179.9927         estimate D2E/DX2                !
 ! D144  D(44,26,30,48)         -0.0038         estimate D2E/DX2                !
 ! D145  D(25,27,29,30)          0.0094         estimate D2E/DX2                !
 ! D146  D(25,27,29,47)        179.9974         estimate D2E/DX2                !
 ! D147  D(45,27,29,30)       -179.975          estimate D2E/DX2                !
 ! D148  D(45,27,29,47)          0.013          estimate D2E/DX2                !
 ! D149  D(27,29,30,26)          0.0124         estimate D2E/DX2                !
 ! D150  D(27,29,30,48)       -179.9911         estimate D2E/DX2                !
 ! D151  D(47,29,30,26)       -179.9756         estimate D2E/DX2                !
 ! D152  D(47,29,30,48)          0.0209         estimate D2E/DX2                !
 ! D153  D(22,31,32,21)          0.0025         estimate D2E/DX2                !
 ! D154  D(22,31,32,50)       -179.9933         estimate D2E/DX2                !
 ! D155  D(49,31,32,21)       -179.9963         estimate D2E/DX2                !
 ! D156  D(49,31,32,50)          0.0079         estimate D2E/DX2                !
 --------------------------------------------------------------------------------
 Trust Radius=3.00D-01 FncErr=1.00D-07 GrdErr=1.00D-06
 Number of steps in this run=    300 maximum allowed number of steps=    300.
 GradGradGradGradGradGradGradGradGradGradGradGradGradGradGradGradGradGrad

 Leave Link  103 at Mon Jul 29 09:50:36 2019, MaxMem=  4194304000 cpu:         0.3
 (Enter /home/minenky/programs//g09/l202.exe)
                          Input orientation:                          
 ---------------------------------------------------------------------
 Center     Atomic      Atomic             Coordinates (Angstroms)
 Number     Number       Type             X           Y           Z
 ---------------------------------------------------------------------
      1          6           0        0.944300    6.271800    1.644000
      2          6           0        1.222400    5.238500    0.710000
      3          6           0        2.445300    4.610400    0.712300
      4          6           0        1.894800    6.654800    2.560400
      5          6           0        3.170800    6.024300    2.588800
      6          6           0        3.450900    4.983900    1.647900
      7          6           0        4.174700    6.382900    3.509800
      8          6           0        4.717900    4.368900    1.687100
      9          6           0        5.423300    5.772300    3.543300
     10          6           0        5.705300    4.728800    2.597100
     11          6           0        6.452900    6.170000    4.523200
     12          6           0        7.024000    4.065800    2.609900
     13          6           0        7.738200    5.507000    4.527400
     14          6           0        8.021600    4.464200    3.578200
     15          6           0        8.725300    5.893200    5.476900
     16          6           0        9.289900    3.818700    3.586900
     17          6           0        7.335400    3.066300    1.714500
     18          6           0        6.221400    7.166500    5.445900
     19          6           0        9.591700    2.769900    2.635200
     20          6           0        8.588700    2.402400    1.693300
     21          6           0       10.831900    2.084800    2.583700
     22          6           0        8.852100    1.379300    0.745900
     23          6           0       10.246100    4.232300    4.551500
     24          6           0        7.181300    7.576900    6.406200
     25          6           0        8.456000    6.942400    6.437800
     26          6           0        6.885100    8.610000    7.333000
     27          6           0        9.389200    7.378200    7.411900
     28          6           0        9.976600    5.222500    5.453800
     29          6           0        9.078700    8.385700    8.304000
     30          6           0        7.814200    9.010800    8.267200
     31          6           0       10.067800    0.732500    0.722100
     32          6           0       11.065800    1.092000    1.652600
     33          1           0       -0.026800    6.759100    1.629900
     34          1           0        0.461000    4.946800   -0.008200
     35          1           0        2.661800    3.818800   -0.001400
     36          1           0        1.685000    7.445800    3.276800
     37          1           0        3.932800    7.173300    4.211500
     38          1           0        4.901100    3.582500    0.963500
     39          1           0        6.610200    2.747000    0.974700
     40          1           0        5.269000    7.683900    5.467700
     41          1           0       11.622500    2.334200    3.282200
     42          1           0        8.071800    1.114800    0.035900
     43          1           0       11.219500    3.757300    4.582900
     44          1           0        5.905700    9.081000    7.290800
     45          1           0       10.370600    6.921000    7.470600
     46          1           0       10.746900    5.494900    6.165500
     47          1           0        9.814900    8.698200    9.039500
     48          1           0        7.578000    9.802800    8.972600
     49          1           0       10.260100   -0.049700   -0.007000
     50          1           0       12.026500    0.584600    1.637600
 ---------------------------------------------------------------------
                    Distance matrix (angstroms):
                    1          2          3          4          5
     1  C    0.000000
     2  C    1.420354   0.000000
     3  C    2.425142   1.374772   0.000000
     4  C    1.374747   2.425285   2.810355   0.000000
     5  C    2.431297   2.818445   2.459007   1.423556   0.000000
     6  C    2.818110   2.431191   1.423405   2.458864   1.430448
     7  C    3.732163   4.226654   3.736119   2.484599   1.408776
     8  C    4.226457   3.732218   2.484606   3.736025   2.438633
     9  C    4.890632   5.095105   4.270018   3.767653   2.459335
    10  C    5.094739   4.890535   3.767504   4.269746   2.846415
    11  C    6.216497   6.539596   5.745970   4.986370   3.812520
    12  C    6.539278   6.216382   4.986178   5.745787   4.322420
    13  C    7.419972   7.556473   6.585869   6.271512   4.988678
    14  C    7.556237   7.419921   6.271354   6.585767   5.190673
    15  C    8.682075   8.913219   7.986576   7.466039   6.261851
    16  C    8.913002   8.681990   7.465833   7.986531   6.580597
    17  C    7.150270   6.564773   5.225106   6.572139   5.182476
    18  C    6.565266   7.150939   6.572636   5.225650   4.332875
    19  C    9.382074   8.935634   7.626009   8.622083   7.198696
    20  C    8.568053   7.954415   6.601438   7.977660   6.578276
    21  C   10.778620  10.285867   8.956330  10.037789   8.614647
    22  C    9.342186   8.550265   7.175529   8.917810   7.566338
    23  C    9.956736   9.858840   8.702580   8.920605   7.557997
    24  C    7.954999   8.568740   7.978115   6.602085   5.750410
    25  C    8.936211   9.382747   8.622534   7.626683   6.602352
    26  C    8.551316   9.343303   8.918649   7.176602   6.556623
    27  C   10.286356  10.779165  10.038083   8.956919   7.985226
    28  C    9.858907   9.956903   8.920592   8.702801   7.427653
    29  C   10.723462  11.370803  10.765166   9.359133   8.552368
    30  C    9.927962  10.714166  10.259879   8.553222   7.919885
    31  C   10.713169   9.926998   8.552234  10.259187   8.891362
    32  C   11.369924  10.722615   9.358222  10.764575   9.356018
    33  H    1.086598   2.172312   3.401497   2.137582   3.418196
    34  H    2.172319   1.086568   2.137693   3.401581   3.904924
    35  H    3.416776   2.143248   1.087599   3.897949   3.439832
    36  H    2.143116   3.416816   3.897975   1.087624   2.168319
    37  H    4.041768   4.832207   4.585359   2.673652   2.129319
    38  H    4.832358   4.042206   2.674067   4.585516   3.405573
    39  H    6.706310   5.941888   4.570285   6.326163   5.017518
    40  H    5.942873   6.707508   6.327204   4.571287   3.929985
    41  H   11.498363  11.100146   9.798289  10.668492   9.248182
    42  H    8.943260   8.023316   6.658396   8.672948   7.391907
    43  H   10.979052  10.822907   9.627871   9.971762   8.596354
    44  H    8.024553   8.944553   8.673943   6.659613   6.239543
    45  H   11.100714  11.498960  10.668827   9.798985   8.744893
    46  H   10.823054  10.979268   9.971775   9.628177   8.394661
    47  H   11.801203  12.457173  11.847505  10.434664   9.638741
    48  H   10.496776  11.379677  11.024436   9.128251   8.628637
    49  H   11.378545  10.495674   9.127159  11.023616   9.689676
    50  H   12.456301  11.800331  10.433726  11.846950  10.436405
                    6          7          8          9         10
     6  C    0.000000
     7  C    2.438803   0.000000
     8  C    1.408918   2.770108   0.000000
     9  C    2.846836   1.390308   2.431584   0.000000
    10  C    2.459345   2.431420   1.390175   1.436562   0.000000
    11  C    4.322752   2.502499   3.781223   1.475956   2.519092
    12  C    3.812531   3.781175   2.502304   2.519051   1.476043
    13  C    5.190963   3.808050   4.299394   2.529348   2.909353
    14  C    4.988732   4.299387   3.807857   2.909211   2.529390
    15  C    6.580833   4.981691   5.722353   3.828398   4.332375
    16  C    6.261895   5.722442   4.981480   4.332326   3.828491
    17  C    4.332547   4.920667   2.923837   3.784583   2.490003
    18  C    5.183070   2.924294   4.920941   2.490109   3.784759
    19  C    6.601968   6.569824   5.216284   5.216762   4.352338
    20  C    5.750060   6.215098   4.341688   4.979808   3.813527
    21  C    7.984965   7.978072   6.588019   6.615999   5.768270
    22  C    6.555891   7.386016   5.187984   6.235428   4.954638
    23  C    7.427687   6.524731   6.227716   5.162118   4.968406
    24  C    6.578826   4.342167   6.215264   3.813573   4.979909
    25  C    7.199298   5.216872   6.570041   4.352532   5.217025
    26  C    7.567212   5.188748   7.386465   4.954919   6.235735
    27  C    8.615090   6.588476   7.978112   5.768305   6.616097
    28  C    7.558212   6.227978   6.524614   4.968383   5.162216
    29  C    9.356711   7.144563   8.884516   6.546455   7.571093
    30  C    8.892100   6.540999   8.627400   6.206409   7.411681
    31  C    7.919272   8.627104   6.540341   7.411487   6.206242
    32  C    8.551819   8.884260   7.143885   7.570849   6.546247
    33  H    3.904620   4.618241   5.313051   5.859903   6.157480
    34  H    3.418120   5.313217   4.618356   6.157842   5.859846
    35  H    2.168024   4.603477   2.716834   4.899688   4.104046
    36  H    3.439865   2.717104   4.603579   4.104450   4.899683
    37  H    3.405546   1.084265   3.854042   2.151949   3.423978
    38  H    2.129649   3.854029   1.084244   3.423928   2.151602
    39  H    3.929134   5.057486   2.592079   4.142328   2.716350
    40  H    5.018601   2.592965   5.058248   2.716862   4.142864
    41  H    8.744535   8.480183   7.372778   7.093574   6.420025
    42  H    6.238685   7.416754   4.956236   6.403805   5.022058
    43  H    8.394636   7.594375   7.143565   6.223900   5.940843
    44  H    7.392874   4.957022   7.417291   5.022346   6.404110
    45  H    9.248699   7.373375   8.480277   6.420200   7.093784
    46  H    8.596595   7.143885   7.594260   5.940842   6.223995
    47  H   10.437062   8.231042   9.938814   7.619400   8.611008
    48  H    9.690510   7.288371   9.528166   7.096828   8.360591
    49  H    8.627921   9.527766   7.287660   8.360320   7.096591
    50  H    9.638198   9.938621   8.230371   8.610817   7.619226
                   11         12         13         14         15
    11  C    0.000000
    12  C    2.900781   0.000000
    13  C    1.446231   2.502788   0.000000
    14  C    2.502718   1.446213   1.438307   0.000000
    15  C    2.479912   3.801776   1.423049   2.478366   0.000000
    16  C    3.801820   2.479897   2.478441   1.423141   2.862590
    17  C    4.277915   1.377574   3.745887   2.428657   4.907019
    18  C    1.377672   4.278014   2.428634   3.745858   2.809229
    19  C    4.997728   2.876296   3.808884   2.495018   4.310558
    20  C    5.173469   2.460760   4.288824   2.850521   5.149755
    21  C    6.294931   4.292453   5.006037   3.814231   5.226115
    22  C    6.555529   3.746162   5.707751   4.269457   6.540163
    23  C    4.259560   3.765563   2.813362   2.439158   2.434705
    24  C    2.460818   5.173438   2.850353   4.288658   2.466248
    25  C    2.876579   4.997827   2.495043   3.808870   1.447989
    26  C    3.746381   6.555663   4.269400   5.707698   3.769940
    27  C    4.292574   6.294868   3.814123   5.005895   2.527887
    28  C    3.765665   4.259527   2.439179   2.813347   1.419903
    29  C    5.108679   7.436807   4.934223   6.231277   3.785491
    30  C    4.892936   7.555295   5.125280   6.534624   4.281975
    31  C    7.555281   4.892790   6.534768   5.125410   7.144456
    32  C    7.436752   5.108430   6.231342   4.934250   6.569226
    33  H    7.120726   7.611048   8.382034   8.592973   9.599398
    34  H    7.611351   7.120644   8.593203   8.381995   9.963968
    35  H    6.353943   5.090058   7.009271   6.477463   8.430951
    36  H    5.090584   6.354060   6.477976   7.009514   7.537694
    37  H    2.730324   4.666604   4.166223   4.945561   5.119370
    38  H    4.666337   2.729637   4.945121   4.165522   6.350954
    39  H    4.932902   2.141108   4.638067   3.423308   5.885748
    40  H    2.141400   4.933325   3.423449   4.638263   3.892647
    41  H    6.555777   4.959499   5.167685   4.194162   5.086940
    42  H    6.950665   4.053611   6.290968   4.875335   7.270808
    43  H    5.342767   4.646517   3.896663   3.425740   3.403283
    44  H    4.053759   6.950802   4.875235   6.290888   4.626278
    45  H    4.959792   6.555784   4.194205   5.167634   2.781766
    46  H    4.646649   5.342715   3.425754   3.896630   2.172482
    47  H    6.171856   8.401667   5.903854   7.139221   4.663408
    48  H    5.853225   8.585105   6.183799   7.602433   5.368537
    49  H    8.584996   5.853021   7.602478   6.183837   8.230846
    50  H    8.401690   6.171639   7.139362   5.903935   7.336169
                   16         17         18         19         20
    16  C    0.000000
    17  C    2.809281   0.000000
    18  C    4.907070   5.654731   0.000000
    19  C    1.448032   2.454879   6.212008   0.000000
    20  C    2.466436   1.418441   6.510205   1.424163   0.000000
    21  C    2.527960   3.734215   7.434553   1.417784   2.434261
    22  C    3.770096   2.466685   7.905837   2.459722   1.419042
    23  C    1.419802   4.228510   5.060404   2.497811   3.776879
    24  C    5.149632   6.510093   1.418454   6.567931   7.139163
    25  C    4.310513   6.212041   2.455102   5.758414   6.568066
    26  C    6.540098   7.905879   2.466847   7.968800   8.558199
    27  C    5.225947   7.434443   3.734291   6.640354   7.622452
    28  C    2.434651   5.060385   4.228561   3.756049   4.901081
    29  C    6.569104   8.646191   4.221297   7.995978   8.929800
    30  C    7.144284   8.860260   3.728027   8.592308   9.353447
    31  C    4.282153   3.727934   8.860329   2.835070   2.433009
    32  C    3.785529   4.221087   8.646206   2.440045   2.802647
    33  H    9.963769   8.236863   7.332655  10.461352   9.654620
    34  H    9.599314   7.332213   8.237505   9.751725   8.684963
    35  H    7.537082   5.035187   7.317850   7.488349   6.325057
    36  H    8.431282   7.317638   5.036063   9.208235   8.695081
    37  H    6.351534   5.888985   2.600285   7.341512   7.126024
    38  H    5.118553   2.599285   5.888986   5.045456   3.940005
    39  H    3.892675   1.084053   6.298792   3.412789   2.132979
    40  H    5.885985   6.299107   1.084087   7.131352   7.291142
    41  H    2.781655   4.623081   7.563372   2.175452   3.425375
    42  H    4.626494   2.677375   8.325572   3.435959   2.161498
    43  H    2.172359   4.877646   6.111335   2.723642   4.136019
    44  H    7.270728   8.325610   2.677430   8.665517   9.117795
    45  H    5.086777   7.563322   4.623369   6.420234   7.547855
    46  H    3.403186   6.111287   4.877727   4.606857   5.849954
    47  H    7.335938   9.566705   5.307853   8.729812   9.752298
    48  H    8.230785   9.905519   4.607391   9.678807  10.429556
    49  H    5.368605   4.607265   9.905491   3.921495   3.420145
    50  H    4.663491   5.307652   9.566804   3.420379   3.889212
                   21         22         23         24         25
    21  C    0.000000
    22  C    2.791925   0.000000
    23  C    2.971053   4.956353   0.000000
    24  C    7.622437   8.558085   4.900945   0.000000
    25  C    6.640427   7.968858   3.755959   1.424236   0.000000
    26  C    8.983948   9.977074   6.180398   1.419151   2.459675
    27  C    7.308419   8.983921   4.337379   2.434284   1.417623
    28  C    4.337531   6.180535   1.366481   3.776767   2.497706
    29  C    8.688894  10.308534   5.717938   2.802843   2.439994
    30  C    9.454002  10.765082   6.523391   2.433095   2.834941
    31  C    2.424483   1.377259   5.190828   9.353432   8.592438
    32  C    1.381053   2.409380   4.351668   8.929725   7.996022
    33  H   11.860446  10.419144  10.975105   8.685536   9.752302
    34  H   11.066371   9.149114  10.818944   9.655278  10.461996
    35  H    8.742999   6.695478   8.855591   8.695202   9.208308
    36  H   10.624805   9.724978   9.232761   6.326108   7.489444
    37  H    8.725832   8.353462   6.973008   3.941111   5.046688
    38  H    6.327918   4.529000   6.470318   7.125835   7.341267
    39  H    4.566195   2.636109   5.312192   7.290767   7.131186
    40  H    8.403168   8.653438   6.125724   2.132867   3.412900
    41  H    1.084044   3.875535   2.666155   7.547817   6.420284
    42  H    3.879476   1.087625   5.902290   9.117700   8.665613
    43  H    2.635202   5.097258   1.083567   5.849857   4.606783
    44  H    9.765810  10.527733   7.060646   2.161479   3.435877
    45  H    6.890821   8.845217   3.970611   3.425607   2.175506
    46  H    4.946241   7.064028   2.109492   4.135960   2.723532
    47  H    9.297779  11.103021   6.346049   3.889400   3.420276
    48  H   10.534393  11.843026   7.595746   3.420294   3.921477
    49  H    3.405110   2.142747   6.254250  10.429438   9.678827
    50  H    2.138405   3.391680   4.996634   9.752321   8.729949
                   26         27         28         29         30
    26  C    0.000000
    27  C    2.791787   0.000000
    28  C    4.956200   2.970898   0.000000
    29  C    2.409363   1.381054   4.351517   0.000000
    30  C    1.377170   2.424365   5.190608   1.411051   0.000000
    31  C   10.765156   9.454060   6.523603  10.818271  11.425301
    32  C   10.308517   8.688891   5.718086  10.069148  10.818190
    33  H    9.150166  11.066881  10.819028  11.406120  10.516900
    34  H   10.420236  11.860959  10.975249  12.457265  11.792705
    35  H    9.725497  10.624700   9.232328  11.446084  11.039648
    36  H    6.696952   8.744045   8.856242   8.990159   8.057320
    37  H    4.530336   6.329048   6.471201   6.685713   5.906807
    38  H    8.353595   8.725379   6.972309   9.716276   9.554927
    39  H    8.653226   8.402880   6.125609   9.571158   9.688414
    40  H    2.636055   4.566116   5.312267   4.801139   4.009477
    41  H    8.845202   6.890863   3.970782   8.264989   9.161352
    42  H   10.527770   9.765813   7.060815  11.056279  11.409096
    43  H    7.063906   4.946125   2.109521   6.312820   7.264255
    44  H    1.087587   3.879300   5.902103   3.402638   2.144914
    45  H    3.875612   1.084262   2.666012   2.123419   3.396618
    46  H    5.097098   2.635087   1.083550   3.963937   5.037800
    47  H    3.391703   2.138388   4.996387   1.086557   2.167249
    48  H    2.142702   3.405131   6.254149   2.169631   1.086574
    49  H   11.842999  10.534336   7.595841  11.900605  12.511494
    50  H   11.103091   9.297897   6.346305  10.676496  11.519371
                   31         32         33         34         35
    31  C    0.000000
    32  C    1.411054   0.000000
    33  H   11.791733  12.456417   0.000000
    34  H   10.515906  11.405241   2.491135   0.000000
    35  H    8.055901   8.988791   4.305238   2.473045   0.000000
    36  H   11.039304  11.445882   2.472670   4.305160   4.985565
    37  H    9.555001   9.716474   4.744961   5.900556   5.533230
    38  H    5.905554   6.684383   5.900769   4.745525   2.449762
    39  H    4.009615   4.801140   7.783059   6.604383   4.206113
    40  H    9.688713   9.571365   6.605260   7.784219   7.186623
    41  H    3.396564   2.123340  12.570443  11.926085   9.658168
    42  H    2.145003   3.402686   9.999314   8.521176   6.048232
    43  H    5.038016   3.964102  12.008758  11.757484   9.708441
    44  H   11.409134  11.056222   8.522415  10.000588   9.559802
    45  H    9.161412   8.264966  11.926689  12.571002  11.174973
    46  H    7.264450   6.312962  11.757656  12.008944  10.305766
    47  H   11.519352  10.676391  12.470820  13.543608  12.518517
    48  H   12.511602  11.900638  11.000561  12.445368  11.853689
    49  H    1.086464   2.169540  12.444256  10.999426   8.526399
    50  H    2.167146   1.086565  13.542767  12.469893  10.042110
                   36         37         38         39         40
    36  H    0.000000
    37  H    2.449597   0.000000
    38  H    5.533511   4.937707   0.000000
    39  H    7.185818   6.102252   1.902422   0.000000
    40  H    4.207350   1.903728   6.102840   6.808733   0.000000
    41  H   11.175079   9.133016   7.218853   5.533363   8.588519
    42  H    9.559090   8.442297   4.123509   2.383631   8.972916
    43  H   10.306193   8.056239   7.283735   5.940157   7.183976
    44  H    6.049825   4.124772   8.442597   8.972681   2.383478
    45  H    9.659349   7.220156   9.132544   8.588341   5.533529
    46  H    9.709203   7.284717   8.055523   7.183846   5.940205
    47  H   10.043530   7.761057  10.748841  10.522732   5.869563
    48  H    8.527897   6.547505  10.488261  10.709218   4.701653
    49  H   11.853194  10.488193   6.546268   4.701812  10.709435
    50  H   12.518373  10.749135   7.759713   5.869558  10.523000
                   41         42         43         44         45
    41  H    0.000000
    42  H    4.963151   0.000000
    43  H    1.969630   6.129113   0.000000
    44  H    9.709273  10.990264   7.994434   0.000000
    45  H    6.336299   9.709336   4.366743   4.963191   0.000000
    46  H    4.366935   7.994588   2.397338   6.128918   1.969429
    47  H    8.770086  11.900049   6.800491   4.299573   2.434890
    48  H   10.223435  12.473564   8.311321   2.479120   4.284786
    49  H    4.284618   2.479225   6.039940  12.473507  10.223374
    50  H    2.434959   4.299559   4.403642  11.900070   8.770169
                   46         47         48         49         50
    46  H    0.000000
    47  H    4.403366   0.000000
    48  H    6.039846   2.495664   0.000000
    49  H    8.311397  12.592185  13.597744   0.000000
    50  H    6.800757  11.203116  12.592323   2.495439   0.000000
 Stoichiometry    C32H18
 Framework group  C1[X(C32H18)]
 Deg. of freedom   144
 Full point group                 C1      NOp   1
 Largest Abelian subgroup         C1      NOp   1
 Largest concise Abelian subgroup C1      NOp   1
                         Standard orientation:                         
 ---------------------------------------------------------------------
 Center     Atomic      Atomic             Coordinates (Angstroms)
 Number     Number       Type             X           Y           Z
 ---------------------------------------------------------------------
      1          6           0        6.379789   -0.716157    0.000411
      2          6           0        6.381200    0.704184    0.006192
      3          6           0        5.195653    1.400226    0.008114
      4          6           0        5.193049   -1.410105   -0.003121
      5          6           0        3.948494   -0.719024   -0.001331
      6          6           0        3.950020    0.711413    0.004148
      7          6           0        2.708550   -1.387741   -0.003947
      8          6           0        2.711113    1.382350    0.005473
      9          6           0        1.489159   -0.719877   -0.002855
     10          6           0        1.490684    0.716680    0.000662
     11          6           0        0.206844   -1.450707   -0.003194
     12          6           0        0.209732    1.450071   -0.000370
     13          6           0       -1.040183   -0.718258    0.001914
     14          6           0       -1.038704    0.720048    0.002535
     15          6           0       -2.272962   -1.429114    0.004705
     16          6           0       -2.270105    1.433475    0.004560
     17          6           0        0.169147    2.827042   -0.004418
     18          6           0        0.163351   -2.827685   -0.007465
     19          6           0       -2.285124    2.881426    0.001229
     20          6           0       -1.038807    3.570562   -0.003854
     21          6           0       -3.471502    3.657709    0.001320
     22          6           0       -1.017679    4.989439   -0.008503
     23          6           0       -3.477624    0.686673    0.009200
     24          6           0       -1.046217   -3.568597   -0.004704
     25          6           0       -2.291236   -2.876986    0.002323
     26          6           0       -1.028278   -4.987629   -0.008655
     27          6           0       -3.479092   -3.650704    0.005992
     28          6           0       -3.479047   -0.679807    0.009378
     29          6           0       -3.437225   -5.031117    0.002153
     30          6           0       -2.200496   -5.710464   -0.005381
     31          6           0       -2.188427    5.714831   -0.008118
     32          6           0       -3.426564    5.038024   -0.003173
     33          1           0        7.324809   -1.252468   -0.001197
     34          1           0        7.327231    1.238645    0.008953
     35          1           0        5.192865    2.487812    0.012513
     36          1           0        5.188591   -2.497710   -0.007715
     37          1           0        2.739134   -2.471572   -0.006371
     38          1           0        2.743199    2.466101    0.011598
     39          1           0        1.087567    3.402932   -0.009405
     40          1           0        1.080412   -3.405796   -0.013015
     41          1           0       -4.440986    3.172693    0.004493
     42          1           0       -0.054719    5.495029   -0.012390
     43          1           0       -4.430199    1.203110    0.012756
     44          1           0       -0.066427   -5.495229   -0.014336
     45          1           0       -4.447757   -3.163598    0.012190
     46          1           0       -4.432695   -1.194227    0.012472
     47          1           0       -4.364750   -5.597062    0.005161
     48          1           0       -2.176404   -6.796766   -0.008506
     49          1           0       -2.162105    6.800970   -0.011572
     50          1           0       -4.352834    5.606044   -0.002960
 ---------------------------------------------------------------------
 Rotational constants (GHZ):      0.1423169      0.1315252      0.0683544
 Leave Link  202 at Mon Jul 29 09:50:36 2019, MaxMem=  4194304000 cpu:         0.2
 (Enter /home/minenky/programs//g09/l301.exe)
 Standard basis: def2TZVP (5D, 7F)
 ======================================================================================================
                                       Pseudopotential Parameters
 ======================================================================================================
  Center     Atomic      Valence      Angular      Power
  Number     Number     Electrons     Momentum     of R      Exponent        Coefficient   SO-Coeffient
 ======================================================================================================
    1          6
                                   No pseudopotential on this center.
    2          6
                                   No pseudopotential on this center.
    3          6
                                   No pseudopotential on this center.
    4          6
                                   No pseudopotential on this center.
    5          6
                                   No pseudopotential on this center.
    6          6
                                   No pseudopotential on this center.
    7          6
                                   No pseudopotential on this center.
    8          6
                                   No pseudopotential on this center.
    9          6
                                   No pseudopotential on this center.
   10          6
                                   No pseudopotential on this center.
   11          6
                                   No pseudopotential on this center.
   12          6
                                   No pseudopotential on this center.
   13          6
                                   No pseudopotential on this center.
   14          6
                                   No pseudopotential on this center.
   15          6
                                   No pseudopotential on this center.
   16          6
                                   No pseudopotential on this center.
   17          6
                                   No pseudopotential on this center.
   18          6
                                   No pseudopotential on this center.
   19          6
                                   No pseudopotential on this center.
   20          6
                                   No pseudopotential on this center.
   21          6
                                   No pseudopotential on this center.
   22          6
                                   No pseudopotential on this center.
   23          6
                                   No pseudopotential on this center.
   24          6
                                   No pseudopotential on this center.
   25          6
                                   No pseudopotential on this center.
   26          6
                                   No pseudopotential on this center.
   27          6
                                   No pseudopotential on this center.
   28          6
                                   No pseudopotential on this center.
   29          6
                                   No pseudopotential on this center.
   30          6
                                   No pseudopotential on this center.
   31          6
                                   No pseudopotential on this center.
   32          6
                                   No pseudopotential on this center.
   33          1
                                   No pseudopotential on this center.
   34          1
                                   No pseudopotential on this center.
   35          1
                                   No pseudopotential on this center.
   36          1
                                   No pseudopotential on this center.
   37          1
                                   No pseudopotential on this center.
   38          1
                                   No pseudopotential on this center.
   39          1
                                   No pseudopotential on this center.
   40          1
                                   No pseudopotential on this center.
   41          1
                                   No pseudopotential on this center.
   42          1
                                   No pseudopotential on this center.
   43          1
                                   No pseudopotential on this center.
   44          1
                                   No pseudopotential on this center.
   45          1
                                   No pseudopotential on this center.
   46          1
                                   No pseudopotential on this center.
   47          1
                                   No pseudopotential on this center.
   48          1
                                   No pseudopotential on this center.
   49          1
                                   No pseudopotential on this center.
   50          1
                                   No pseudopotential on this center.
 ======================================================================================================
 Ernie: Thresh=  0.10000D-02 Tol=  0.10000D-05 Strict=F.
 AO basis set (Overlap normalization):
 Atom C1       Shell     1 S   6     bf    1 -     1         12.056053673867         -1.353340835726          0.000777199492
      0.1357534968D+05  0.6064550360D-03
      0.2035233368D+04  0.4697908888D-02
      0.4632256236D+03  0.2433247765D-01
      0.1312001960D+03  0.9739996831D-01
      0.4285301589D+02  0.3019558425D+00
      0.1558418577D+02  0.6623360914D+00
 Atom C1       Shell     2 S   2     bf    2 -     2         12.056053673867         -1.353340835726          0.000777199492
      0.6206713851D+01  0.6559530854D+00
      0.2576489653D+01  0.3758563329D+00
 Atom C1       Shell     3 S   1     bf    3 -     3         12.056053673867         -1.353340835726          0.000777199492
      0.5769633942D+00  0.1000000000D+01
 Atom C1       Shell     4 S   1     bf    4 -     4         12.056053673867         -1.353340835726          0.000777199492
      0.2297283136D+00  0.1000000000D+01
 Atom C1       Shell     5 S   1     bf    5 -     5         12.056053673867         -1.353340835726          0.000777199492
      0.9516444003D-01  0.1000000000D+01
 Atom C1       Shell     6 P   4     bf    6 -     8         12.056053673867         -1.353340835726          0.000777199492
      0.3469723224D+02  0.1132722000D-01
      0.7958262283D+01  0.7616965920D-01
      0.2378082688D+01  0.3019225220D+00
      0.8143320818D+00  0.7278502735D+00
 Atom C1       Shell     7 P   1     bf    9 -    11         12.056053673867         -1.353340835726          0.000777199492
      0.2888754725D+00  0.1000000000D+01
 Atom C1       Shell     8 P   1     bf   12 -    14         12.056053673867         -1.353340835726          0.000777199492
      0.1005682367D+00  0.1000000000D+01
 Atom C1       Shell     9 D   1     bf   15 -    19         12.056053673867         -1.353340835726          0.000777199492
      0.1097000000D+01  0.1000000000D+01
 Atom C1       Shell    10 D   1     bf   20 -    24         12.056053673867         -1.353340835726          0.000777199492
      0.3180000000D+00  0.1000000000D+01
 Atom C1       Shell    11 F   1     bf   25 -    31         12.056053673867         -1.353340835726          0.000777199492
      0.7610000000D+00  0.1000000000D+01
 Atom C2       Shell    12 S   6     bf   32 -    32         12.058719855081          1.330715022909          0.011702039663
      0.1357534968D+05  0.6064550360D-03
      0.2035233368D+04  0.4697908888D-02
      0.4632256236D+03  0.2433247765D-01
      0.1312001960D+03  0.9739996831D-01
      0.4285301589D+02  0.3019558425D+00
      0.1558418577D+02  0.6623360914D+00
 Atom C2       Shell    13 S   2     bf   33 -    33         12.058719855081          1.330715022909          0.011702039663
      0.6206713851D+01  0.6559530854D+00
      0.2576489653D+01  0.3758563329D+00
 Atom C2       Shell    14 S   1     bf   34 -    34         12.058719855081          1.330715022909          0.011702039663
      0.5769633942D+00  0.1000000000D+01
 Atom C2       Shell    15 S   1     bf   35 -    35         12.058719855081          1.330715022909          0.011702039663
      0.2297283136D+00  0.1000000000D+01
 Atom C2       Shell    16 S   1     bf   36 -    36         12.058719855081          1.330715022909          0.011702039663
      0.9516444003D-01  0.1000000000D+01
 Atom C2       Shell    17 P   4     bf   37 -    39         12.058719855081          1.330715022909          0.011702039663
      0.3469723224D+02  0.1132722000D-01
      0.7958262283D+01  0.7616965920D-01
      0.2378082688D+01  0.3019225220D+00
      0.8143320818D+00  0.7278502735D+00
 Atom C2       Shell    18 P   1     bf   40 -    42         12.058719855081          1.330715022909          0.011702039663
      0.2888754725D+00  0.1000000000D+01
 Atom C2       Shell    19 P   1     bf   43 -    45         12.058719855081          1.330715022909          0.011702039663
      0.1005682367D+00  0.1000000000D+01
 Atom C2       Shell    20 D   1     bf   46 -    50         12.058719855081          1.330715022909          0.011702039663
      0.1097000000D+01  0.1000000000D+01
 Atom C2       Shell    21 D   1     bf   51 -    55         12.058719855081          1.330715022909          0.011702039663
      0.3180000000D+00  0.1000000000D+01
 Atom C2       Shell    22 F   1     bf   56 -    62         12.058719855081          1.330715022909          0.011702039663
      0.7610000000D+00  0.1000000000D+01
 Atom C3       Shell    23 S   6     bf   63 -    63          9.818361492725          2.646044387141          0.015333581195
      0.1357534968D+05  0.6064550360D-03
      0.2035233368D+04  0.4697908888D-02
      0.4632256236D+03  0.2433247765D-01
      0.1312001960D+03  0.9739996831D-01
      0.4285301589D+02  0.3019558425D+00
      0.1558418577D+02  0.6623360914D+00
 Atom C3       Shell    24 S   2     bf   64 -    64          9.818361492725          2.646044387141          0.015333581195
      0.6206713851D+01  0.6559530854D+00
      0.2576489653D+01  0.3758563329D+00
 Atom C3       Shell    25 S   1     bf   65 -    65          9.818361492725          2.646044387141          0.015333581195
      0.5769633942D+00  0.1000000000D+01
 Atom C3       Shell    26 S   1     bf   66 -    66          9.818361492725          2.646044387141          0.015333581195
      0.2297283136D+00  0.1000000000D+01
 Atom C3       Shell    27 S   1     bf   67 -    67          9.818361492725          2.646044387141          0.015333581195
      0.9516444003D-01  0.1000000000D+01
 Atom C3       Shell    28 P   4     bf   68 -    70          9.818361492725          2.646044387141          0.015333581195
      0.3469723224D+02  0.1132722000D-01
      0.7958262283D+01  0.7616965920D-01
      0.2378082688D+01  0.3019225220D+00
      0.8143320818D+00  0.7278502735D+00
 Atom C3       Shell    29 P   1     bf   71 -    73          9.818361492725          2.646044387141          0.015333581195
      0.2888754725D+00  0.1000000000D+01
 Atom C3       Shell    30 P   1     bf   74 -    76          9.818361492725          2.646044387141          0.015333581195
      0.1005682367D+00  0.1000000000D+01
 Atom C3       Shell    31 D   1     bf   77 -    81          9.818361492725          2.646044387141          0.015333581195
      0.1097000000D+01  0.1000000000D+01
 Atom C3       Shell    32 D   1     bf   82 -    86          9.818361492725          2.646044387141          0.015333581195
      0.3180000000D+00  0.1000000000D+01
 Atom C3       Shell    33 F   1     bf   87 -    93          9.818361492725          2.646044387141          0.015333581195
      0.7610000000D+00  0.1000000000D+01
 Atom C4       Shell    34 S   6     bf   94 -    94          9.813439827463         -2.664712179031         -0.005897337627
      0.1357534968D+05  0.6064550360D-03
      0.2035233368D+04  0.4697908888D-02
      0.4632256236D+03  0.2433247765D-01
      0.1312001960D+03  0.9739996831D-01
      0.4285301589D+02  0.3019558425D+00
      0.1558418577D+02  0.6623360914D+00
 Atom C4       Shell    35 S   2     bf   95 -    95          9.813439827463         -2.664712179031         -0.005897337627
      0.6206713851D+01  0.6559530854D+00
      0.2576489653D+01  0.3758563329D+00
 Atom C4       Shell    36 S   1     bf   96 -    96          9.813439827463         -2.664712179031         -0.005897337627
      0.5769633942D+00  0.1000000000D+01
 Atom C4       Shell    37 S   1     bf   97 -    97          9.813439827463         -2.664712179031         -0.005897337627
      0.2297283136D+00  0.1000000000D+01
 Atom C4       Shell    38 S   1     bf   98 -    98          9.813439827463         -2.664712179031         -0.005897337627
      0.9516444003D-01  0.1000000000D+01
 Atom C4       Shell    39 P   4     bf   99 -   101          9.813439827463         -2.664712179031         -0.005897337627
      0.3469723224D+02  0.1132722000D-01
      0.7958262283D+01  0.7616965920D-01
      0.2378082688D+01  0.3019225220D+00
      0.8143320818D+00  0.7278502735D+00
 Atom C4       Shell    40 P   1     bf  102 -   104          9.813439827463         -2.664712179031         -0.005897337627
      0.2888754725D+00  0.1000000000D+01
 Atom C4       Shell    41 P   1     bf  105 -   107          9.813439827463         -2.664712179031         -0.005897337627
      0.1005682367D+00  0.1000000000D+01
 Atom C4       Shell    42 D   1     bf  108 -   112          9.813439827463         -2.664712179031         -0.005897337627
      0.1097000000D+01  0.1000000000D+01
 Atom C4       Shell    43 D   1     bf  113 -   117          9.813439827463         -2.664712179031         -0.005897337627
      0.3180000000D+00  0.1000000000D+01
 Atom C4       Shell    44 F   1     bf  118 -   124          9.813439827463         -2.664712179031         -0.005897337627
      0.7610000000D+00  0.1000000000D+01
 Atom C5       Shell    45 S   6     bf  125 -   125          7.461572399644         -1.358757797121         -0.002516063017
      0.1357534968D+05  0.6064550360D-03
      0.2035233368D+04  0.4697908888D-02
      0.4632256236D+03  0.2433247765D-01
      0.1312001960D+03  0.9739996831D-01
      0.4285301589D+02  0.3019558425D+00
      0.1558418577D+02  0.6623360914D+00
 Atom C5       Shell    46 S   2     bf  126 -   126          7.461572399644         -1.358757797121         -0.002516063017
      0.6206713851D+01  0.6559530854D+00
      0.2576489653D+01  0.3758563329D+00
[...]
 ,-0.00000821,-0.00000172,0.00002216,-0.00002633,0.00013066,0.00023413,
 -0.00110976,0.00011236,0.00389202,0.00115411,-0.00637541,0.00418911,0.
 00190455,-0.00228449,-0.01717275,-0.00296121,-0.01535674,0.00009565,0.
 00012669,-0.00018201,-0.04919973,-0.07267009,-0.06507037,0.00968070,0.
 00731456,0.01066442,-0.00000947,-0.00000470,-0.00000912,0.00000260,0.0
 0000332,0.00001174,-0.00000090,0.00000086,-0.00000071,-0.00000066,0.00
 000025,-0.00000090,0.00000065,-0.00000018,-0.00000075,0.00000028,0.000
 00185,-0.00000029,0.00000197,0.00000159,-0.00000172,0.00000137,0.00000
 035,-0.00000113,0.00000463,0.00000278,-0.00001226,-0.00003733,0.000013
 27,-0.00005046,-0.00000184,-0.00000013,0.00000311,-0.00000088,-0.00000
 009,-0.00000126,0.00001304,-0.00000339,-0.00002017,0.00054902,0.000239
 84,0.00045959,-0.00122894,-0.00182964,0.00255170,-0.00000762,-0.000034
 45,0.00002826,0.05141927,0.06923239,-0.00000251,0.00000181,-0.00000121
 ,-0.00000373,-0.00000077,-0.00000348,-0.00000212,0.00000429,0.00000296
 ,-0.00000159,-0.00000321,-0.00000562,0.00000774,0.00000170,0.00000618,
 0.00000323,-0.00000549,-0.00000333,-0.00001542,0.00000600,-0.00001541,
 -0.00000482,0.00000554,-0.00000846,-0.00000355,-0.00002950,0.00006120,
 0.00000639,-0.00000387,-0.00000661,0.00010473,-0.00014355,0.00001593,0
 .00004570,-0.00000442,-0.00001649,0.00020040,0.00000764,-0.00041283,-0
 .00007083,0.00001313,-0.00006278,-0.00096959,0.00014464,-0.00019579,-0
 .00004453,-0.00005539,0.00000363,-0.00000720,-0.00001734,-0.00002024,0
 .00020498,0.00049487,-0.00022093,-0.00000824,0.00003007,0.00002285,-0.
 00001626,0.00000669,-0.00001177,-0.00000082,-0.00001736,-0.00000985,0.
 00001119,-0.00000264,0.00000266,0.00007113,0.00007362,-0.00002178,0.00
 076659,0.00025422,-0.00041012,0.00006213,-0.00653906,0.00228274,-0.000
 84966,-0.00205297,0.00357634,-0.01519106,-0.00420618,-0.00997536,-0.00
 009631,-0.00017783,0.00010705,-0.13436785,-0.06540042,-0.17870388,0.00
 164923,-0.00037204,0.00271176,-0.00000199,-0.00000754,-0.00001001,0.00
 000354,0.00000455,0.00000031,-0.00000253,0.00000036,0.00000008,-0.0000
 0193,-0.00000079,-0.00000113,0.00000063,-0.00000183,-0.00000074,0.0000
 0069,-0.00000026,0.00000236,0.00000611,-0.00000393,0.00000338,0.000000
 42,-0.00000254,-0.00000034,-0.00000389,-0.00001267,0.00000121,-0.00003
 140,-0.00001420,0.00000968,-0.00000077,0.00000479,0.00000065,-0.000002
 25,-0.00000087,-0.00000149,0.00000467,-0.00002495,-0.00000152,0.000083
 46,-0.00009002,0.00003752,0.00149355,0.00237825,-0.00154071,0.00001280
 ,0.00002982,-0.00002653,0.14647062,0.07403935,0.18365623,-0.00000015,0
 .00000316,0.00000450,0.00000075,-0.00000384,-0.00000300,-0.00000384,0.
 00000090,-0.00000043,-0.00000340,-0.00000544,-0.00000578,0.00000866,0.
 00000402,0.00000754,0.00000601,-0.00000429,-0.00000074,-0.00001534,0.0
 0000139,-0.00000216,-0.00000158,-0.00000859,-0.00001163,0.00007388,-0.
 00007320,-0.00002104,-0.00001355,0.00000074,-0.00001861,-0.00015450,-0
 .00038189,-0.00019356,-0.00001454,0.00003243,0.00002997,-0.00027911,0.
 00015289,-0.00003218,0.00004878,-0.00003746,-0.00004382,-0.00002145,0.
 00003230,0.00049125,-0.00006516,-0.00001715,-0.00004921,0.00003215,-0.
 00003053,-0.00001113,0.00072676,-0.00049922,-0.00023104,0.00000642,0.0
 0002894,0.00002276,-0.00003128,0.00001674,0.00000006,0.00000994,-0.000
 00993,-0.00000503,0.00000909,-0.00001286,-0.00000626,0.00007848,0.0000
 3177,0.00010611,-0.00180331,0.00093211,-0.00507041,-0.00104064,-0.0005
 6688,-0.00063650,0.00918323,-0.01690271,-0.01462113,-0.00415330,0.0034
 3262,-0.00201870,-0.00000794,-0.00004523,-0.00006437,-0.00076580,0.020
 42757,0.02006263,-0.07121071,0.05053354,0.03501249,-0.00001508,0.00000
 244,-0.00000579,0.00000453,0.00000817,0.00001382,-0.00000067,0.0000001
 2,-0.00000125,0.00000029,0.00000045,0.00000007,-0.00000032,0.00000044,
 -0.00000029,-0.00000009,0.00000172,-0.00000028,0.00000588,-0.00000396,
 -0.00000022,-0.00000341,-0.00000062,-0.00000354,0.00000051,0.00000120,
 0.00000026,0.00000151,0.00005231,-0.00002545,0.00000295,-0.00000091,-0
 .00000158,0.00000077,0.00000055,0.00000045,-0.00000072,-0.00000153,-0.
 00000085,0.00012670,-0.00108884,0.00155675,-0.00027811,0.00099454,0.00
 089860,0.00009338,-0.00001806,-0.00000717,0.00042564,-0.00123374,0.000
 48794,0.06903810,-0.00000330,-0.00000298,-0.00000254,-0.00001152,-0.00
 000119,-0.00000623,0.00000018,0.00000668,0.00000853,0.00000006,-0.0000
 1037,-0.00000737,0.00001156,0.00000334,0.00000704,-0.00000492,-0.00000
 602,-0.00000800,-0.00001731,-0.00001496,-0.00001607,-0.00000047,-0.000
 00082,-0.00000441,0.00003774,-0.00002197,0.00002904,-0.00002488,0.0000
 1414,-0.00002198,-0.00028892,-0.00024613,0.00015687,0.00001094,-0.0000
 1296,-0.00000087,0.00001157,0.00004740,-0.00002616,0.00001019,0.000036
 19,-0.00001592,-0.00021226,-0.00041626,0.00035741,0.00001217,-0.000004
 25,0.00001059,-0.00001620,-0.00000562,-0.00000749,0.00035250,-0.000235
 53,-0.00024754,-0.00000493,0.00001496,-0.00000899,-0.00000473,0.000001
 29,-0.00000252,-0.00000106,-0.00000382,-0.00000447,0.00000317,-0.00000
 114,0.00000524,-0.00001122,-0.00003579,0.00001415,0.00054722,0.0050743
 4,-0.00422570,-0.00024969,-0.00009556,0.00079429,0.00365013,-0.0029840
 3,-0.00451588,0.00385922,0.00282495,-0.00153231,0.00003205,-0.00000748
 ,-0.00001423,0.00014193,-0.00628634,-0.00882046,0.05008919,-0.19870735
 ,-0.14382264,0.00000319,-0.00000239,-0.00000116,0.00000197,-0.00000617
 ,-0.00000017,-0.00000340,0.00000180,-0.00000190,-0.00000185,0.00000011
 ,-0.00000199,0.00000097,-0.00000143,-0.00000212,0.00000196,0.00000349,
 0.00000077,0.00000728,-0.00000283,0.00000248,-0.00000002,-0.00000160,-
 0.00000371,-0.00000014,-0.00000080,-0.00000344,0.00001857,0.00007767,-
 0.00006681,-0.00000197,0.00000522,0.00000013,-0.00000193,0.00000030,-0
 .00000182,0.00000249,-0.00000392,-0.00000052,-0.00156486,-0.00182120,0
 .00236817,0.00003566,-0.00041783,-0.00042946,-0.00002324,0.00005140,-0
 .00003379,-0.00064875,-0.00094103,0.00169726,-0.05574791,0.20413956,-0
 .00000233,0.00000097,-0.00000252,-0.00001113,-0.00000206,-0.00000944,-
 0.00000120,0.00000893,0.00000751,0.00000005,-0.00001037,-0.00001433,0.
 00001552,0.00000294,0.00001418,-0.00000140,-0.00000765,-0.00000986,-0.
 00002195,-0.00000591,-0.00002685,-0.00000304,-0.00000882,-0.00000789,0
 .00009642,-0.00003123,-0.00001071,-0.00004574,-0.00000805,-0.00001125,
 -0.00009501,0.00010630,-0.00048162,0.00000723,0.00001080,0.00000884,-0
 .00018184,0.00005062,0.00003283,0.00000662,-0.00004181,0.00001578,0.00
 023232,0.00049029,-0.00021740,-0.00001818,-0.00000534,-0.00002353,0.00
 000404,-0.00001528,-0.00002084,0.00067076,-0.00071018,-0.00020838,-0.0
 0001310,0.00000941,0.00002377,-0.00002267,0.00000915,-0.00000140,0.000
 00436,-0.00000929,-0.00000761,0.00001072,-0.00000348,-0.00000231,0.000
 06059,0.00003751,0.00001772,-0.00547808,-0.00401658,0.00211711,-0.0003
 0060,0.00062195,-0.00047863,0.00714033,-0.01568197,-0.00957097,-0.0015
 6698,-0.00176404,0.00353322,0.00001747,-0.00005623,-0.00002763,-0.0014
 1597,0.00220039,0.00367759,0.03454204,-0.14358122,-0.17043051,-0.00000
 501,-0.00000157,-0.00000404,0.00000726,0.00000319,0.00000233,-0.000004
 97,0.00000001,-0.00000084,-0.00000236,-0.00000074,-0.00000103,0.000000
 27,-0.00000241,-0.00000134,-0.00000003,0.00000064,0.00000443,0.0000116
 9,-0.00000363,0.00000107,-0.00000291,-0.00000403,-0.00000396,-0.000001
 17,-0.00000271,-0.00000113,-0.00006118,-0.00004850,0.00006573,-0.00000
 271,0.00000071,0.00000337,-0.00000218,-0.00000047,-0.00000065,0.000003
 41,-0.00000271,-0.00000317,0.00105278,0.00262677,-0.00150756,-0.000116
 64,0.00009146,0.00003956,-0.00001267,-0.00003096,0.00003172,0.00110730
 ,0.00137945,-0.00081476,-0.03560248,0.15841039,0.17430679,-0.00000816,
 0.00000535,0.00000189,-0.00000017,-0.00000325,-0.00000230,-0.00000883,
 0.00001034,0.00000798,-0.00000103,-0.00000517,-0.00000533,-0.00000015,
 0.00000676,0.00000762,0.00001899,-0.00000800,0.00000042,-0.00000884,0.
 00001329,0.00000758,-0.00002771,0.00000613,-0.00000386,-0.00003518,0.0
 0001609,-0.00001410,0.00006891,0.00004717,0.00010369,0.00000829,-0.000
 03228,-0.00002614,-0.00041070,0.00019648,0.00027958,0.00002510,0.00005
 506,0.00004126,-0.00023751,-0.00006727,-0.00024266,-0.00007446,0.00002
 979,-0.00000457,0.00012239,-0.00048480,0.00002200,0.00058038,0.0006298
 6,0.00088475,0.00000975,0.00002622,0.00003679,-0.00126019,0.00016627,0
 .00002046,-0.00373182,0.00420092,-0.00265790,-0.00224623,0.00024658,-0
 .00435594,0.00012526,0.02081159,0.02038495,-0.00002921,0.00007237,0.00
 004857,-0.00002836,-0.00001025,-0.00002694,0.00001697,-0.00002492,-0.0
 0002853,0.00000613,0.00000878,0.00001505,0.00000354,0.00001106,0.00001
 372,0.00011431,-0.00007911,0.00000819,0.00001147,-0.00001117,-0.000002
 88,-0.00001461,0.00000229,-0.00000569,-0.06651533,0.04119904,0.0276703
 3,0.00849109,-0.01739600,-0.01495195,-0.00000094,0.00000048,-0.0000005
 7,-0.00000298,0.00000097,-0.00000160,0.00000151,-0.00000108,-0.0000023
 7,-0.00000046,0.00000122,0.00000046,-0.00000559,0.00000411,0.00000029,
 0.00000839,0.00000254,0.00000802,0.00000138,0.00001880,-0.00006099,-0.
 00000011,0.00000102,-0.00000027,0.00016618,-0.00080605,-0.00076631,0.0
 0015553,-0.00161962,0.00101073,0.00006530,0.00002994,0.00002840,-0.000
 00031,0.00000013,-0.00000060,0.00000143,0.00000089,-0.00000050,-0.0000
 0052,0.00000211,0.00000312,0.00000076,0.00000045,0.00000036,-0.0000000
 1,0.00000091,0.00000028,0.06430070,0.00001303,-0.00000490,0.00000318,0
 .00000321,-0.00000299,0.00000099,0.00000483,-0.00001264,-0.00000718,-0
 .00000444,0.00000786,0.00000727,0.00000739,-0.00000859,-0.00000403,-0.
 00001554,0.00000765,-0.00000313,0.00000517,-0.00000385,-0.00000455,0.0
 0002483,-0.00002012,0.00000136,0.00004172,0.00000512,0.00000467,-0.000
 06378,-0.00002404,-0.00002831,-0.00001080,-0.00000345,-0.00000262,0.00
 010340,-0.00035293,0.00025690,0.00000741,0.00002630,-0.00002788,0.0000
 7410,0.00006473,0.00002617,0.00000048,-0.00000812,0.00000013,-0.000240
 22,-0.00035618,0.00040572,-0.00022198,-0.00029656,-0.00062415,0.000011
 90,-0.00001495,-0.00000212,-0.00015100,-0.00018690,0.00075100,0.004585
 99,0.00426931,-0.00288265,-0.00018011,0.00361925,-0.00288510,0.0002565
 0,-0.00676179,-0.01035711,-0.00000493,-0.00001636,-0.00004372,0.000011
 22,0.00000250,0.00000744,0.00000895,0.00001936,0.00000321,-0.00000725,
 -0.00000237,-0.00000174,0.00000219,-0.00000649,-0.00000553,-0.00003611
 ,-0.00002084,0.00001644,-0.00000497,-0.00000328,-0.00000088,0.00000155
 ,-0.00000219,-0.00000184,0.04164342,-0.19678605,-0.14633814,0.00289193
 ,-0.00242889,-0.00324111,0.00000277,-0.00000040,-0.00000002,0.00000449
 ,0.00000084,0.00000137,-0.00000131,0.00000416,-0.00000030,0.00000069,-
 0.00000149,-0.00000233,0.00000351,-0.00000251,-0.00000275,-0.00000871,
 -0.00000179,-0.00000510,0.00005255,0.00007760,-0.00004842,0.00000237,-
 0.00000105,-0.00000235,0.00015291,-0.00023270,-0.00016970,-0.00114358,
 -0.00180850,0.00260975,0.00003514,0.00003970,-0.00001445,0.00000261,-0
 .00000015,0.00000017,0.00000195,0.00000459,0.00000160,-0.00000191,-0.0
 0000384,-0.00000283,-0.00000148,-0.00000075,-0.00000262,0.00000100,-0.
 00000183,-0.00000273,-0.04677875,0.20220448,0.00001003,-0.00000099,0.0
 0000318,0.00000454,-0.00000252,-0.00000249,0.00000215,-0.00000418,-0.0
 0000664,-0.00000456,0.00000687,0.00000351,0.00000828,-0.00000437,-0.00
 000112,-0.00000756,0.00000097,-0.00000046,-0.00000102,-0.00000014,0.00
 000240,0.00001593,-0.00000880,-0.00000932,0.00001302,-0.00000926,0.000
 01940,-0.00001376,0.00003197,-0.00000366,-0.00000339,-0.00001429,-0.00
 002349,0.00018114,0.00030749,-0.00011863,-0.00000919,-0.00000200,0.000
 04935,-0.00009305,-0.00005063,-0.00002611,-0.00003561,0.00001606,-0.00
 001035,0.00028091,0.00027283,-0.00042132,-0.00001692,-0.00016147,-0.00
 000098,0.00002162,0.00000567,0.00001090,-0.00031536,0.00092336,-0.0001
 6774,-0.00225042,-0.00309182,0.00485066,-0.00480757,-0.00265333,0.0008
 3185,-0.00137395,0.00080981,0.00326477,-0.00003325,-0.00000171,0.00000
 253,-0.00000421,-0.00000423,-0.00000553,0.00000732,-0.00001520,0.00000
 881,-0.00000193,0.00000698,0.00000188,0.00000432,-0.00000071,0.0000014
 5,0.00005371,-0.00000692,-0.00003306,0.00000368,-0.00000425,-0.0000075
 0,-0.00000649,-0.00000144,-0.00000470,0.02814076,-0.14657956,-0.177047
 19,0.00652405,-0.01426283,-0.00943675,0.00000186,-0.00000127,0.0000007
 1,0.00000213,-0.00000054,0.00000243,-0.00000262,-0.00000017,0.00000216
 ,-0.00000010,-0.00000204,-0.00000115,-0.00000035,-0.00000242,-0.000000
 86,-0.00000388,0.00000101,-0.00000248,-0.00002528,-0.00006674,0.000065
 92,0.00000116,-0.00000308,-0.00000025,0.00024883,-0.00069066,-0.000589
 86,0.00151468,0.00235114,-0.00154909,0.00003389,-0.00001728,0.00007151
 ,0.00000203,-0.00000118,0.00000089,0.00000063,0.00000102,0.00000551,-0
 .00000114,-0.00000064,-0.00000345,-0.00000168,-0.00000157,-0.00000161,
 0.00000037,-0.00000278,-0.00000148,-0.02866877,0.16119163,0.18097928,-
 0.00000663,-0.00000002,-0.00000327,-0.00000482,0.00000210,0.00000055,-
 0.00000176,0.00000255,0.00000248,0.00000391,-0.00000457,-0.00000248,-0
 .00000575,0.00000428,0.00000101,0.00000837,0.00000156,0.00000611,-0.00
 000051,-0.00000070,0.00000534,-0.00001688,-0.00000545,-0.00000767,-0.0
 0001755,0.00000302,-0.00000308,0.00003547,0.00001439,-0.00001676,0.000
 00738,0.00001196,0.00003659,0.00002197,-0.00002888,-0.00007895,-0.0000
 0755,-0.00004261,-0.00002847,0.00003192,-0.00002537,0.00027832,0.00003
 386,0.00002089,-0.00000647,-0.00018851,0.00006401,-0.00013128,-0.00017
 559,-0.00010025,0.00026366,-0.00001498,-0.00000142,-0.00001075,0.00266
 145,0.00207469,-0.00134105,0.00041564,-0.00082052,-0.00004749,-0.00108
 838,0.00049390,-0.00155221,-0.00089440,-0.00077823,-0.00468425,-0.0000
 1461,0.00009308,-0.00009829,0.00000026,0.00000665,0.00001262,-0.000002
 36,-0.00000418,-0.00000326,0.00000756,-0.00000771,-0.00000372,-0.00000
 949,0.00000754,-0.00000205,-0.00004005,0.00000207,0.00005561,-0.000006
 53,0.00000549,0.00000577,0.00000504,0.00000724,0.00001091,-0.01466142,
 0.01165244,0.00316938,-0.27834901,0.12215860,-0.00209783,-0.00000265,0
 .00000149,-0.00000028,-0.00000218,-0.00000024,-0.00000203,0.00000332,-
 0.00000034,0.00000022,-0.00000001,0.00000209,0.00000174,-0.00000051,0.
 00000273,0.00000147,0.00001169,0.00000184,0.00000602,0.00004499,-0.000
 01508,-0.00001422,-0.00000090,0.00000737,-0.00000178,0.00024997,-0.001
 18357,0.00152875,-0.00084968,0.00058847,0.00011380,-0.00001936,-0.0000
 2146,0.00000211,-0.00000296,0.00000134,-0.00000054,-0.00000068,-0.0000
 0404,-0.00000247,0.00000553,0.00001303,0.00000466,0.00000245,0.0000028
 9,0.00000263,-0.00000042,0.00000269,0.00000209,0.00034566,-0.00108232,
 0.00060499,0.29248967,0.00000295,-0.00000271,-0.00000058,0.00000078,0.
 00000071,0.00000304,0.00000409,-0.00000494,-0.00000157,0.00000155,0.00
 000269,0.00000415,-0.00000303,-0.00000375,-0.00000638,-0.00000789,0.00
 000522,0.00000104,0.00000696,-0.00000618,0.00000963,0.00001447,-0.0000
 1220,0.00000912,-0.00001028,-0.00000796,-0.00000767,0.00000110,0.00006
 092,-0.00003481,-0.00003848,-0.00002452,-0.00000808,-0.00007330,-0.000
 05671,-0.00021739,0.00009509,-0.00005851,0.00003016,-0.00003902,-0.000
 47296,0.00003897,0.00007441,0.00001041,-0.00004009,0.00100986,0.000114
 55,0.00048164,-0.00033030,-0.00019699,0.00051844,0.00001434,-0.0000230
 6,-0.00001877,0.00177370,0.00155236,-0.00710288,-0.00055935,-0.0008777
 1,-0.00007305,0.02102020,-0.00685030,0.00127694,-0.00035200,0.00299677
 ,-0.00359436,0.00010074,0.00012723,-0.00017862,0.00002062,-0.00000331,
 0.00001830,-0.00000903,0.00003042,0.00003207,-0.00000940,-0.00000396,-
 0.00000863,0.00000551,-0.00001072,-0.00001786,-0.00010296,-0.00002188,
 0.00006737,-0.00000773,0.00000268,0.00000545,0.00001014,-0.00000837,-0
 .00000236,-0.00866422,0.00688205,0.00023903,0.12155116,-0.11038699,-0.
 01222387,0.00000168,-0.00000022,-0.00000013,0.00000173,0.00000072,0.00
 000056,-0.00000029,0.00000199,-0.00000045,0.00000009,-0.00000049,-0.00
 000138,0.00000014,0.00000005,-0.00000211,-0.00000222,0.00000162,-0.000
 00396,0.00005168,0.00000836,-0.00000729,0.00000661,0.00000218,-0.00001
 182,-0.00150287,-0.00183901,0.00239228,-0.00042329,0.00023122,-0.00007
 782,-0.00001860,-0.00003140,0.00002552,0.00000206,-0.00000058,-0.00000
 018,-0.00000094,0.00000036,0.00000411,0.00000425,-0.00000339,-0.000024
 95,-0.00000074,-0.00000050,-0.00000437,0.00000076,-0.00000124,-0.00000
 192,-0.00049729,-0.00097395,0.00174424,-0.13312342,0.10985205,-0.00000
 013,-0.00000219,-0.00000304,-0.00000084,0.00000375,0.00000175,0.000004
 10,-0.00000241,-0.00000168,0.00000400,0.00000082,0.00000262,-0.0000067
 2,-0.00000241,-0.00000548,-0.00000390,0.00000618,0.00000460,0.00001345
 ,0.00000547,0.00000139,0.00001342,-0.00000171,-0.00000790,-0.00001716,
 -0.00000044,-0.00001578,-0.00003084,-0.00002758,0.00004841,-0.00001683
 ,0.00001932,-0.00002533,-0.00012597,-0.00019326,-0.00016201,0.00011732
 ,-0.00004466,-0.00002173,0.00026391,0.00004643,-0.00033729,0.00005017,
 -0.00006916,0.00004051,0.00086991,-0.00003222,0.00061637,0.00002019,0.
 00064340,-0.00016422,0.00000594,-0.00002733,-0.00002367,-0.00165982,-0
 .00693928,0.00092509,0.00022899,-0.00021492,-0.00119886,0.02017634,-0.
 00987444,0.00323953,-0.00423307,-0.00382590,-0.00013800,-0.00009019,-0
 .00018281,0.00010516,0.00002741,0.00001070,0.00001621,-0.00000839,0.00
 003470,0.00002767,-0.00000550,-0.00000771,-0.00001179,-0.00000420,-0.0
 0001675,-0.00001104,-0.00005556,0.00012442,-0.00003683,-0.00000823,0.0
 0001264,0.00000247,0.00001398,-0.00000393,0.00000248,-0.01833714,0.011
 27634,0.00418447,-0.00274082,-0.01189379,-0.05053766,-0.00000008,-0.00
 000023,0.00000048,0.00000006,-0.00000051,0.00000057,0.00000027,-0.0000
 0048,0.00000190,-0.00000038,-0.00000030,0.00000034,-0.00000128,-0.0000
 0070,0.00000068,0.00000171,-0.00000175,0.00000329,0.00005644,-0.000043
 56,0.00002633,-0.00000258,-0.00001141,0.00000326,0.00119074,0.00256574
 ,-0.00150731,-0.00095720,0.00047183,0.00006693,0.00000515,0.00002397,-
 0.00003688,0.00000022,-0.00000057,0.00000016,0.00000081,0.00000242,-0.
 00000100,-0.00000464,-0.00002018,-0.00000153,-0.00000122,-0.00000240,0
 .00000005,0.00000005,-0.00000087,0.00000007,0.00122430,0.00142641,-0.0
 0070185,0.00402381,0.01677130,0.04562810\\0.00000002,-0.00000006,-0.00
 000006,-0.00000001,0.00000006,0.00000006,0.00000007,0.00000002,0.00000
 005,0.00000008,-0.00000003,0.,-0.00000010,0.,-0.00000006,-0.00000011,0
 .00000003,-0.00000003,-0.00000007,0.00000006,0.,-0.00000004,-0.0000000
 3,-0.00000008,-0.00000009,0.00000011,0.00000009,-0.00000003,-0.0000001
 3,-0.00000011,-0.00000003,0.00000004,0.,-0.00000002,-0.00000002,-0.000
 00004,0.00000007,0.00000003,0.00000008,0.00000009,-0.00000007,0.,0.000
 00009,0.00000004,0.00000009,0.00000012,-0.00000007,0.,0.00000002,-0.00
 000012,-0.00000011,-0.00000004,0.00000012,0.00000011,-0.00000002,-0.00
 000003,-0.00000003,0.00000005,-0.00000003,0.,0.,0.,-0.00000002,0.00000
 001,0.00000001,0.00000002,0.00000004,0.00000003,0.00000005,0.00000003,
 0.00000002,0.00000005,-0.00000004,0.00000003,0.00000002,0.00000002,-0.
 00000002,0.,0.,0.00000003,0.,0.00000006,-0.00000004,-0.00000001,0.,0.,
 0.,0.,-0.00000004,-0.00000003,-0.00000002,0.00000003,0.00000003,0.,0.0
 0000001,0.00000001,0.00000002,0.,0.00000001,0.00000003,0.,0.,-0.000000
 02,0.00000002,0.,0.,0.,-0.00000002,0.,0.00000001,0.,0.,0.,-0.00000002,
 -0.00000002,0.,-0.00000001,-0.00000002,0.,0.,-0.00000003,0.,-0.0000000
 2,0.,0.,0.,-0.00000004,0.00000002,-0.00000001,0.,0.,0.00000001,-0.0000
 0003,0.00000003,-0.00000002,-0.00000004,-0.00000002,-0.00000002,-0.000
 00001,0.,-0.00000002,0.,0.,0.,0.,0.,0.,-0.00000002,0.,0.\\\@


 The number of Unix installations has grown to 10,
  with more expected.
                  -- The Unix Programmer's Manual,
                     2nd Edition, June, 1972.
 Job cpu time:      11 days  3 hours 12 minutes 39.4 seconds.
 File lengths (MBytes):  RWF=   7628 Int=      0 D2E=      0 Chk=     87 Scr=      1
 Normal termination of Gaussian 09 at Tue Jul 30 14:12:43 2019.
