 Entering Gaussian System, Link 0=g09
 Initial command:
 /home/minenky/programs//g09/l1.exe "/local/scratch/minenky/m1_00_74-98-60_C3H8_wB97XD/Gau-211863.inp" -scrdir="/local/scratch/minenky/m1_00_74-98-60_C3H8_wB97XD/"
 Entering Link 1 = /home/minenky/programs//g09/l1.exe PID=    211865.
  
 Copyright (c) 1988,1990,1992,1993,1995,1998,2003,2009,2013,
            Gaussian, Inc.  All Rights Reserved.
  
 This is part of the Gaussian(R) 09 program.  It is based on
 the Gaussian(R) 03 system (copyright 2003, Gaussian, Inc.),
 the Gaussian(R) 98 system (copyright 1998, Gaussian, Inc.),
 the Gaussian(R) 94 system (copyright 1995, Gaussian, Inc.),
 the Gaussian 92(TM) system (copyright 1992, Gaussian, Inc.),
 the Gaussian 90(TM) system (copyright 1990, Gaussian, Inc.),
 the Gaussian 88(TM) system (copyright 1988, Gaussian, Inc.),
 the Gaussian 86(TM) system (copyright 1986, Carnegie Mellon
 University), and the Gaussian 82(TM) system (copyright 1983,
 Carnegie Mellon University). Gaussian is a federally registered
 trademark of Gaussian, Inc.
  
 This software contains proprietary and confidential information,
 including trade secrets, belonging to Gaussian, Inc.
  
 This software is provided under written license and may be
 used, copied, transmitted, or stored only in accord with that
 written license.
  
 The following legend is applicable only to US Government
 contracts under FAR:
  
                    RESTRICTED RIGHTS LEGEND
  
 Use, reproduction and disclosure by the US Government is
 subject to restrictions as set forth in subparagraphs (a)
 and (c) of the Commercial Computer Software - Restricted
 Rights clause in FAR 52.227-19.
  
 Gaussian, Inc.
 340 Quinnipiac St., Bldg. 40, Wallingford CT 06492
  
  
 ---------------------------------------------------------------
 Warning -- This program may not be used in any manner that
 competes with the business of Gaussian, Inc. or will provide
 assistance to any competitor of Gaussian, Inc.  The licensee
 of this program is prohibited from giving any competitor of
 Gaussian, Inc. access to this program.  By using this program,
 the user acknowledges that Gaussian, Inc. is engaged in the
 business of creating and licensing software in the field of
 computational chemistry and represents and warrants to the
 licensee that it is not a competitor of Gaussian, Inc. and that
 it will not use this program in any manner prohibited above.
 ---------------------------------------------------------------
  

 Cite this work as:
 Gaussian 09, Revision D.01,
 M. J. Frisch, G. W. Trucks, H. B. Schlegel, G. E. Scuseria, 
 M. A. Robb, J. R. Cheeseman, G. Scalmani, V. Barone, B. Mennucci, 
 G. A. Petersson, H. Nakatsuji, M. Caricato, X. Li, H. P. Hratchian, 
 A. F. Izmaylov, J. Bloino, G. Zheng, J. L. Sonnenberg, M. Hada, 
 M. Ehara, K. Toyota, R. Fukuda, J. Hasegawa, M. Ishida, T. Nakajima, 
 Y. Honda, O. Kitao, H. Nakai, T. Vreven, J. A. Montgomery, Jr., 
 J. E. Peralta, F. Ogliaro, M. Bearpark, J. J. Heyd, E. Brothers, 
 K. N. Kudin, V. N. Staroverov, T. Keith, R. Kobayashi, J. Normand, 
 K. Raghavachari, A. Rendell, J. C. Burant, S. S. Iyengar, J. Tomasi, 
 M. Cossi, N. Rega, J. M. Millam, M. Klene, J. E. Knox, J. B. Cross, 
 V. Bakken, C. Adamo, J. Jaramillo, R. Gomperts, R. E. Stratmann, 
 O. Yazyev, A. J. Austin, R. Cammi, C. Pomelli, J. W. Ochterski, 
 R. L. Martin, K. Morokuma, V. G. Zakrzewski, G. A. Voth, 
 P. Salvador, J. J. Dannenberg, S. Dapprich, A. D. Daniels, 
 O. Farkas, J. B. Foresman, J. V. Ortiz, J. Cioslowski, 
 and D. J. Fox, Gaussian, Inc., Wallingford CT, 2013.
 
 ******************************************
 Gaussian 09:  AM64L-G09RevD.01 24-Apr-2013
                 9-Jul-2021 
 ******************************************
 %Mem=32000MB
 %NProcShared=16
 Will use up to   16 processors via shared memory.
 %Chk=m1_00_74-98-60_C3H8_wB97XD
 ----------------------------------------------------------------------
 #P wB97XD/def2tzvp opt=(tight) freq integral(Grid=ultrafine) # SCF(Max
 Cycle=380) 5d 7f GFPrint
 ----------------------------------------------------------------------
 1/7=10,14=-1,18=20,19=15,26=4,38=1/1,3;
 2/9=110,12=2,17=6,18=5,40=1/2;
 3/5=44,7=101,8=11,11=2,16=1,24=100,25=1,30=1,71=1,74=-58,75=-5/1,2,3;
 4//1;
 5/5=2,7=380,38=5/2;
 6/7=2,8=2,9=2,10=2,28=1/1;
 7//1,2,3,16;
 1/7=10,14=-1,18=20,19=15,26=4/3(2);
 2/9=110/2;
 99//99;
 2/9=110/2;
 3/5=44,7=101,8=11,11=2,16=1,25=1,30=1,71=1,74=-58,75=-5/1,2,3;
 4/5=5,16=3,69=1/1;
 5/5=2,7=380,38=5/2;
 7//1,2,3,16;
 1/7=10,14=-1,18=20,19=15,26=4/3(-5);
 2/9=110/2;
 6/7=2,8=2,9=2,10=2,19=2,28=1/1;
 99/9=1/99;
 Leave Link    1 at Fri Jul  9 19:19:35 2021, MaxMem=  4194304000 cpu:         1.6
 (Enter /home/minenky/programs//g09/l101.exe)
 ---------------------------------------
 The PBEPBE optimization and frequencies
 ---------------------------------------
 Symbolic Z-matrix:
 Charge =  0 Multiplicity = 1
 C                     0.        0.        0.58591 
 C                     0.        1.27108  -0.25933 
 C                     0.       -1.27108  -0.25933 
 H                     0.8745    0.        1.24345 
 H                    -0.8745    0.        1.24345 
 H                     0.        2.16776   0.36336 
 H                     0.88136   1.31274  -0.9043 
 H                    -0.88136   1.31274  -0.9043 
 H                     0.       -2.16776   0.36336 
 H                    -0.88136  -1.31274  -0.9043 
 H                     0.88136  -1.31274  -0.9043 
 
 NAtoms=     11 NQM=       11 NQMF=       0 NMMI=      0 NMMIF=      0
                NMic=       0 NMicF=      0.
                    Isotopes and Nuclear Properties:
 (Nuclear quadrupole moments (NQMom) in fm**2, nuclear magnetic moments (NMagM)
  in nuclear magnetons)

  Atom         1           2           3           4           5           6           7           8           9          10
 IAtWgt=          12          12          12           1           1           1           1           1           1           1
 AtmWgt=  12.0000000  12.0000000  12.0000000   1.0078250   1.0078250   1.0078250   1.0078250   1.0078250   1.0078250   1.0078250
 NucSpn=           0           0           0           1           1           1           1           1           1           1
 AtZEff=   0.0000000   0.0000000   0.0000000   0.0000000   0.0000000   0.0000000   0.0000000   0.0000000   0.0000000   0.0000000
 NQMom=    0.0000000   0.0000000   0.0000000   0.0000000   0.0000000   0.0000000   0.0000000   0.0000000   0.0000000   0.0000000
 NMagM=    0.0000000   0.0000000   0.0000000   2.7928460   2.7928460   2.7928460   2.7928460   2.7928460   2.7928460   2.7928460
 AtZNuc=   6.0000000   6.0000000   6.0000000   1.0000000   1.0000000   1.0000000   1.0000000   1.0000000   1.0000000   1.0000000

  Atom        11
 IAtWgt=           1
 AtmWgt=   1.0078250
 NucSpn=           1
 AtZEff=   0.0000000
 NQMom=    0.0000000
 NMagM=    2.7928460
 AtZNuc=   1.0000000
 Leave Link  101 at Fri Jul  9 19:19:35 2021, MaxMem=  4194304000 cpu:         1.4
 (Enter /home/minenky/programs//g09/l103.exe)

 GradGradGradGradGradGradGradGradGradGradGradGradGradGradGradGradGradGrad
 Berny optimization.
 Initialization pass.
                           ----------------------------
                           !    Initial Parameters    !
                           ! (Angstroms and Degrees)  !
 --------------------------                            --------------------------
 ! Name  Definition              Value          Derivative Info.                !
 --------------------------------------------------------------------------------
 ! R1    R(1,2)                  1.5265         estimate D2E/DX2                !
 ! R2    R(1,3)                  1.5265         estimate D2E/DX2                !
 ! R3    R(1,4)                  1.0941         estimate D2E/DX2                !
 ! R4    R(1,5)                  1.0941         estimate D2E/DX2                !
 ! R5    R(2,6)                  1.0917         estimate D2E/DX2                !
 ! R6    R(2,7)                  1.0929         estimate D2E/DX2                !
 ! R7    R(2,8)                  1.0929         estimate D2E/DX2                !
 ! R8    R(3,9)                  1.0917         estimate D2E/DX2                !
 ! R9    R(3,10)                 1.0929         estimate D2E/DX2                !
 ! R10   R(3,11)                 1.0929         estimate D2E/DX2                !
 ! A1    A(2,1,3)              112.754          estimate D2E/DX2                !
 ! A2    A(2,1,4)              109.4373         estimate D2E/DX2                !
 ! A3    A(2,1,5)              109.4373         estimate D2E/DX2                !
 ! A4    A(3,1,4)              109.4373         estimate D2E/DX2                !
 ! A5    A(3,1,5)              109.4373         estimate D2E/DX2                !
 ! A6    A(4,1,5)              106.1203         estimate D2E/DX2                !
 ! A7    A(1,2,6)              111.5993         estimate D2E/DX2                !
 ! A8    A(1,2,7)              111.0084         estimate D2E/DX2                !
 ! A9    A(1,2,8)              111.0084         estimate D2E/DX2                !
 ! A10   A(6,2,7)              107.7761         estimate D2E/DX2                !
 ! A11   A(6,2,8)              107.7761         estimate D2E/DX2                !
 ! A12   A(7,2,8)              107.4938         estimate D2E/DX2                !
 ! A13   A(1,3,9)              111.5993         estimate D2E/DX2                !
 ! A14   A(1,3,10)             111.0084         estimate D2E/DX2                !
 ! A15   A(1,3,11)             111.0084         estimate D2E/DX2                !
 ! A16   A(9,3,10)             107.7761         estimate D2E/DX2                !
 ! A17   A(9,3,11)             107.7761         estimate D2E/DX2                !
 ! A18   A(10,3,11)            107.4938         estimate D2E/DX2                !
 ! D1    D(3,1,2,6)            180.0            estimate D2E/DX2                !
 ! D2    D(3,1,2,7)            -59.7497         estimate D2E/DX2                !
 ! D3    D(3,1,2,8)             59.7497         estimate D2E/DX2                !
 ! D4    D(4,1,2,6)            -57.9488         estimate D2E/DX2                !
 ! D5    D(4,1,2,7)             62.3015         estimate D2E/DX2                !
 ! D6    D(4,1,2,8)           -178.199          estimate D2E/DX2                !
 ! D7    D(5,1,2,6)             57.9488         estimate D2E/DX2                !
 ! D8    D(5,1,2,7)            178.199          estimate D2E/DX2                !
 ! D9    D(5,1,2,8)            -62.3015         estimate D2E/DX2                !
 ! D10   D(2,1,3,9)            180.0            estimate D2E/DX2                !
 ! D11   D(2,1,3,10)           -59.7497         estimate D2E/DX2                !
 ! D12   D(2,1,3,11)            59.7497         estimate D2E/DX2                !
 ! D13   D(4,1,3,9)             57.9488         estimate D2E/DX2                !
 ! D14   D(4,1,3,10)           178.199          estimate D2E/DX2                !
 ! D15   D(4,1,3,11)           -62.3015         estimate D2E/DX2                !
 ! D16   D(5,1,3,9)            -57.9488         estimate D2E/DX2                !
 ! D17   D(5,1,3,10)            62.3015         estimate D2E/DX2                !
 ! D18   D(5,1,3,11)          -178.199          estimate D2E/DX2                !
 --------------------------------------------------------------------------------
 Trust Radius=3.00D-01 FncErr=1.00D-07 GrdErr=1.00D-06
 Number of steps in this run=     56 maximum allowed number of steps=    100.
 GradGradGradGradGradGradGradGradGradGradGradGradGradGradGradGradGradGrad

 Leave Link  103 at Fri Jul  9 19:19:36 2021, MaxMem=  4194304000 cpu:         0.0
 (Enter /home/minenky/programs//g09/l202.exe)
                          Input orientation:                          
 ---------------------------------------------------------------------
 Center     Atomic      Atomic             Coordinates (Angstroms)
 Number     Number       Type             X           Y           Z
 ---------------------------------------------------------------------
      1          6           0        0.000000    0.000000    0.585912
      2          6           0        0.000000    1.271080   -0.259327
      3          6           0        0.000000   -1.271080   -0.259327
      4          1           0        0.874497    0.000000    1.243454
      5          1           0       -0.874497    0.000000    1.243454
      6          1           0        0.000000    2.167755    0.363361
      7          1           0        0.881358    1.312736   -0.904295
      8          1           0       -0.881358    1.312736   -0.904295
      9          1           0        0.000000   -2.167755    0.363361
     10          1           0       -0.881358   -1.312736   -0.904295
     11          1           0        0.881358   -1.312736   -0.904295
 ---------------------------------------------------------------------
                    Distance matrix (angstroms):
                    1          2          3          4          5
     1  C    0.000000
     2  C    1.526458   0.000000
     3  C    1.526458   2.542160   0.000000
     4  H    1.094124   2.153773   2.153773   0.000000
     5  H    1.094124   2.153773   2.153773   1.748994   0.000000
     6  H    2.179149   1.091681   3.494757   2.497693   2.497693
     7  H    2.172737   1.092937   2.805153   2.517171   3.069060
     8  H    2.172737   1.092937   2.805153   3.069060   2.517171
     9  H    2.179149   3.494757   1.091681   2.497693   2.497693
    10  H    2.172737   2.805153   1.092937   3.069060   2.517171
    11  H    2.172737   2.805153   1.092937   2.517171   3.069060
                    6          7          8          9         10
     6  H    0.000000
     7  H    1.764880   0.000000
     8  H    1.764880   1.762716   0.000000
     9  H    4.335510   3.807566   3.807566   0.000000
    10  H    3.807566   3.162320   2.625472   1.764880   0.000000
    11  H    3.807566   2.625472   3.162320   1.764880   1.762716
                   11
    11  H    0.000000
 Stoichiometry    C3H8
 Framework group  C2V[C2(C),SGV(C2H2),SGV'(H2),X(H4)]
 Deg. of freedom     9
 Full point group                 C2V     NOp   4
 Largest Abelian subgroup         C2V     NOp   4
 Largest concise Abelian subgroup C2V     NOp   4
                         Standard orientation:                         
 ---------------------------------------------------------------------
 Center     Atomic      Atomic             Coordinates (Angstroms)
 Number     Number       Type             X           Y           Z
 ---------------------------------------------------------------------
      1          6           0        0.000000    0.000000    0.585912
      2          6           0        0.000000    1.271080   -0.259327
      3          6           0        0.000000   -1.271080   -0.259327
      4          1           0        0.874497    0.000000    1.243454
      5          1           0       -0.874497    0.000000    1.243454
      6          1           0        0.000000    2.167755    0.363361
      7          1           0        0.881358    1.312736   -0.904295
      8          1           0       -0.881358    1.312736   -0.904295
      9          1           0        0.000000   -2.167755    0.363361
     10          1           0       -0.881358   -1.312736   -0.904295
     11          1           0        0.881358   -1.312736   -0.904295
 ---------------------------------------------------------------------
 Rotational constants (GHZ):     29.5852912      8.4416518      7.4756297
 Leave Link  202 at Fri Jul  9 19:19:36 2021, MaxMem=  4194304000 cpu:         1.1
 (Enter /home/minenky/programs//g09/l301.exe)
 Standard basis: def2TZVP (5D, 7F)
 ======================================================================================================
                                       Pseudopotential Parameters
 ======================================================================================================
  Center     Atomic      Valence      Angular      Power
  Number     Number     Electrons     Momentum     of R      Exponent        Coefficient   SO-Coeffient
 ======================================================================================================
    1          6
                                   No pseudopotential on this center.
    2          6
                                   No pseudopotential on this center.
    3          6
                                   No pseudopotential on this center.
    4          1
                                   No pseudopotential on this center.
    5          1
                                   No pseudopotential on this center.
    6          1
                                   No pseudopotential on this center.
    7          1
                                   No pseudopotential on this center.
    8          1
                                   No pseudopotential on this center.
    9          1
                                   No pseudopotential on this center.
   10          1
                                   No pseudopotential on this center.
   11          1
                                   No pseudopotential on this center.
 ======================================================================================================
 Ernie: Thresh=  0.10000D-02 Tol=  0.10000D-05 Strict=F.
 AO basis set (Overlap normalization):
 Atom C1       Shell     1 S   6     bf    1 -     1          0.000000000000          0.000000000000          1.107213363335
      0.1357534968D+05  0.6064550360D-03
      0.2035233368D+04  0.4697908888D-02
      0.4632256236D+03  0.2433247765D-01
      0.1312001960D+03  0.9739996831D-01
      0.4285301589D+02  0.3019558425D+00
      0.1558418577D+02  0.6623360914D+00
 Atom C1       Shell     2 S   2     bf    2 -     2          0.000000000000          0.000000000000          1.107213363335
      0.6206713851D+01  0.6559530854D+00
      0.2576489653D+01  0.3758563329D+00
 Atom C1       Shell     3 S   1     bf    3 -     3          0.000000000000          0.000000000000          1.107213363335
      0.5769633942D+00  0.1000000000D+01
 Atom C1       Shell     4 S   1     bf    4 -     4          0.000000000000          0.000000000000          1.107213363335
      0.2297283136D+00  0.1000000000D+01
 Atom C1       Shell     5 S   1     bf    5 -     5          0.000000000000          0.000000000000          1.107213363335
      0.9516444003D-01  0.1000000000D+01
 Atom C1       Shell     6 P   4     bf    6 -     8          0.000000000000          0.000000000000          1.107213363335
      0.3469723224D+02  0.1132722000D-01
      0.7958262283D+01  0.7616965920D-01
      0.2378082688D+01  0.3019225220D+00
      0.8143320818D+00  0.7278502735D+00
 Atom C1       Shell     7 P   1     bf    9 -    11          0.000000000000          0.000000000000          1.107213363335
      0.2888754725D+00  0.1000000000D+01
 Atom C1       Shell     8 P   1     bf   12 -    14          0.000000000000          0.000000000000          1.107213363335
      0.1005682367D+00  0.1000000000D+01
 Atom C1       Shell     9 D   1     bf   15 -    19          0.000000000000          0.000000000000          1.107213363335
      0.1097000000D+01  0.1000000000D+01
 Atom C1       Shell    10 D   1     bf   20 -    24          0.000000000000          0.000000000000          1.107213363335
      0.3180000000D+00  0.1000000000D+01
 Atom C1       Shell    11 F   1     bf   25 -    31          0.000000000000          0.000000000000          1.107213363335
      0.7610000000D+00  0.1000000000D+01
 Atom C2       Shell    12 S   6     bf   32 -    32          0.000000000000          2.401993092988         -0.490056863499
      0.1357534968D+05  0.6064550360D-03
      0.2035233368D+04  0.4697908888D-02
      0.4632256236D+03  0.2433247765D-01
      0.1312001960D+03  0.9739996831D-01
      0.4285301589D+02  0.3019558425D+00
      0.1558418577D+02  0.6623360914D+00
 Atom C2       Shell    13 S   2     bf   33 -    33          0.000000000000          2.401993092988         -0.490056863499
      0.6206713851D+01  0.6559530854D+00
      0.2576489653D+01  0.3758563329D+00
 Atom C2       Shell    14 S   1     bf   34 -    34          0.000000000000          2.401993092988         -0.490056863499
      0.5769633942D+00  0.1000000000D+01
 Atom C2       Shell    15 S   1     bf   35 -    35          0.000000000000          2.401993092988         -0.490056863499
      0.2297283136D+00  0.1000000000D+01
 Atom C2       Shell    16 S   1     bf   36 -    36          0.000000000000          2.401993092988         -0.490056863499
      0.9516444003D-01  0.1000000000D+01
 Atom C2       Shell    17 P   4     bf   37 -    39          0.000000000000          2.401993092988         -0.490056863499
      0.3469723224D+02  0.1132722000D-01
      0.7958262283D+01  0.7616965920D-01
      0.2378082688D+01  0.3019225220D+00
      0.8143320818D+00  0.7278502735D+00
 Atom C2       Shell    18 P   1     bf   40 -    42          0.000000000000          2.401993092988         -0.490056863499
      0.2888754725D+00  0.1000000000D+01
 Atom C2       Shell    19 P   1     bf   43 -    45          0.000000000000          2.401993092988         -0.490056863499
      0.1005682367D+00  0.1000000000D+01
 Atom C2       Shell    20 D   1     bf   46 -    50          0.000000000000          2.401993092988         -0.490056863499
      0.1097000000D+01  0.1000000000D+01
 Atom C2       Shell    21 D   1     bf   51 -    55          0.000000000000          2.401993092988         -0.490056863499
      0.3180000000D+00  0.1000000000D+01
 Atom C2       Shell    22 F   1     bf   56 -    62          0.000000000000          2.401993092988         -0.490056863499
      0.7610000000D+00  0.1000000000D+01
 Atom C3       Shell    23 S   6     bf   63 -    63          0.000000000000         -2.401993092988         -0.490056863499
      0.1357534968D+05  0.6064550360D-03
      0.2035233368D+04  0.4697908888D-02
      0.4632256236D+03  0.2433247765D-01
      0.1312001960D+03  0.9739996831D-01
      0.4285301589D+02  0.3019558425D+00
      0.1558418577D+02  0.6623360914D+00
 Atom C3       Shell    24 S   2     bf   64 -    64          0.000000000000         -2.401993092988         -0.490056863499
      0.6206713851D+01  0.6559530854D+00
      0.2576489653D+01  0.3758563329D+00
 Atom C3       Shell    25 S   1     bf   65 -    65          0.000000000000         -2.401993092988         -0.490056863499
      0.5769633942D+00  0.1000000000D+01
 Atom C3       Shell    26 S   1     bf   66 -    66          0.000000000000         -2.401993092988         -0.490056863499
      0.2297283136D+00  0.1000000000D+01
 Atom C3       Shell    27 S   1     bf   67 -    67          0.000000000000         -2.401993092988         -0.490056863499
      0.9516444003D-01  0.1000000000D+01
 Atom C3       Shell    28 P   4     bf   68 -    70          0.000000000000         -2.401993092988         -0.490056863499
      0.3469723224D+02  0.1132722000D-01
      0.7958262283D+01  0.7616965920D-01
      0.2378082688D+01  0.3019225220D+00
      0.8143320818D+00  0.7278502735D+00
 Atom C3       Shell    29 P   1     bf   71 -    73          0.000000000000         -2.401993092988         -0.490056863499
      0.2888754725D+00  0.1000000000D+01
 Atom C3       Shell    30 P   1     bf   74 -    76          0.000000000000         -2.401993092988         -0.490056863499
      0.1005682367D+00  0.1000000000D+01
 Atom C3       Shell    31 D   1     bf   77 -    81          0.000000000000         -2.401993092988         -0.490056863499
      0.1097000000D+01  0.1000000000D+01
 Atom C3       Shell    32 D   1     bf   82 -    86          0.000000000000         -2.401993092988         -0.490056863499
      0.3180000000D+00  0.1000000000D+01
 Atom C3       Shell    33 F   1     bf   87 -    93          0.000000000000         -2.401993092988         -0.490056863499
      0.7610000000D+00  0.1000000000D+01
 Atom H4       Shell    34 S   3     bf   94 -    94          1.652559834030          0.000000000000          2.349787664205
      0.3406134100D+02  0.2543930721D-01
      0.5123574600D+01  0.1900859489D+00
      0.1164662600D+01  0.8524411301D+00
 Atom H4       Shell    35 S   1     bf   95 -    95          1.652559834030          0.000000000000          2.349787664205
      0.3272304100D+00  0.1000000000D+01
 Atom H4       Shell    36 S   1     bf   96 -    96          1.652559834030          0.000000000000          2.349787664205
      0.1030724100D+00  0.1000000000D+01
 Atom H4       Shell    37 P   1     bf   97 -    99          1.652559834030          0.000000000000          2.349787664205
      0.8000000000D+00  0.1000000000D+01
 Atom H5       Shell    38 S   3     bf  100 -   100         -1.652559834030          0.000000000000          2.349787664205
      0.3406134100D+02  0.2543930721D-01
      0.5123574600D+01  0.1900859489D+00
      0.1164662600D+01  0.8524411301D+00
 Atom H5       Shell    39 S   1     bf  101 -   101         -1.652559834030          0.000000000000          2.349787664205
      0.3272304100D+00  0.1000000000D+01
 Atom H5       Shell    40 S   1     bf  102 -   102         -1.652559834030          0.000000000000          2.349787664205
      0.1030724100D+00  0.1000000000D+01
 Atom H5       Shell    41 P   1     bf  103 -   105         -1.652559834030          0.000000000000          2.349787664205
      0.8000000000D+00  0.1000000000D+01
 Atom H6       Shell    42 S   3     bf  106 -   106          0.000000000000          4.096463273194          0.686652922735
      0.3406134100D+02  0.2543930721D-01
      0.5123574600D+01  0.1900859489D+00
      0.1164662600D+01  0.8524411301D+00
 Atom H6       Shell    43 S   1     bf  107 -   107          0.000000000000          4.096463273194          0.686652922735
      0.3272304100D+00  0.1000000000D+01
 Atom H6       Shell    44 S   1     bf  108 -   108          0.000000000000          4.096463273194          0.686652922735
      0.1030724100D+00  0.1000000000D+01
 Atom H6       Shell    45 P   1     bf  109 -   111          0.000000000000          4.096463273194          0.686652922735
      0.8000000000D+00  0.1000000000D+01
 Atom H7       Shell    46 S   3     bf  112 -   112          1.665525245028          2.480711524780         -1.708869747974
      0.3406134100D+02  0.2543930721D-01
      0.5123574600D+01  0.1900859489D+00
      0.1164662600D+01  0.8524411301D+00
 Atom H7       Shell    47 S   1     bf  113 -   113          1.665525245028          2.480711524780         -1.708869747974
      0.3272304100D+00  0.1000000000D+01
 Atom H7       Shell    48 S   1     bf  114 -   114          1.665525245028          2.480711524780         -1.708869747974
      0.1030724100D+00  0.1000000000D+01
 Atom H7       Shell    49 P   1     bf  115 -   117          1.665525245028          2.480711524780         -1.708869747974
      0.8000000000D+00  0.1000000000D+01
 Atom H8       Shell    50 S   3     bf  118 -   118         -1.665525245028          2.480711524780         -1.708869747974
      0.3406134100D+02  0.2543930721D-01
      0.5123574600D+01  0.1900859489D+00
      0.1164662600D+01  0.8524411301D+00
 Atom H8       Shell    51 S   1     bf  119 -   119         -1.665525245028          2.480711524780         -1.708869747974
      0.3272304100D+00  0.1000000000D+01
 Atom H8       Shell    52 S   1     bf  120 -   120         -1.665525245028          2.480711524780         -1.708869747974
      0.1030724100D+00  0.1000000000D+01
 Atom H8       Shell    53 P   1     bf  121 -   123         -1.665525245028          2.480711524780         -1.708869747974
      0.8000000000D+00  0.1000000000D+01
 Atom H9       Shell    54 S   3     bf  124 -   124          0.000000000000         -4.096463273194          0.686652922735
      0.3406134100D+02  0.2543930721D-01
      0.5123574600D+01  0.1900859489D+00
      0.1164662600D+01  0.8524411301D+00
 Atom H9       Shell    55 S   1     bf  125 -   125          0.000000000000         -4.096463273194          0.686652922735
      0.3272304100D+00  0.1000000000D+01
 Atom H9       Shell    56 S   1     bf  126 -   126          0.000000000000         -4.096463273194          0.686652922735
      0.1030724100D+00  0.1000000000D+01
 Atom H9       Shell    57 P   1     bf  127 -   129          0.000000000000         -4.096463273194          0.686652922735
      0.8000000000D+00  0.1000000000D+01
 Atom H10      Shell    58 S   3     bf  130 -   130         -1.665525245028         -2.480711524780         -1.708869747974
      0.3406134100D+02  0.2543930721D-01
      0.5123574600D+01  0.1900859489D+00
      0.1164662600D+01  0.8524411301D+00
 Atom H10      Shell    59 S   1     bf  131 -   131         -1.665525245028         -2.480711524780         -1.708869747974
      0.3272304100D+00  0.1000000000D+01
 Atom H10      Shell    60 S   1     bf  132 -   132         -1.665525245028         -2.480711524780         -1.708869747974
      0.1030724100D+00  0.1000000000D+01
 Atom H10      Shell    61 P   1     bf  133 -   135         -1.665525245028         -2.480711524780         -1.708869747974
      0.8000000000D+00  0.1000000000D+01
 Atom H11      Shell    62 S   3     bf  136 -   136          1.665525245028         -2.480711524780         -1.708869747974
      0.3406134100D+02  0.2543930721D-01
      0.5123574600D+01  0.1900859489D+00
      0.1164662600D+01  0.8524411301D+00
 Atom H11      Shell    63 S   1     bf  137 -   137          1.665525245028         -2.480711524780         -1.708869747974
      0.3272304100D+00  0.1000000000D+01
 Atom H11      Shell    64 S   1     bf  138 -   138          1.665525245028         -2.480711524780         -1.708869747974
      0.1030724100D+00  0.1000000000D+01
 Atom H11      Shell    65 P   1     bf  139 -   141          1.665525245028         -2.480711524780         -1.708869747974
      0.8000000000D+00  0.1000000000D+01
 There are    58 symmetry adapted cartesian basis functions of A1  symmetry.
 There are    22 symmetry adapted cartesian basis functions of A2  symmetry.
 There are    31 symmetry adapted cartesian basis functions of B1  symmetry.
 There are    45 symmetry adapted cartesian basis functions of B2  symmetry.
 There are    51 symmetry adapted basis functions of A1  symmetry.
 There are    21 symmetry adapted basis functions of A2  symmetry.
 There are    29 symmetry adapted basis functions of B1  symmetry.
 There are    40 symmetry adapted basis functions of B2  symmetry.
   141 basis functions,   217 primitive gaussians,   156 cartesian basis functions
    13 alpha electrons       13 beta electrons
       nuclear repulsion energy        82.5917383283 Hartrees.
 IExCor= 4639 DFT=T Ex+Corr=wB97XD ExCW=0 ScaHFX=  1.000000
 ScaDFX=  1.000000  1.000000  1.000000  1.000000 ScalE2=  1.000000  1.000000
 IRadAn=      5 IRanWt=     -1 IRanGd=            0 ICorTp=0 IEmpDi=121
  HFx wShort=  0.000000 wLong=  0.200000 cFull=  0.222036 cShort=  0.000000 cLong=  0.777964
  DFx wShort=  0.000000 wLong=  0.200000 cFull=  0.000000 cShort=  0.000000 cLong=  1.000000
 NAtoms=   11 NActive=   11 NUniq=    5 SFac= 4.00D+00 NAtFMM=   60 NAOKFM=F Big=F
 Integral buffers will be    131072 words long.
 Raffenetti 2 integral format.
 Two-electron integral symmetry is turned on.
 R6Disp:  Grimme-D2 Dispersion energy=       -0.0040012114 Hartrees.
 Nuclear repulsion after empirical dispersion term =       82.5877371169 Hartrees.
 Leave Link  301 at Fri Jul  9 19:19:37 2021, MaxMem=  4194304000 cpu:         0.3
 (Enter /home/minenky/programs//g09/l302.exe)
 NPDir=0 NMtPBC=     1 NCelOv=     1 NCel=       1 NClECP=     1 NCelD=      1
         NCelK=      1 NCelE2=     1 NClLst=     1 CellRange=     0.0.
 One-electron integrals computed using PRISM.
 One-electron integral symmetry used in STVInt
   4 Symmetry operations used in ECPInt.
 ECPInt:  NShTT=    2145 NPrTT=    5976 LenC2=    2143 LenP2D=    5316.
 LDataN:  DoStor=T MaxTD1= 6 Len=  172
 NBasis=   141 RedAO= T EigKep=  5.23D-04  NBF=    51    21    29    40
 NBsUse=   141 1.00D-06 EigRej= -1.00D+00 NBFU=    51    21    29    40
 Precomputing XC quadrature grid using
 IXCGrd= 4 IRadAn=           5 IRanWt=          -1 IRanGd=           0 AccXCQ= 0.00D+00.
 Generated NRdTot=       0 NPtTot=           0 NUsed=           0 NTot=          32
 NSgBfM=   156   156   156   156   156 MxSgAt=    11 MxSgA2=    11.
 Leave Link  302 at Fri Jul  9 19:19:41 2021, MaxMem=  4194304000 cpu:        42.0
 (Enter /home/minenky/programs//g09/l303.exe)
 DipDrv:  MaxL=1.
 Leave Link  303 at Fri Jul  9 19:19:41 2021, MaxMem=  4194304000 cpu:         2.2
 (Enter /home/minenky/programs//g09/l401.exe)
 ExpMin= 9.52D-02 ExpMax= 1.36D+04 ExpMxC= 4.63D+02 IAcc=3 IRadAn=         5 AccDes= 0.00D+00
 Harris functional with IExCor= 4639 and IRadAn=       5 diagonalized for initial guess.
 HarFok:  IExCor= 4639 AccDes= 0.00D+00 IRadAn=         5 IDoV= 1 UseB2=F ITyADJ=14
 ICtDFT=  3500011 ScaDFX=  1.000000  1.000000  1.000000  1.000000
 FoFCou: FMM=F IPFlag=           0 FMFlag=      100000 FMFlg1=           0
         NFxFlg=           0 DoJE=T BraDBF=F KetDBF=T FulRan=T
         wScrn=  0.000000 ICntrl=     500 IOpCl=  0 I1Cent=   200000004 NGrid=           0
         NMat0=    1 NMatS0=      1 NMatT0=    0 NMatD0=    1 NMtDS0=    0 NMtDT0=    0
 Petite list used in FoFCou.
 Harris En= -112.987959302672    
 JPrj=0 DoOrth=F DoCkMO=F.
 Initial guess orbital symmetries:
       Occupied  (B2) (A1) (A1) (A1) (B2) (A1) (B1) (A1) (B2) (A2)
                 (B2) (A1) (B1)
       Virtual   (A1) (B2) (A1) (B1) (A1) (B1) (B2) (A1) (A2) (B2)
                 (A1) (B2) (A2) (A1) (B1) (B1) (B2) (A1) (A1) (B2)
                 (B1) (A1) (B2) (A1) (A2) (B2) (B1) (A1) (A1) (B2)
                 (A2) (A1) (B1) (B2) (A1) (A2) (B2) (A1) (B1) (B2)
                 (A1) (B1) (A2) (B2) (A1) (A1) (B1) (A2) (B1) (B2)
                 (A1) (B2) (B1) (A2) (A1) (B2) (A1) (B1) (B2) (A2)
                 (A1) (A1) (B1) (B2) (B2) (A2) (A1) (A1) (B2) (A2)
                 (B2) (B1) (A1) (A1) (B2) (B1) (B1) (A2) (A1) (B2)
                 (B1) (A1) (A2) (B1) (B2) (A1) (A1) (A1) (B2) (B1)
                 (B2) (A1) (B2) (A2) (A1) (B1) (A2) (A1) (B2) (A2)
                 (A1) (B1) (B2) (B1) (A2) (A1) (A2) (B2) (B1) (A1)
                 (B1) (A2) (A1) (B2) (B2) (A1) (B1) (B2) (A1) (A2)
                 (B1) (B2) (A1) (A1) (B2) (A1) (B2) (A1)
 The electronic state of the initial guess is 1-A1.
 Leave Link  401 at Fri Jul  9 19:19:43 2021, MaxMem=  4194304000 cpu:        11.8
 (Enter /home/minenky/programs//g09/l502.exe)
 Closed shell SCF:
 Using DIIS extrapolation, IDIIS=  1040.
 Integral symmetry usage will be decided dynamically.
 Keep R1 ints in memory in symmetry-blocked form, NReq=125768080.
 IVT=      225124 IEndB=      225124 NGot=  4194304000 MDV=  4181411033
 LenX=  4181411033 LenY=  4181386256
 Requested convergence on RMS density matrix=1.00D-08 within 380 cycles.
 Requested convergence on MAX density matrix=1.00D-06.
 Requested convergence on             energy=1.00D-06.
 No special actions if energy rises.
 FoFCou: FMM=F IPFlag=           0 FMFlag=           0 FMFlg1=           0
         NFxFlg=           0 DoJE=F BraDBF=F KetDBF=F FulRan=T
         wScrn=  0.000000 ICntrl=     600 IOpCl=  0 I1Cent=           0 NGrid=           0
         NMat0=    1 NMatS0=  10011 NMatT0=    0 NMatD0=    1 NMtDS0=    0 NMtDT0=    0
 Petite list used in FoFCou.
 Integral accuracy reduced to 1.0D-05 until final iterations.

 Cycle   1  Pass 0  IDiag  1:
 E= -119.101333732533    
 DIIS: error= 7.34D-02 at cycle   1 NSaved=   1.
 NSaved= 1 IEnMin= 1 EnMin= -119.101333732533     IErMin= 1 ErrMin= 7.34D-02
 ErrMax= 7.34D-02  0.00D+00 EMaxC= 1.00D-01 BMatC= 2.56D-01 BMatP= 2.56D-01
 IDIUse=3 WtCom= 2.66D-01 WtEn= 7.34D-01
 Coeff-Com:  0.100D+01
 Coeff-En:   0.100D+01
 Coeff:      0.100D+01
 Gap=     0.494 Goal=   None    Shift=    0.000
 GapD=    0.494 DampG=2.000 DampE=0.500 DampFc=1.0000 IDamp=-1.
 RMSDP=1.55D-03 MaxDP=3.52D-02              OVMax= 6.16D-02

 Cycle   2  Pass 0  IDiag  1:
 E= -119.135219543262     Delta-E=       -0.033885810728 Rises=F Damp=F
 DIIS: error= 1.18D-02 at cycle   2 NSaved=   2.
 NSaved= 2 IEnMin= 2 EnMin= -119.135219543262     IErMin= 2 ErrMin= 1.18D-02
 ErrMax= 1.18D-02  0.00D+00 EMaxC= 1.00D-01 BMatC= 1.39D-02 BMatP= 2.56D-01
 IDIUse=3 WtCom= 8.82D-01 WtEn= 1.18D-01
 Coeff-Com:  0.109D+00 0.891D+00
 Coeff-En:   0.000D+00 0.100D+01
 Coeff:      0.962D-01 0.904D+00
 Gap=     0.535 Goal=   None    Shift=    0.000
 RMSDP=7.99D-04 MaxDP=1.94D-02 DE=-3.39D-02 OVMax= 4.09D-02

 Cycle   3  Pass 0  IDiag  1:
 E= -119.143310624451     Delta-E=       -0.008091081189 Rises=F Damp=F
 DIIS: error= 7.66D-03 at cycle   3 NSaved=   3.
 NSaved= 3 IEnMin= 3 EnMin= -119.143310624451     IErMin= 3 ErrMin= 7.66D-03
 ErrMax= 7.66D-03  0.00D+00 EMaxC= 1.00D-01 BMatC= 6.01D-03 BMatP= 1.39D-02
 IDIUse=3 WtCom= 9.23D-01 WtEn= 7.66D-02
 Coeff-Com:  0.246D-01 0.399D+00 0.576D+00
 Coeff-En:   0.000D+00 0.254D+00 0.746D+00
 Coeff:      0.227D-01 0.388D+00 0.589D+00
 Gap=     0.521 Goal=   None    Shift=    0.000
 RMSDP=3.09D-04 MaxDP=6.77D-03 DE=-8.09D-03 OVMax= 1.58D-02

 Cycle   4  Pass 0  IDiag  1:
 E= -119.148973611707     Delta-E=       -0.005662987256 Rises=F Damp=F
 DIIS: error= 4.80D-04 at cycle   4 NSaved=   4.
 NSaved= 4 IEnMin= 4 EnMin= -119.148973611707     IErMin= 4 ErrMin= 4.80D-04
 ErrMax= 4.80D-04  0.00D+00 EMaxC= 1.00D-01 BMatC= 1.10D-05 BMatP= 6.01D-03
 IDIUse=3 WtCom= 9.95D-01 WtEn= 4.80D-03
 Coeff-Com: -0.124D-03-0.839D-03 0.286D-01 0.972D+00
 Coeff-En:   0.000D+00 0.000D+00 0.000D+00 0.100D+01
 Coeff:     -0.124D-03-0.835D-03 0.285D-01 0.972D+00
 Gap=     0.521 Goal=   None    Shift=    0.000
 RMSDP=2.94D-05 MaxDP=5.48D-04 DE=-5.66D-03 OVMax= 1.24D-03

 Cycle   5  Pass 0  IDiag  1:
 E= -119.148986183964     Delta-E=       -0.000012572257 Rises=F Damp=F
 DIIS: error= 1.56D-04 at cycle   5 NSaved=   5.
 NSaved= 5 IEnMin= 5 EnMin= -119.148986183964     IErMin= 5 ErrMin= 1.56D-04
 ErrMax= 1.56D-04  0.00D+00 EMaxC= 1.00D-01 BMatC= 1.92D-06 BMatP= 1.10D-05
 IDIUse=3 WtCom= 9.98D-01 WtEn= 1.56D-03
 Coeff-Com: -0.195D-02-0.322D-01-0.349D-01 0.343D+00 0.726D+00
 Coeff-En:   0.000D+00 0.000D+00 0.000D+00 0.000D+00 0.100D+01
 Coeff:     -0.195D-02-0.321D-01-0.348D-01 0.343D+00 0.726D+00
 Gap=     0.521 Goal=   None    Shift=    0.000
 RMSDP=9.37D-06 MaxDP=1.77D-04 DE=-1.26D-05 OVMax= 3.53D-04

 Initial convergence to 1.0D-05 achieved.  Increase integral accuracy.
 Cycle   6  Pass 1  IDiag  1:
 E= -119.148992473525     Delta-E=       -0.000006289560 Rises=F Damp=F
 DIIS: error= 6.03D-05 at cycle   1 NSaved=   1.
 NSaved= 1 IEnMin= 1 EnMin= -119.148992473525     IErMin= 1 ErrMin= 6.03D-05
 ErrMax= 6.03D-05  0.00D+00 EMaxC= 1.00D-01 BMatC= 3.18D-07 BMatP= 3.18D-07
 IDIUse=1 WtCom= 1.00D+00 WtEn= 0.00D+00
 Coeff-Com:  0.100D+01
 Coeff:      0.100D+01
 Gap=     0.521 Goal=   None    Shift=    0.000
 RMSDP=9.37D-06 MaxDP=1.77D-04 DE=-6.29D-06 OVMax= 1.23D-04

 Cycle   7  Pass 1  IDiag  1:
 E= -119.148992686780     Delta-E=       -0.000000213255 Rises=F Damp=F
 DIIS: error= 2.03D-05 at cycle   2 NSaved=   2.
 NSaved= 2 IEnMin= 2 EnMin= -119.148992686780     IErMin= 2 ErrMin= 2.03D-05
 ErrMax= 2.03D-05  0.00D+00 EMaxC= 1.00D-01 BMatC= 3.09D-08 BMatP= 3.18D-07
 IDIUse=1 WtCom= 1.00D+00 WtEn= 0.00D+00
 Coeff-Com:  0.112D+00 0.888D+00
 Coeff:      0.112D+00 0.888D+00
 Gap=     0.521 Goal=   None    Shift=    0.000
 RMSDP=1.45D-06 MaxDP=3.76D-05 DE=-2.13D-07 OVMax= 5.95D-05

 Cycle   8  Pass 1  IDiag  1:
 E= -119.148992706649     Delta-E=       -0.000000019869 Rises=F Damp=F
 DIIS: error= 1.56D-05 at cycle   3 NSaved=   3.
 NSaved= 3 IEnMin= 3 EnMin= -119.148992706649     IErMin= 3 ErrMin= 1.56D-05
 ErrMax= 1.56D-05  0.00D+00 EMaxC= 1.00D-01 BMatC= 1.11D-08 BMatP= 3.09D-08
 IDIUse=1 WtCom= 1.00D+00 WtEn= 0.00D+00
 Coeff-Com: -0.397D-01 0.364D+00 0.676D+00
 Coeff:     -0.397D-01 0.364D+00 0.676D+00
 Gap=     0.521 Goal=   None    Shift=    0.000
 RMSDP=5.32D-07 MaxDP=1.47D-05 DE=-1.99D-08 OVMax= 2.44D-05

 Cycle   9  Pass 1  IDiag  1:
 E= -119.148992716833     Delta-E=       -0.000000010184 Rises=F Damp=F
 DIIS: error= 9.61D-07 at cycle   4 NSaved=   4.
 NSaved= 4 IEnMin= 4 EnMin= -119.148992716833     IErMin= 4 ErrMin= 9.61D-07
 ErrMax= 9.61D-07  0.00D+00 EMaxC= 1.00D-01 BMatC= 6.49D-11 BMatP= 1.11D-08
 IDIUse=1 WtCom= 1.00D+00 WtEn= 0.00D+00
 Coeff-Com: -0.775D-02 0.275D-01 0.784D-01 0.902D+00
 Coeff:     -0.775D-02 0.275D-01 0.784D-01 0.902D+00
 Gap=     0.521 Goal=   None    Shift=    0.000
 RMSDP=1.87D-07 MaxDP=3.88D-06 DE=-1.02D-08 OVMax= 4.26D-06

 Cycle  10  Pass 1  IDiag  1:
 E= -119.148992716942     Delta-E=       -0.000000000109 Rises=F Damp=F
 DIIS: error= 2.42D-07 at cycle   5 NSaved=   5.
 NSaved= 5 IEnMin= 5 EnMin= -119.148992716942     IErMin= 5 ErrMin= 2.42D-07
 ErrMax= 2.42D-07  0.00D+00 EMaxC= 1.00D-01 BMatC= 7.02D-12 BMatP= 6.49D-11
 IDIUse=1 WtCom= 1.00D+00 WtEn= 0.00D+00
 Coeff-Com:  0.314D-02-0.321D-01-0.598D-01 0.630D-01 0.103D+01
 Coeff:      0.314D-02-0.321D-01-0.598D-01 0.630D-01 0.103D+01
 Gap=     0.521 Goal=   None    Shift=    0.000
 RMSDP=8.61D-08 MaxDP=1.70D-06 DE=-1.09D-10 OVMax= 2.15D-06

 Cycle  11  Pass 1  IDiag  1:
 E= -119.148992716956     Delta-E=       -0.000000000014 Rises=F Damp=F
 DIIS: error= 9.43D-08 at cycle   6 NSaved=   6.
 NSaved= 6 IEnMin= 6 EnMin= -119.148992716956     IErMin= 6 ErrMin= 9.43D-08
 ErrMax= 9.43D-08  0.00D+00 EMaxC= 1.00D-01 BMatC= 9.84D-13 BMatP= 7.02D-12
 IDIUse=1 WtCom= 1.00D+00 WtEn= 0.00D+00
 Coeff-Com:  0.139D-02-0.114D-01-0.230D-01-0.241D-01 0.367D+00 0.690D+00
 Coeff:      0.139D-02-0.114D-01-0.230D-01-0.241D-01 0.367D+00 0.690D+00
 Gap=     0.521 Goal=   None    Shift=    0.000
 RMSDP=1.13D-08 MaxDP=2.08D-07 DE=-1.44D-11 OVMax= 3.37D-07

 Cycle  12  Pass 1  IDiag  1:
 E= -119.148992716958     Delta-E=       -0.000000000002 Rises=F Damp=F
 DIIS: error= 1.39D-08 at cycle   7 NSaved=   7.
 NSaved= 7 IEnMin= 7 EnMin= -119.148992716958     IErMin= 7 ErrMin= 1.39D-08
 ErrMax= 1.39D-08  0.00D+00 EMaxC= 1.00D-01 BMatC= 2.29D-14 BMatP= 9.84D-13
 IDIUse=1 WtCom= 1.00D+00 WtEn= 0.00D+00
 Coeff-Com:  0.108D-03-0.521D-03-0.143D-02-0.904D-02 0.116D-01 0.125D+00
 Coeff-Com:  0.875D+00
 Coeff:      0.108D-03-0.521D-03-0.143D-02-0.904D-02 0.116D-01 0.125D+00
 Coeff:      0.875D+00
 Gap=     0.521 Goal=   None    Shift=    0.000
 RMSDP=3.13D-09 MaxDP=4.16D-08 DE=-2.27D-12 OVMax= 7.36D-08

 SCF Done:  E(RwB97XD) =  -119.148992717     A.U. after   12 cycles
            NFock= 12  Conv=0.31D-08     -V/T= 2.0061
 KE= 1.184222815008D+02 PE=-4.403600216832D+02 EE= 1.202010103485D+02
 Leave Link  502 at Fri Jul  9 19:19:49 2021, MaxMem=  4194304000 cpu:        82.8
 (Enter /home/minenky/programs//g09/l601.exe)
 Copying SCF densities to generalized density rwf, IOpCl= 0 IROHF=0.

 **********************************************************************

            Population analysis using the SCF density.

 **********************************************************************

 Orbital symmetries:
       Occupied  (A1) (B2) (A1) (A1) (B2) (A1) (B1) (A1) (B2) (A2)
                 (B2) (A1) (B1)
       Virtual   (A1) (B2) (A1) (B1) (A1) (B1) (B2) (A1) (A2) (B2)
                 (A1) (A2) (B2) (A1) (B1) (B1) (B2) (A1) (A1) (B1)
                 (A1) (B2) (B2) (A1) (A2) (B2) (B1) (A1) (A1) (B2)
                 (A2) (A1) (B1) (B2) (A1) (A2) (B2) (A1) (B1) (B2)
                 (A1) (B1) (A2) (B2) (A1) (A1) (B1) (A2) (B1) (B2)
                 (A1) (B2) (A2) (B1) (A1) (B2) (A1) (B1) (B2) (A2)
                 (A1) (B1) (A1) (B2) (B2) (A2) (A1) (A1) (B2) (A2)
                 (B1) (B2) (A1) (A1) (B2) (B1) (B1) (A2) (A1) (B2)
                 (B1) (A1) (A2) (B1) (A1) (B2) (A1) (A1) (B2) (B1)
                 (B2) (B2) (A1) (A2) (A1) (B1) (A2) (A1) (B2) (A1)
                 (A2) (B1) (B2) (B1) (A2) (A1) (A2) (B2) (B1) (A1)
                 (B1) (A2) (A1) (B2) (B2) (A1) (B1) (B2) (A1) (A2)
                 (B1) (B2) (A1) (A1) (B2) (A1) (B2) (A1)
 The electronic state is 1-A1.
 Alpha  occ. eigenvalues --  -10.27575 -10.26672 -10.26671  -0.87979  -0.77670
 Alpha  occ. eigenvalues --   -0.67736  -0.54488  -0.52344  -0.48246  -0.46362
 Alpha  occ. eigenvalues --   -0.41873  -0.41748  -0.40737
 Alpha virt. eigenvalues --    0.11392   0.15686   0.16232   0.17011   0.18410
 Alpha virt. eigenvalues --    0.20095   0.21781   0.22668   0.22910   0.28471
 Alpha virt. eigenvalues --    0.29370   0.29989   0.30568   0.34613   0.35010
 Alpha virt. eigenvalues --    0.38937   0.40916   0.46324   0.48621   0.50675
 Alpha virt. eigenvalues --    0.51083   0.51090   0.52697   0.55474   0.55765
 Alpha virt. eigenvalues --    0.57231   0.59274   0.64934   0.67796   0.70374
 Alpha virt. eigenvalues --    0.75246   0.75833   0.88940   0.91469   0.92212
 Alpha virt. eigenvalues --    0.99602   1.04598   1.07086   1.09915   1.15983
 Alpha virt. eigenvalues --    1.17683   1.17747   1.19194   1.24562   1.27923
 Alpha virt. eigenvalues --    1.54519   1.58988   1.61371   1.62324   1.62448
 Alpha virt. eigenvalues --    1.63075   1.64413   1.66540   1.66982   1.71499
 Alpha virt. eigenvalues --    1.77038   1.80247   1.85988   1.92380   1.92730
 Alpha virt. eigenvalues --    1.97520   1.99078   1.99435   2.03915   2.16058
 Alpha virt. eigenvalues --    2.20625   2.21350   2.34844   2.38061   2.40439
 Alpha virt. eigenvalues --    2.43933   2.44283   2.46827   2.47404   2.48237
 Alpha virt. eigenvalues --    2.55776   2.62292   2.63119   2.67348   2.68718
 Alpha virt. eigenvalues --    2.70605   2.72681   2.74963   2.77387   2.80308
 Alpha virt. eigenvalues --    2.80684   2.86755   2.95707   3.01395   3.10546
 Alpha virt. eigenvalues --    3.14405   3.18259   3.19281   3.20429   3.24672
 Alpha virt. eigenvalues --    3.27439   3.30835   3.33755   3.35906   3.42719
 Alpha virt. eigenvalues --    3.43163   3.47523   3.58506   3.59382   3.59475
 Alpha virt. eigenvalues --    3.65163   3.67489   3.70704   3.87539   3.92312
 Alpha virt. eigenvalues --    3.96429   4.03044   4.07124   4.07876   4.14697
 Alpha virt. eigenvalues --    4.35011   4.42300   4.43928   4.47149   4.53041
 Alpha virt. eigenvalues --    4.63523   4.70554   4.70561   4.87548   4.90609
 Alpha virt. eigenvalues --   22.40259  22.44235  22.53766
          Condensed to atoms (all electrons):
               1          2          3          4          5          6
     1  C    4.894031   0.319783   0.319783   0.416163   0.416163  -0.037201
     2  C    0.319783   4.916283  -0.048196  -0.038914  -0.038914   0.409775
     3  C    0.319783  -0.048196   4.916283  -0.038914  -0.038914   0.009571
     4  H    0.416163  -0.038914  -0.038914   0.613699  -0.034956  -0.004180
     5  H    0.416163  -0.038914  -0.038914  -0.034956   0.613699  -0.004180
     6  H   -0.037201   0.409775   0.009571  -0.004180  -0.004180   0.559679
     7  H   -0.035669   0.408336  -0.004891  -0.006246   0.007815  -0.023378
     8  H   -0.035669   0.408336  -0.004891   0.007815  -0.006246  -0.023378
     9  H   -0.037201   0.009571   0.409775  -0.004180  -0.004180  -0.000350
    10  H   -0.035669  -0.004891   0.408336   0.007815  -0.006246  -0.000153
    11  H   -0.035669  -0.004891   0.408336  -0.006246   0.007815  -0.000153
               7          8          9         10         11
     1  C   -0.035669  -0.035669  -0.037201  -0.035669  -0.035669
     2  C    0.408336   0.408336   0.009571  -0.004891  -0.004891
     3  C   -0.004891  -0.004891   0.409775   0.408336   0.408336
     4  H   -0.006246   0.007815  -0.004180   0.007815  -0.006246
     5  H    0.007815  -0.006246  -0.004180  -0.006246   0.007815
     6  H   -0.023378  -0.023378  -0.000350  -0.000153  -0.000153
     7  H    0.576566  -0.030610  -0.000153  -0.000130   0.004055
     8  H   -0.030610   0.576566  -0.000153   0.004055  -0.000130
     9  H   -0.000153  -0.000153   0.559679  -0.023378  -0.023378
    10  H   -0.000130   0.004055  -0.023378   0.576566  -0.030610
    11  H    0.004055  -0.000130  -0.023378  -0.030610   0.576566
 Mulliken charges:
               1
     1  C   -0.148846
     2  C   -0.336277
     3  C   -0.336277
     4  H    0.088144
     5  H    0.088144
     6  H    0.113947
     7  H    0.104305
     8  H    0.104305
     9  H    0.113947
    10  H    0.104305
    11  H    0.104305
 Sum of Mulliken charges =   0.00000
 Mulliken charges with hydrogens summed into heavy atoms:
               1
     1  C    0.027442
     2  C   -0.013721
     3  C   -0.013721
 Electronic spatial extent (au):  <R**2>=            226.4725
 Charge=              0.0000 electrons
 Dipole moment (field-independent basis, Debye):
    X=              0.0000    Y=              0.0000    Z=              0.0915  Tot=              0.0915
 Quadrupole moment (field-independent basis, Debye-Ang):
   XX=            -21.3293   YY=            -22.1953   ZZ=            -21.8410
   XY=              0.0000   XZ=              0.0000   YZ=              0.0000
 Traceless Quadrupole moment (field-independent basis, Debye-Ang):
   XX=              0.4593   YY=             -0.4068   ZZ=             -0.0525
   XY=              0.0000   XZ=              0.0000   YZ=              0.0000
 Octapole moment (field-independent basis, Debye-Ang**2):
  XXX=              0.0000  YYY=              0.0000  ZZZ=              0.4012  XYY=              0.0000
  XXY=              0.0000  XXZ=             -0.4974  XZZ=              0.0000  YZZ=              0.0000
  YYZ=              1.6515  XYZ=              0.0000
 Hexadecapole moment (field-independent basis, Debye-Ang**3):
 XXXX=            -43.8719 YYYY=           -203.7019 ZZZZ=            -72.0474 XXXY=              0.0000
 XXXZ=              0.0000 YYYX=              0.0000 YYYZ=              0.0000 ZZZX=              0.0000
 ZZZY=              0.0000 XXYY=            -42.3321 XXZZ=            -17.0387 YYZZ=            -45.5258
 XXYZ=              0.0000 YYXZ=              0.0000 ZZXY=              0.0000
 N-N= 8.258773711691D+01 E-N=-4.403600228680D+02  KE= 1.184222815008D+02
 Symmetry A1   KE= 7.325302974777D+01
 Symmetry A2   KE= 2.034520465290D+00
 Symmetry B1   KE= 3.882662486987D+00
 Symmetry B2   KE= 3.925206880077D+01
 No NMR shielding tensors so no spin-rotation constants.
 Leave Link  601 at Fri Jul  9 19:19:52 2021, MaxMem=  4194304000 cpu:        25.4
 (Enter /home/minenky/programs//g09/l701.exe)
 Compute integral first derivatives.
 ... and contract with generalized density number  0.
 R6Disp: Adding Grimme-D2 dispersion energy 1st derivatives to the gradient.
   4 Symmetry operations used in ECPInt.
 ECPInt:  NShTT=    2145 NPrTT=    5976 LenC2=    2143 LenP2D=    5316.
 LDataN:  DoStor=T MaxTD1= 7 Len=  274
 Leave Link  701 at Fri Jul  9 19:19:54 2021, MaxMem=  4194304000 cpu:        21.5
 (Enter /home/minenky/programs//g09/l702.exe)
 L702 exits ... SP integral derivatives will be done elsewhere.
 Leave Link  702 at Fri Jul  9 19:19:55 2021, MaxMem=  4194304000 cpu:         0.0
 (Enter /home/minenky/programs//g09/l703.exe)
 Compute integral first derivatives, UseDBF=F ICtDFT=           0.
 Integral derivatives from FoFJK, PRISM(SPDF).
 Calling FoFJK, ICntrl=      2127 FMM=F ISym2X=1 I1Cent= 0 IOpClX= 0 NMat=1 NMatS=1 NMatT=0.
 FoFJK:  IHMeth= 1 ICntrl=    2127 DoSepK=T KAlg= 0 I1Cent=   0 FoldK=F
 IRaf=         1 NMat=   1 IRICut=       1 DoRegI=T DoRafI=F ISym2E= 1.
 FoFCou: FMM=F IPFlag=           0 FMFlag=      100000 FMFlg1=         800
         NFxFlg=           0 DoJE=F BraDBF=F KetDBF=F FulRan=T
         wScrn=  0.000000 ICntrl=    2527 IOpCl=  0 I1Cent=           0 NGrid=           0
         NMat0=    1 NMatS0=      1 NMatT0=    0 NMatD0=    1 NMtDS0=    0 NMtDT0=    0
 Petite list used in FoFCou.
 Leave Link  703 at Fri Jul  9 19:19:58 2021, MaxMem=  4194304000 cpu:        34.5
 (Enter /home/minenky/programs//g09/l716.exe)
 Dipole        = 4.44089210D-16-1.77635684D-15 3.59896050D-02
 ***** Axes restored to original set *****
 -------------------------------------------------------------------
 Center     Atomic                   Forces (Hartrees/Bohr)
 Number     Number              X              Y              Z
 -------------------------------------------------------------------
      1        6           0.000000000    0.000000000   -0.000943194
      2        6           0.000000000   -0.001005520    0.000498652
      3        6           0.000000000    0.001005520    0.000498652
      4        1          -0.000226520    0.000000000   -0.000407437
      5        1           0.000226520    0.000000000   -0.000407437
      6        1           0.000000000   -0.000340877    0.000039573
      7        1          -0.000070608   -0.000191343    0.000170404
      8        1           0.000070608   -0.000191343    0.000170404
      9        1           0.000000000    0.000340877    0.000039573
     10        1           0.000070608    0.000191343    0.000170404
     11        1          -0.000070608    0.000191343    0.000170404
 -------------------------------------------------------------------
 Cartesian Forces:  Max     0.001005520 RMS     0.000363558
 Leave Link  716 at Fri Jul  9 19:19:58 2021, MaxMem=  4194304000 cpu:         0.1
 (Enter /home/minenky/programs//g09/l103.exe)

 GradGradGradGradGradGradGradGradGradGradGradGradGradGradGradGradGradGrad
 Berny optimization.
 FormGI is forming the generalized inverse of G from B-inverse, IUseBI=4.
 Internal  Forces:  Max     0.001926549 RMS     0.000438330
 Search for a local minimum.
 Step number   1 out of a maximum of   56
 All quantities printed in internal units (Hartrees-Bohrs-Radians)
 RMS Force = .43833D-03 SwitMx=.10000D-02 MixMth= 2
 Mixed Optimization -- En-DIIS/RFO-DIIS
 Second derivative matrix not updated -- first step.
 ITU=  0
     Eigenvalues ---    0.00416   0.00416   0.03545   0.04857   0.05478
     Eigenvalues ---    0.05478   0.05560   0.05560   0.08396   0.12243
     Eigenvalues ---    0.16000   0.16000   0.16000   0.16000   0.16000
     Eigenvalues ---    0.16000   0.21892   0.29753   0.29753   0.34340
     Eigenvalues ---    0.34340   0.34475   0.34475   0.34475   0.34475
     Eigenvalues ---    0.34619   0.34619
 RFO step:  Lambda=-3.25643403D-05 EMin= 4.15961820D-03
 Linear search not attempted -- first point.
 Iteration  1 RMS(Cart)=  0.00404544 RMS(Int)=  0.00000194
 Iteration  2 RMS(Cart)=  0.00000214 RMS(Int)=  0.00000056
 Iteration  3 RMS(Cart)=  0.00000000 RMS(Int)=  0.00000056
 ITry= 1 IFail=0 DXMaxC= 1.10D-02 DCOld= 1.00D+10 DXMaxT= 3.00D-01 DXLimC= 3.00D+00 Rises=F
 ClnCor:  largest displacement from symmetrization is 7.71D-13 for atom    11.
 Variable       Old X    -DE/DX   Delta X   Delta X   Delta X     New X
                                 (Linear)    (Quad)   (Total)
    R1        2.88459  -0.00193   0.00000  -0.00647  -0.00647   2.87811
    R2        2.88459  -0.00193   0.00000  -0.00647  -0.00647   2.87811
    R3        2.06759  -0.00043   0.00000  -0.00124  -0.00124   2.06635
    R4        2.06759  -0.00043   0.00000  -0.00124  -0.00124   2.06635
    R5        2.06298  -0.00026   0.00000  -0.00074  -0.00074   2.06223
    R6        2.06535  -0.00016   0.00000  -0.00048  -0.00048   2.06487
    R7        2.06535  -0.00016   0.00000  -0.00048  -0.00048   2.06487
    R8        2.06298  -0.00026   0.00000  -0.00074  -0.00074   2.06223
    R9        2.06535  -0.00016   0.00000  -0.00048  -0.00048   2.06487
   R10        2.06535  -0.00016   0.00000  -0.00048  -0.00048   2.06487
    A1        1.96793  -0.00038   0.00000  -0.00238  -0.00238   1.96554
    A2        1.91004   0.00009   0.00000   0.00009   0.00009   1.91013
    A3        1.91004   0.00009   0.00000   0.00009   0.00009   1.91013
    A4        1.91004   0.00009   0.00000   0.00009   0.00009   1.91013
    A5        1.91004   0.00009   0.00000   0.00009   0.00009   1.91013
    A6        1.85215   0.00004   0.00000   0.00232   0.00232   1.85447
    A7        1.94778  -0.00023   0.00000  -0.00143  -0.00143   1.94635
    A8        1.93746  -0.00020   0.00000  -0.00124  -0.00124   1.93622
    A9        1.93746  -0.00020   0.00000  -0.00124  -0.00124   1.93622
   A10        1.88105   0.00023   0.00000   0.00141   0.00141   1.88246
   A11        1.88105   0.00023   0.00000   0.00141   0.00141   1.88246
   A12        1.87612   0.00021   0.00000   0.00133   0.00132   1.87745
   A13        1.94778  -0.00023   0.00000  -0.00143  -0.00143   1.94635
   A14        1.93746  -0.00020   0.00000  -0.00124  -0.00124   1.93622
   A15        1.93746  -0.00020   0.00000  -0.00124  -0.00124   1.93622
   A16        1.88105   0.00023   0.00000   0.00141   0.00141   1.88246
   A17        1.88105   0.00023   0.00000   0.00141   0.00141   1.88246
   A18        1.87612   0.00021   0.00000   0.00133   0.00132   1.87745
    D1        3.14159   0.00000   0.00000   0.00000   0.00000   3.14159
    D2       -1.04283   0.00000   0.00000  -0.00002  -0.00002  -1.04285
    D3        1.04283   0.00000   0.00000   0.00002   0.00002   1.04285
    D4       -1.01140  -0.00008   0.00000  -0.00144  -0.00144  -1.01284
    D5        1.08737  -0.00008   0.00000  -0.00146  -0.00146   1.08591
    D6       -3.11016  -0.00008   0.00000  -0.00142  -0.00142  -3.11158
    D7        1.01140   0.00008   0.00000   0.00144   0.00144   1.01284
    D8        3.11016   0.00008   0.00000   0.00142   0.00142   3.11158
    D9       -1.08737   0.00008   0.00000   0.00146   0.00146  -1.08591
   D10        3.14159   0.00000   0.00000   0.00000   0.00000   3.14159
   D11       -1.04283   0.00000   0.00000  -0.00002  -0.00002  -1.04285
   D12        1.04283   0.00000   0.00000   0.00002   0.00002   1.04285
   D13        1.01140   0.00008   0.00000   0.00144   0.00144   1.01284
   D14        3.11016   0.00008   0.00000   0.00142   0.00142   3.11158
   D15       -1.08737   0.00008   0.00000   0.00146   0.00146  -1.08591
   D16       -1.01140  -0.00008   0.00000  -0.00144  -0.00144  -1.01284
   D17        1.08737  -0.00008   0.00000  -0.00146  -0.00146   1.08591
   D18       -3.11016  -0.00008   0.00000  -0.00142  -0.00142  -3.11158
         Item               Value     Threshold  Converged?
 Maximum Force            0.001927     0.000015     NO 
 RMS     Force            0.000438     0.000010     NO 
 Maximum Displacement     0.010993     0.000060     NO 
 RMS     Displacement     0.004045     0.000040     NO 
 Predicted change in Energy=-1.628155D-05
 Lowest energy point so far.  Saving SCF results.
 GradGradGradGradGradGradGradGradGradGradGradGradGradGradGradGradGradGrad

 Leave Link  103 at Fri Jul  9 19:20:00 2021, MaxMem=  4194304000 cpu:        21.3
 (Enter /home/minenky/programs//g09/l202.exe)
                          Input orientation:                          
 ---------------------------------------------------------------------
 Center     Atomic      Atomic             Coordinates (Angstroms)
 Number     Number       Type             X           Y           Z
 ---------------------------------------------------------------------
      1          6           0        0.000000    0.000000    0.585668
      2          6           0        0.000000    1.267221   -0.259186
      3          6           0        0.000000   -1.267221   -0.259186
      4          1           0        0.874734    0.000000    1.241802
      5          1           0       -0.874734    0.000000    1.241802
      6          1           0        0.000000    2.163427    0.363488
      7          1           0        0.881582    1.306919   -0.903542
      8          1           0       -0.881582    1.306919   -0.903542
      9          1           0        0.000000   -2.163427    0.363488
     10          1           0       -0.881582   -1.306919   -0.903542
     11          1           0        0.881582   -1.306919   -0.903542
 ---------------------------------------------------------------------
                    Distance matrix (angstroms):
                    1          2          3          4          5
     1  C    0.000000
     2  C    1.523032   0.000000
     3  C    1.523032   2.534441   0.000000
     4  H    1.093467   2.150342   2.150342   0.000000
     5  H    1.093467   2.150342   2.150342   1.749468   0.000000
     6  H    2.174805   1.091287   3.486698   2.493393   2.493393
     7  H    2.168633   1.092684   2.796172   2.512088   3.065156
     8  H    2.168633   1.092684   2.796172   3.065156   2.512088
     9  H    2.174805   3.486698   1.091287   2.493393   2.493393
    10  H    2.168633   2.796172   1.092684   3.065156   2.512088
    11  H    2.168633   2.796172   1.092684   2.512088   3.065156
                    6          7          8          9         10
     6  H    0.000000
     7  H    1.765264   0.000000
     8  H    1.765264   1.763164   0.000000
     9  H    4.326853   3.798138   3.798138   0.000000
    10  H    3.798138   3.152918   2.613838   1.765264   0.000000
    11  H    3.798138   2.613838   3.152918   1.765264   1.763164
                   11
    11  H    0.000000
 Stoichiometry    C3H8
 Framework group  C2V[C2(C),SGV(C2H2),SGV'(H2),X(H4)]
 Deg. of freedom     9
 Full point group                 C2V     NOp   4
 RotChk:  IX=0 Diff= 5.55D-16
 Largest Abelian subgroup         C2V     NOp   4
 Largest concise Abelian subgroup C2V     NOp   4
                         Standard orientation:                         
 ---------------------------------------------------------------------
 Center     Atomic      Atomic             Coordinates (Angstroms)
 Number     Number       Type             X           Y           Z
 ---------------------------------------------------------------------
      1          6           0        0.000000    0.000000    0.585661
      2          6           0        0.000000    1.267221   -0.259193
      3          6           0        0.000000   -1.267221   -0.259193
      4          1           0        0.874734    0.000000    1.241794
      5          1           0       -0.874734    0.000000    1.241794
      6          1           0        0.000000    2.163427    0.363481
      7          1           0        0.881582    1.306919   -0.903550
      8          1           0       -0.881582    1.306919   -0.903550
      9          1           0        0.000000   -2.163427    0.363481
     10          1           0       -0.881582   -1.306919   -0.903550
     11          1           0        0.881582   -1.306919   -0.903550
 ---------------------------------------------------------------------
 Rotational constants (GHZ):     29.6136338      8.4887141      7.5148820
 Leave Link  202 at Fri Jul  9 19:20:00 2021, MaxMem=  4194304000 cpu:         1.4
 (Enter /home/minenky/programs//g09/l301.exe)
 Standard basis: def2TZVP (5D, 7F)
 Ernie: Thresh=  0.10000D-02 Tol=  0.10000D-05 Strict=F.
 There are    58 symmetry adapted cartesian basis functions of A1  symmetry.
 There are    22 symmetry adapted cartesian basis functions of A2  symmetry.
 There are    31 symmetry adapted cartesian basis functions of B1  symmetry.
 There are    45 symmetry adapted cartesian basis functions of B2  symmetry.
 There are    51 symmetry adapted basis functions of A1  symmetry.
 There are    21 symmetry adapted basis functions of A2  symmetry.
 There are    29 symmetry adapted basis functions of B1  symmetry.
 There are    40 symmetry adapted basis functions of B2  symmetry.
   141 basis functions,   217 primitive gaussians,   156 cartesian basis functions
    13 alpha electrons       13 beta electrons
       nuclear repulsion energy        82.7319752728 Hartrees.
 IExCor= 4639 DFT=T Ex+Corr=wB97XD ExCW=0 ScaHFX=  1.000000
 ScaDFX=  1.000000  1.000000  1.000000  1.000000 ScalE2=  1.000000  1.000000
 IRadAn=      5 IRanWt=     -1 IRanGd=            0 ICorTp=0 IEmpDi=121
  HFx wShort=  0.000000 wLong=  0.200000 cFull=  0.222036 cShort=  0.000000 cLong=  0.777964
  DFx wShort=  0.000000 wLong=  0.200000 cFull=  0.000000 cShort=  0.000000 cLong=  1.000000
 NAtoms=   11 NActive=   11 NUniq=    5 SFac= 4.00D+00 NAtFMM=   60 NAOKFM=F Big=F
 Integral buffers will be    131072 words long.
 Raffenetti 2 integral format.
 Two-electron integral symmetry is turned on.
 R6Disp:  Grimme-D2 Dispersion energy=       -0.0040094581 Hartrees.
 Nuclear repulsion after empirical dispersion term =       82.7279658147 Hartrees.
 Leave Link  301 at Fri Jul  9 19:20:00 2021, MaxMem=  4194304000 cpu:         0.2
 (Enter /home/minenky/programs//g09/l302.exe)
 NPDir=0 NMtPBC=     1 NCelOv=     1 NCel=       1 NClECP=     1 NCelD=      1
         NCelK=      1 NCelE2=     1 NClLst=     1 CellRange=     0.0.
 One-electron integrals computed using PRISM.
 One-electron integral symmetry used in STVInt
   4 Symmetry operations used in ECPInt.
 ECPInt:  NShTT=    2145 NPrTT=    5976 LenC2=    2143 LenP2D=    5320.
 LDataN:  DoStor=T MaxTD1= 6 Len=  172
 NBasis=   141 RedAO= T EigKep=  5.15D-04  NBF=    51    21    29    40
 NBsUse=   141 1.00D-06 EigRej= -1.00D+00 NBFU=    51    21    29    40
 Precomputing XC quadrature grid using
 IXCGrd= 4 IRadAn=           5 IRanWt=          -1 IRanGd=           0 AccXCQ= 0.00D+00.
 Generated NRdTot=       0 NPtTot=           0 NUsed=           0 NTot=          32
 NSgBfM=   156   156   156   156   156 MxSgAt=    11 MxSgA2=    11.
 Leave Link  302 at Fri Jul  9 19:20:03 2021, MaxMem=  4194304000 cpu:        31.6
 (Enter /home/minenky/programs//g09/l303.exe)
 DipDrv:  MaxL=1.
 Leave Link  303 at Fri Jul  9 19:20:03 2021, MaxMem=  4194304000 cpu:         2.3
 (Enter /home/minenky/programs//g09/l401.exe)
 Initial guess from the checkpoint file:  "m1_00_74-98-60_C3H8_wB97XD.chk"
 B after Tr=     0.000000    0.000000    0.000000
         Rot=    1.000000    0.000000    0.000000    0.000000 Ang=   0.00 deg.
 Guess basis will be translated and rotated to current coordinates.
 JPrj=2 DoOrth=T DoCkMO=T.
 Initial guess orbital symmetries:
       Occupied  (A1) (B2) (A1) (A1) (B2) (A1) (B1) (A1) (B2) (A2)
                 (B2) (A1) (B1)
       Virtual   (A1) (A1) (A1) (A1) (A1) (A1) (A1) (A1) (A1) (A1)
                 (A1) (A1) (A1) (A1) (A1) (A1) (A1) (A1) (A1) (A1)
                 (A1) (A1) (A1) (A1) (A1) (A1) (A1) (A1) (A1) (A1)
                 (A1) (A1) (A1) (A1) (A1) (A1) (A1) (A1) (A1) (A1)
                 (A1) (A1) (A1) (A1) (A1) (A2) (A2) (A2) (A2) (A2)
                 (A2) (A2) (A2) (A2) (A2) (A2) (A2) (A2) (A2) (A2)
                 (A2) (A2) (A2) (A2) (A2) (B1) (B1) (B1) (B1) (B1)
                 (B1) (B1) (B1) (B1) (B1) (B1) (B1) (B1) (B1) (B1)
                 (B1) (B1) (B1) (B1) (B1) (B1) (B1) (B1) (B1) (B1)
                 (B1) (B1) (B2) (B2) (B2) (B2) (B2) (B2) (B2) (B2)
                 (B2) (B2) (B2) (B2) (B2) (B2) (B2) (B2) (B2) (B2)
                 (B2) (B2) (B2) (B2) (B2) (B2) (B2) (B2) (B2) (B2)
                 (B2) (B2) (B2) (B2) (B2) (B2) (B2) (B2)
 The electronic state of the initial guess is 1-A1.
 Leave Link  401 at Fri Jul  9 19:20:04 2021, MaxMem=  4194304000 cpu:        13.3
 (Enter /home/minenky/programs//g09/l502.exe)
 Closed shell SCF:
 Using DIIS extrapolation, IDIIS=  1040.
 Integral symmetry usage will be decided dynamically.
 Keep R1 ints in memory in symmetry-blocked form, NReq=125768080.
 IVT=      225124 IEndB=      225124 NGot=  4194304000 MDV=  4181411033
 LenX=  4181411033 LenY=  4181386256
 Requested convergence on RMS density matrix=1.00D-08 within 380 cycles.
 Requested convergence on MAX density matrix=1.00D-06.
 Requested convergence on             energy=1.00D-06.
 No special actions if energy rises.
 FoFCou: FMM=F IPFlag=           0 FMFlag=           0 FMFlg1=           0
         NFxFlg=           0 DoJE=F BraDBF=F KetDBF=F FulRan=T
         wScrn=  0.000000 ICntrl=     600 IOpCl=  0 I1Cent=           0 NGrid=           0
         NMat0=    1 NMatS0=  10011 NMatT0=    0 NMatD0=    1 NMtDS0=    0 NMtDT0=    0
 Petite list used in FoFCou.

 Cycle   1  Pass 1  IDiag  1:
 E= -119.149001277489    
 DIIS: error= 1.59D-04 at cycle   1 NSaved=   1.
 NSaved= 1 IEnMin= 1 EnMin= -119.149001277489     IErMin= 1 ErrMin= 1.59D-04
 ErrMax= 1.59D-04  0.00D+00 EMaxC= 1.00D-01 BMatC= 5.21D-06 BMatP= 5.21D-06
 IDIUse=3 WtCom= 9.98D-01 WtEn= 1.59D-03
 Coeff-Com:  0.100D+01
 Coeff-En:   0.100D+01
 Coeff:      0.100D+01
 Gap=     0.925 Goal=   None    Shift=    0.000
 RMSDP=1.54D-05 MaxDP=2.93D-04              OVMax= 6.07D-04

 Cycle   2  Pass 1  IDiag  1:
 E= -119.149006022094     Delta-E=       -0.000004744605 Rises=F Damp=F
 DIIS: error= 8.19D-05 at cycle   2 NSaved=   2.
 NSaved= 2 IEnMin= 2 EnMin= -119.149006022094     IErMin= 2 ErrMin= 8.19D-05
 ErrMax= 8.19D-05  0.00D+00 EMaxC= 1.00D-01 BMatC= 4.00D-07 BMatP= 5.21D-06
 IDIUse=1 WtCom= 1.00D+00 WtEn= 0.00D+00
 Coeff-Com:  0.715D-01 0.928D+00
 Coeff:      0.715D-01 0.928D+00
 Gap=     0.521 Goal=   None    Shift=    0.000
 RMSDP=5.00D-06 MaxDP=1.17D-04 DE=-4.74D-06 OVMax= 2.73D-04

 Cycle   3  Pass 1  IDiag  1:
 E= -119.149006325460     Delta-E=       -0.000000303365 Rises=F Damp=F
 DIIS: error= 5.30D-05 at cycle   3 NSaved=   3.
 NSaved= 3 IEnMin= 3 EnMin= -119.149006325460     IErMin= 3 ErrMin= 5.30D-05
 ErrMax= 5.30D-05  0.00D+00 EMaxC= 1.00D-01 BMatC= 1.72D-07 BMatP= 4.00D-07
 IDIUse=1 WtCom= 1.00D+00 WtEn= 0.00D+00
 Coeff-Com: -0.460D-01 0.385D+00 0.661D+00
 Coeff:     -0.460D-01 0.385D+00 0.661D+00
 Gap=     0.521 Goal=   None    Shift=    0.000
 RMSDP=1.80D-06 MaxDP=4.66D-05 DE=-3.03D-07 OVMax= 1.02D-04

 Cycle   4  Pass 1  IDiag  1:
 E= -119.149006497524     Delta-E=       -0.000000172064 Rises=F Damp=F
 DIIS: error= 3.69D-06 at cycle   4 NSaved=   4.
 NSaved= 4 IEnMin= 4 EnMin= -119.149006497524     IErMin= 4 ErrMin= 3.69D-06
 ErrMax= 3.69D-06  0.00D+00 EMaxC= 1.00D-01 BMatC= 1.04D-09 BMatP= 1.72D-07
 IDIUse=1 WtCom= 1.00D+00 WtEn= 0.00D+00
 Coeff-Com:  0.402D-03-0.564D-01-0.270D-01 0.108D+01
 Coeff:      0.402D-03-0.564D-01-0.270D-01 0.108D+01
 Gap=     0.521 Goal=   None    Shift=    0.000
 RMSDP=6.73D-07 MaxDP=1.43D-05 DE=-1.72D-07 OVMax= 2.55D-05

 Cycle   5  Pass 1  IDiag  1:
 E= -119.149006499975     Delta-E=       -0.000000002451 Rises=F Damp=F
 DIIS: error= 6.70D-07 at cycle   5 NSaved=   5.
 NSaved= 5 IEnMin= 5 EnMin= -119.149006499975     IErMin= 5 ErrMin= 6.70D-07
 ErrMax= 6.70D-07  0.00D+00 EMaxC= 1.00D-01 BMatC= 5.04D-11 BMatP= 1.04D-09
 IDIUse=1 WtCom= 1.00D+00 WtEn= 0.00D+00
 Coeff-Com:  0.157D-02-0.201D-01-0.260D-01 0.136D+00 0.909D+00
 Coeff:      0.157D-02-0.201D-01-0.260D-01 0.136D+00 0.909D+00
 Gap=     0.521 Goal=   None    Shift=    0.000
 RMSDP=1.71D-07 MaxDP=3.90D-06 DE=-2.45D-09 OVMax= 4.90D-06

 Cycle   6  Pass 1  IDiag  1:
 E= -119.149006500065     Delta-E=       -0.000000000090 Rises=F Damp=F
 DIIS: error= 2.17D-07 at cycle   6 NSaved=   6.
 NSaved= 6 IEnMin= 6 EnMin= -119.149006500065     IErMin= 6 ErrMin= 2.17D-07
 ErrMax= 2.17D-07  0.00D+00 EMaxC= 1.00D-01 BMatC= 6.80D-12 BMatP= 5.04D-11
 IDIUse=1 WtCom= 1.00D+00 WtEn= 0.00D+00
 Coeff-Com:  0.351D-03-0.133D-02-0.532D-02-0.363D-01 0.243D+00 0.799D+00
 Coeff:      0.351D-03-0.133D-02-0.532D-02-0.363D-01 0.243D+00 0.799D+00
 Gap=     0.521 Goal=   None    Shift=    0.000
 RMSDP=5.42D-08 MaxDP=1.26D-06 DE=-8.96D-11 OVMax= 1.38D-06

 Cycle   7  Pass 1  IDiag  1:
 E= -119.149006500073     Delta-E=       -0.000000000008 Rises=F Damp=F
 DIIS: error= 7.09D-08 at cycle   7 NSaved=   7.
 NSaved= 7 IEnMin= 7 EnMin= -119.149006500073     IErMin= 7 ErrMin= 7.09D-08
 ErrMax= 7.09D-08  0.00D+00 EMaxC= 1.00D-01 BMatC= 5.09D-13 BMatP= 6.80D-12
 IDIUse=1 WtCom= 1.00D+00 WtEn= 0.00D+00
 Coeff-Com: -0.105D-03 0.201D-02 0.168D-02-0.216D-01-0.421D-01 0.178D+00
 Coeff-Com:  0.882D+00
 Coeff:     -0.105D-03 0.201D-02 0.168D-02-0.216D-01-0.421D-01 0.178D+00
 Coeff:      0.882D+00
 Gap=     0.521 Goal=   None    Shift=    0.000
 RMSDP=1.92D-08 MaxDP=4.55D-07 DE=-8.30D-12 OVMax= 5.20D-07

 Cycle   8  Pass 1  IDiag  1:
 E= -119.149006500073     Delta-E=        0.000000000000 Rises=F Damp=F
 DIIS: error= 9.02D-09 at cycle   8 NSaved=   8.
 NSaved= 8 IEnMin= 7 EnMin= -119.149006500073     IErMin= 8 ErrMin= 9.02D-09
 ErrMax= 9.02D-09  0.00D+00 EMaxC= 1.00D-01 BMatC= 1.32D-14 BMatP= 5.09D-13
 IDIUse=1 WtCom= 1.00D+00 WtEn= 0.00D+00
 Coeff-Com: -0.247D-04 0.232D-03 0.375D-03 0.587D-05-0.181D-01-0.173D-01
 Coeff-Com:  0.101D+00 0.934D+00
 Coeff:     -0.247D-04 0.232D-03 0.375D-03 0.587D-05-0.181D-01-0.173D-01
 Coeff:      0.101D+00 0.934D+00
 Gap=     0.521 Goal=   None    Shift=    0.000
 RMSDP=3.33D-09 MaxDP=7.79D-08 DE= 1.14D-13 OVMax= 9.47D-08

 SCF Done:  E(RwB97XD) =  -119.149006500     A.U. after    8 cycles
            NFock=  8  Conv=0.33D-08     -V/T= 2.0060
 KE= 1.184388474739D+02 PE=-4.406529596004D+02 EE= 1.203371398118D+02
 Leave Link  502 at Fri Jul  9 19:20:08 2021, MaxMem=  4194304000 cpu:        56.1
 (Enter /home/minenky/programs//g09/l701.exe)
 Compute integral first derivatives.
 ... and contract with generalized density number  0.
 R6Disp: Adding Grimme-D2 dispersion energy 1st derivatives to the gradient.
   4 Symmetry operations used in ECPInt.
 ECPInt:  NShTT=    2145 NPrTT=    5976 LenC2=    2143 LenP2D=    5320.
 LDataN:  DoStor=T MaxTD1= 7 Len=  274
 Leave Link  701 at Fri Jul  9 19:20:09 2021, MaxMem=  4194304000 cpu:        13.1
 (Enter /home/minenky/programs//g09/l702.exe)
 L702 exits ... SP integral derivatives will be done elsewhere.
 Leave Link  702 at Fri Jul  9 19:20:09 2021, MaxMem=  4194304000 cpu:         0.0
 (Enter /home/minenky/programs//g09/l703.exe)
 Compute integral first derivatives, UseDBF=F ICtDFT=           0.
 Integral derivatives from FoFJK, PRISM(SPDF).
 Calling FoFJK, ICntrl=      2127 FMM=F ISym2X=1 I1Cent= 0 IOpClX= 0 NMat=1 NMatS=1 NMatT=0.
 FoFJK:  IHMeth= 1 ICntrl=    2127 DoSepK=T KAlg= 0 I1Cent=   0 FoldK=F
 IRaf=         1 NMat=   1 IRICut=       1 DoRegI=T DoRafI=F ISym2E= 1.
 FoFCou: FMM=F IPFlag=           0 FMFlag=      100000 FMFlg1=         800
         NFxFlg=           0 DoJE=F BraDBF=F KetDBF=F FulRan=T
         wScrn=  0.000000 ICntrl=    2527 IOpCl=  0 I1Cent=           0 NGrid=           0
         NMat0=    1 NMatS0=      1 NMatT0=    0 NMatD0=    1 NMtDS0=    0 NMtDT0=    0
 Petite list used in FoFCou.
 Leave Link  703 at Fri Jul  9 19:20:13 2021, MaxMem=  4194304000 cpu:        43.0
 (Enter /home/minenky/programs//g09/l716.exe)
 Dipole        = 2.22044605D-16 3.55271368D-15 3.68725457D-02
 ***** Axes restored to original set *****
 -------------------------------------------------------------------
 Center     Atomic                   Forces (Hartrees/Bohr)
 Number     Number              X              Y              Z
 -------------------------------------------------------------------
      1        6           0.000000000    0.000000000   -0.000070969
      2        6           0.000000000    0.000120416    0.000096588
      3        6           0.000000000   -0.000120416    0.000096588
      4        1          -0.000008715    0.000000000    0.000067426
      5        1           0.000008715    0.000000000    0.000067426
      6        1           0.000000000    0.000077391   -0.000077548
      7        1          -0.000007197    0.000034870   -0.000025491
      8        1           0.000007197    0.000034870   -0.000025491
      9        1           0.000000000   -0.000077391   -0.000077548
     10        1           0.000007197   -0.000034870   -0.000025491
     11        1          -0.000007197   -0.000034870   -0.000025491
 -------------------------------------------------------------------
 Cartesian Forces:  Max     0.000120416 RMS     0.000053262
 Leave Link  716 at Fri Jul  9 19:20:13 2021, MaxMem=  4194304000 cpu:         0.1
 (Enter /home/minenky/programs//g09/l103.exe)

 GradGradGradGradGradGradGradGradGradGradGradGradGradGradGradGradGradGrad
 Berny optimization.
 Using GEDIIS/GDIIS optimizer.
 FormGI is forming the generalized inverse of G from B-inverse, IUseBI=4.
 Internal  Forces:  Max     0.000240327 RMS     0.000068952
 Search for a local minimum.
 Step number   2 out of a maximum of   56
 All quantities printed in internal units (Hartrees-Bohrs-Radians)
 RMS Force = .68952D-04 SwitMx=.10000D-02 MixMth= 2
 Mixed Optimization -- En-DIIS/RFO-DIIS
 Swapping is turned off.
 Update second derivatives using D2CorX and points    1    2
 DE= -1.38D-05 DEPred=-1.63D-05 R= 8.47D-01
 TightC=F SS=  1.41D+00  RLast= 1.21D-02 DXNew= 5.0454D-01 3.6331D-02
 Trust test= 8.47D-01 RLast= 1.21D-02 DXMaxT set to 3.00D-01
 ITU=  1  0
     Eigenvalues ---    0.00416   0.00416   0.03562   0.04955   0.05492
     Eigenvalues ---    0.05492   0.05573   0.05575   0.08368   0.12223
     Eigenvalues ---    0.15909   0.16000   0.16000   0.16000   0.16000
     Eigenvalues ---    0.16657   0.22097   0.29753   0.32238   0.34340
     Eigenvalues ---    0.34396   0.34475   0.34475   0.34475   0.34482
     Eigenvalues ---    0.34619   0.34642
 En-DIIS/RFO-DIIS IScMMF=        0 using points:     2    1
 RFO step:  Lambda=-4.37953114D-07.
 NNeg= 0 NP= 2 Switch=  2.50D-03 Rises=F DC=  1.38D-05 SmlDif=  1.00D-05
 RMS Error=  0.1427704618D-03 NUsed= 2 EDIIS=F
 DidBck=F Rises=F RFO-DIIS coefs:    0.86470    0.13530
 Iteration  1 RMS(Cart)=  0.00062296 RMS(Int)=  0.00000008
 Iteration  2 RMS(Cart)=  0.00000009 RMS(Int)=  0.00000004
 ITry= 1 IFail=0 DXMaxC= 1.69D-03 DCOld= 1.00D+10 DXMaxT= 3.00D-01 DXLimC= 3.00D+00 Rises=F
 ClnCor:  largest displacement from symmetrization is 1.19D-12 for atom     9.
 Variable       Old X    -DE/DX   Delta X   Delta X   Delta X     New X
                                 (Linear)    (Quad)   (Total)
    R1        2.87811   0.00024   0.00088  -0.00023   0.00065   2.87876
    R2        2.87811   0.00024   0.00088  -0.00023   0.00065   2.87876
    R3        2.06635   0.00003   0.00017  -0.00009   0.00007   2.06643
    R4        2.06635   0.00003   0.00017  -0.00009   0.00007   2.06643
    R5        2.06223   0.00002   0.00010  -0.00006   0.00004   2.06228
    R6        2.06487   0.00001   0.00006  -0.00004   0.00002   2.06490
    R7        2.06487   0.00001   0.00006  -0.00004   0.00002   2.06490
    R8        2.06223   0.00002   0.00010  -0.00006   0.00004   2.06228
    R9        2.06487   0.00001   0.00006  -0.00004   0.00002   2.06490
   R10        2.06487   0.00001   0.00006  -0.00004   0.00002   2.06490
    A1        1.96554   0.00013   0.00032   0.00035   0.00067   1.96622
    A2        1.91013  -0.00003  -0.00001  -0.00002  -0.00003   1.91010
    A3        1.91013  -0.00003  -0.00001  -0.00002  -0.00003   1.91010
    A4        1.91013  -0.00003  -0.00001  -0.00002  -0.00003   1.91010
    A5        1.91013  -0.00003  -0.00001  -0.00002  -0.00003   1.91010
    A6        1.85447  -0.00001  -0.00031  -0.00030  -0.00062   1.85385
    A7        1.94635   0.00014   0.00019   0.00064   0.00083   1.94718
    A8        1.93622   0.00002   0.00017  -0.00009   0.00008   1.93630
    A9        1.93622   0.00002   0.00017  -0.00009   0.00008   1.93630
   A10        1.88246  -0.00008  -0.00019  -0.00014  -0.00033   1.88212
   A11        1.88246  -0.00008  -0.00019  -0.00014  -0.00033   1.88212
   A12        1.87745  -0.00004  -0.00018  -0.00020  -0.00038   1.87707
   A13        1.94635   0.00014   0.00019   0.00064   0.00083   1.94718
   A14        1.93622   0.00002   0.00017  -0.00009   0.00008   1.93630
   A15        1.93622   0.00002   0.00017  -0.00009   0.00008   1.93630
   A16        1.88246  -0.00008  -0.00019  -0.00014  -0.00033   1.88212
   A17        1.88246  -0.00008  -0.00019  -0.00014  -0.00033   1.88212
   A18        1.87745  -0.00004  -0.00018  -0.00020  -0.00038   1.87707
    D1        3.14159   0.00000   0.00000   0.00000   0.00000   3.14159
    D2       -1.04285   0.00001   0.00000   0.00019   0.00019  -1.04266
    D3        1.04285  -0.00001   0.00000  -0.00019  -0.00019   1.04266
    D4       -1.01284   0.00003   0.00020   0.00019   0.00039  -1.01245
    D5        1.08591   0.00004   0.00020   0.00038   0.00058   1.08648
[...]
     31  0.202810D-03  0.694175D-04 -0.240721D-03  0.197554D-04  0.627790D-03
     32 -0.331615D-03  0.342705D-03  0.136061D-03 -0.627790D-03 -0.289019D-03
     33 -0.268197D-03  0.119004D-03  0.000000D+00 -0.100991D-03 -0.524365D-03
               21            22            23            24            25 
     21  0.147532D+00
     22 -0.159886D-01  0.237876D+00
     23 -0.403868D-03 -0.591524D-02  0.508440D-01
     24  0.122981D-01  0.137590D+00 -0.716183D-02  0.147532D+00
     25 -0.268198D-03  0.202810D-03 -0.331615D-03  0.268197D-03  0.464912D-01
     26 -0.119004D-03  0.694175D-04  0.342705D-03 -0.119004D-03  0.000000D+00
     27  0.000000D+00  0.240721D-03 -0.136061D-03  0.000000D+00  0.000000D+00
     28 -0.698912D-04  0.197554D-04 -0.627790D-03  0.100991D-03  0.769947D-03
     29  0.763235D-04  0.627790D-03 -0.289019D-03  0.524365D-03  0.225282D-01
     30  0.335690D-04  0.100991D-03 -0.524365D-03  0.602952D-03 -0.151623D-01
     31 -0.100991D-03 -0.118517D-03 -0.348301D-04  0.698912D-04  0.769948D-03
     32  0.524365D-03 -0.348301D-04 -0.644205D-04  0.763235D-04 -0.225282D-01
     33  0.602952D-03 -0.698912D-04 -0.763235D-04  0.335690D-04  0.151623D-01
               26            27            28            29            30 
     26  0.244841D+00
     27 -0.136461D+00  0.147407D+00
     28  0.309878D-03  0.140371D-02  0.237876D+00
     29  0.129875D-02  0.144422D-01  0.591524D-02  0.508440D-01
     30 -0.129273D-02 -0.109067D-01  0.137590D+00  0.716183D-02  0.147532D+00
     31 -0.309878D-03 -0.140371D-02 -0.205271D-01  0.186074D-03  0.159886D-01
     32  0.129875D-02  0.144422D-01 -0.186074D-03 -0.108247D-02  0.403868D-03
     33 -0.129273D-02 -0.109067D-01 -0.159886D-01  0.403868D-03  0.122981D-01
               31            32            33 
     31  0.237876D+00
     32 -0.591524D-02  0.508440D-01
     33 -0.137590D+00  0.716183D-02  0.147532D+00
 FormGI is forming the generalized inverse of G from B-inverse, IUseBI=4.
 Leave Link  716 at Fri Jul  9 19:22:22 2021, MaxMem=  4194304000 cpu:        10.7
 (Enter /home/minenky/programs//g09/l103.exe)

 GradGradGradGradGradGradGradGradGradGradGradGradGradGradGradGradGradGrad
 Berny optimization.
 Red2BG is reusing G-inverse.
 Internal  Forces:  Max     0.000008479 RMS     0.000002014
 Search for a local minimum.
 Step number   1 out of a maximum of    2
 All quantities printed in internal units (Hartrees-Bohrs-Radians)
 Second derivative matrix not updated -- analytic derivatives used.
 ITU=  0
     Eigenvalues ---    0.00226   0.00279   0.03565   0.03938   0.04492
     Eigenvalues ---    0.04553   0.04602   0.04628   0.07130   0.10339
     Eigenvalues ---    0.12036   0.12393   0.13059   0.14335   0.15119
     Eigenvalues ---    0.16422   0.21863   0.29775   0.30888   0.33007
     Eigenvalues ---    0.33577   0.33703   0.33742   0.33982   0.33990
     Eigenvalues ---    0.34557   0.34763
 Angle between quadratic step and forces=  38.32 degrees.
 Linear search not attempted -- first point.
 Iteration  1 RMS(Cart)=  0.00000915 RMS(Int)=  0.00000000
 Iteration  2 RMS(Cart)=  0.00000000 RMS(Int)=  0.00000000
 ITry= 1 IFail=0 DXMaxC= 2.36D-05 DCOld= 1.00D+10 DXMaxT= 3.00D-01 DXLimC= 3.00D+00 Rises=F
 ClnCor:  largest displacement from symmetrization is 1.03D-11 for atom     8.
 Variable       Old X    -DE/DX   Delta X   Delta X   Delta X     New X
                                 (Linear)    (Quad)   (Total)
    R1        2.87872  -0.00001   0.00000  -0.00004  -0.00004   2.87868
    R2        2.87872  -0.00001   0.00000  -0.00004  -0.00004   2.87868
    R3        2.06646   0.00000   0.00000   0.00001   0.00001   2.06647
    R4        2.06646   0.00000   0.00000   0.00001   0.00001   2.06647
    R5        2.06226   0.00000   0.00000   0.00000   0.00000   2.06227
    R6        2.06493   0.00000   0.00000   0.00001   0.00001   2.06493
    R7        2.06493   0.00000   0.00000   0.00001   0.00001   2.06493
    R8        2.06226   0.00000   0.00000   0.00000   0.00000   2.06227
    R9        2.06493   0.00000   0.00000   0.00001   0.00001   2.06493
   R10        2.06493   0.00000   0.00000   0.00001   0.00001   2.06493
    A1        1.96616   0.00000   0.00000   0.00001   0.00001   1.96616
    A2        1.91014   0.00000   0.00000   0.00000   0.00000   1.91014
    A3        1.91014   0.00000   0.00000   0.00000   0.00000   1.91014
    A4        1.91014   0.00000   0.00000   0.00000   0.00000   1.91014
    A5        1.91014   0.00000   0.00000   0.00000   0.00000   1.91014
    A6        1.85374   0.00000   0.00000  -0.00003  -0.00003   1.85371
    A7        1.94720   0.00000   0.00000   0.00002   0.00002   1.94722
    A8        1.93637   0.00000   0.00000   0.00001   0.00001   1.93637
    A9        1.93637   0.00000   0.00000   0.00001   0.00001   1.93637
   A10        1.88208   0.00000   0.00000  -0.00001  -0.00001   1.88207
   A11        1.88208   0.00000   0.00000  -0.00001  -0.00001   1.88207
   A12        1.87699   0.00000   0.00000  -0.00002  -0.00002   1.87697
   A13        1.94720   0.00000   0.00000   0.00002   0.00002   1.94722
   A14        1.93637   0.00000   0.00000   0.00001   0.00001   1.93637
   A15        1.93637   0.00000   0.00000   0.00001   0.00001   1.93637
   A16        1.88208   0.00000   0.00000  -0.00001  -0.00001   1.88207
   A17        1.88208   0.00000   0.00000  -0.00001  -0.00001   1.88207
   A18        1.87699   0.00000   0.00000  -0.00002  -0.00002   1.87697
    D1        3.14159   0.00000   0.00000   0.00000   0.00000   3.14159
    D2       -1.04266   0.00000   0.00000   0.00001   0.00001  -1.04265
    D3        1.04266   0.00000   0.00000  -0.00001  -0.00001   1.04265
    D4       -1.01240   0.00000   0.00000   0.00001   0.00001  -1.01239
    D5        1.08653   0.00000   0.00000   0.00002   0.00002   1.08655
    D6       -3.11134   0.00000   0.00000   0.00001   0.00001  -3.11133
    D7        1.01240   0.00000   0.00000  -0.00001  -0.00001   1.01239
    D8        3.11134   0.00000   0.00000  -0.00001  -0.00001   3.11133
    D9       -1.08653   0.00000   0.00000  -0.00002  -0.00002  -1.08655
   D10        3.14159   0.00000   0.00000   0.00000   0.00000   3.14159
   D11       -1.04266   0.00000   0.00000   0.00001   0.00001  -1.04265
   D12        1.04266   0.00000   0.00000  -0.00001  -0.00001   1.04265
   D13        1.01240   0.00000   0.00000  -0.00001  -0.00001   1.01239
   D14        3.11134   0.00000   0.00000  -0.00001  -0.00001   3.11133
   D15       -1.08653   0.00000   0.00000  -0.00002  -0.00002  -1.08655
   D16       -1.01240   0.00000   0.00000   0.00001   0.00001  -1.01239
   D17        1.08653   0.00000   0.00000   0.00002   0.00002   1.08655
   D18       -3.11134   0.00000   0.00000   0.00001   0.00001  -3.11133
         Item               Value     Threshold  Converged?
 Maximum Force            0.000008     0.000015     YES
 RMS     Force            0.000002     0.000010     YES
 Maximum Displacement     0.000024     0.000060     YES
 RMS     Displacement     0.000009     0.000040     YES
 Predicted change in Energy=-5.275335D-10
 Optimization completed.
    -- Stationary point found.
                           ----------------------------
                           !   Optimized Parameters   !
                           ! (Angstroms and Degrees)  !
 --------------------------                            --------------------------
 ! Name  Definition              Value          Derivative Info.                !
 --------------------------------------------------------------------------------
 ! R1    R(1,2)                  1.5234         -DE/DX =    0.0                 !
 ! R2    R(1,3)                  1.5234         -DE/DX =    0.0                 !
 ! R3    R(1,4)                  1.0935         -DE/DX =    0.0                 !
 ! R4    R(1,5)                  1.0935         -DE/DX =    0.0                 !
 ! R5    R(2,6)                  1.0913         -DE/DX =    0.0                 !
 ! R6    R(2,7)                  1.0927         -DE/DX =    0.0                 !
 ! R7    R(2,8)                  1.0927         -DE/DX =    0.0                 !
 ! R8    R(3,9)                  1.0913         -DE/DX =    0.0                 !
 ! R9    R(3,10)                 1.0927         -DE/DX =    0.0                 !
 ! R10   R(3,11)                 1.0927         -DE/DX =    0.0                 !
 ! A1    A(2,1,3)              112.6524         -DE/DX =    0.0                 !
 ! A2    A(2,1,4)              109.4429         -DE/DX =    0.0                 !
 ! A3    A(2,1,5)              109.4429         -DE/DX =    0.0                 !
 ! A4    A(3,1,4)              109.4429         -DE/DX =    0.0                 !
 ! A5    A(3,1,5)              109.4429         -DE/DX =    0.0                 !
 ! A6    A(4,1,5)              106.2112         -DE/DX =    0.0                 !
 ! A7    A(1,2,6)              111.5661         -DE/DX =    0.0                 !
 ! A8    A(1,2,7)              110.9456         -DE/DX =    0.0                 !
 ! A9    A(1,2,8)              110.9456         -DE/DX =    0.0                 !
 ! A10   A(6,2,7)              107.8351         -DE/DX =    0.0                 !
 ! A11   A(6,2,8)              107.8351         -DE/DX =    0.0                 !
 ! A12   A(7,2,8)              107.5438         -DE/DX =    0.0                 !
 ! A13   A(1,3,9)              111.5661         -DE/DX =    0.0                 !
 ! A14   A(1,3,10)             110.9456         -DE/DX =    0.0                 !
 ! A15   A(1,3,11)             110.9456         -DE/DX =    0.0                 !
 ! A16   A(9,3,10)             107.8351         -DE/DX =    0.0                 !
 ! A17   A(9,3,11)             107.8351         -DE/DX =    0.0                 !
 ! A18   A(10,3,11)            107.5438         -DE/DX =    0.0                 !
 ! D1    D(3,1,2,6)            180.0            -DE/DX =    0.0                 !
 ! D2    D(3,1,2,7)            -59.7399         -DE/DX =    0.0                 !
 ! D3    D(3,1,2,8)             59.7399         -DE/DX =    0.0                 !
 ! D4    D(4,1,2,6)            -58.0065         -DE/DX =    0.0                 !
 ! D5    D(4,1,2,7)             62.2536         -DE/DX =    0.0                 !
 ! D6    D(4,1,2,8)           -178.2666         -DE/DX =    0.0                 !
 ! D7    D(5,1,2,6)             58.0065         -DE/DX =    0.0                 !
 ! D8    D(5,1,2,7)            178.2666         -DE/DX =    0.0                 !
 ! D9    D(5,1,2,8)            -62.2536         -DE/DX =    0.0                 !
 ! D10   D(2,1,3,9)            180.0            -DE/DX =    0.0                 !
 ! D11   D(2,1,3,10)           -59.7399         -DE/DX =    0.0                 !
 ! D12   D(2,1,3,11)            59.7399         -DE/DX =    0.0                 !
 ! D13   D(4,1,3,9)             58.0065         -DE/DX =    0.0                 !
 ! D14   D(4,1,3,10)           178.2666         -DE/DX =    0.0                 !
 ! D15   D(4,1,3,11)           -62.2536         -DE/DX =    0.0                 !
 ! D16   D(5,1,3,9)            -58.0065         -DE/DX =    0.0                 !
 ! D17   D(5,1,3,10)            62.2536         -DE/DX =    0.0                 !
 ! D18   D(5,1,3,11)          -178.2666         -DE/DX =    0.0                 !
 --------------------------------------------------------------------------------
 GradGradGradGradGradGradGradGradGradGradGradGradGradGradGradGradGradGrad

 Leave Link  103 at Fri Jul  9 19:22:29 2021, MaxMem=  4194304000 cpu:        52.2
 (Enter /home/minenky/programs//g09/l9999.exe)
 1\1\GINC-CN506-09-R\Freq\RwB97XD\def2TZVP\C3H8\MINENKY\09-Jul-2021\0\\
 #P Geom=AllCheck Guess=TCheck SCRF=Check GenChk RwB97XD/def2TZVP Freq\
 \The PBEPBE optimization and frequencies\\0,1\C,0.,0.,0.5856106765\C,0
 .,1.2677456731,-0.259032785\C,0.,-1.2677456731,-0.259032785\H,0.874540
 3351,0.,1.2421002299\H,-0.8745403351,0.,1.2421002299\H,0.,2.1643011585
 ,0.3631635026\H,0.8814587163,1.3076875115,-0.9035911429\H,-0.881458716
 3,1.3076875115,-0.9035911429\H,0.,-2.1643011585,0.3631635026\H,-0.8814
 587163,-1.3076875115,-0.9035911429\H,0.8814587163,-1.3076875115,-0.903
 5911429\\Version=AM64L-G09RevD.01\State=1-A1\HF=-119.149007\RMSD=2.096
 e-09\RMSF=4.384e-06\ZeroPoint=0.1039171\Thermal=0.1084207\Dipole=0.,0.
 ,0.0366958\DipoleDeriv=0.1332878,0.,0.,0.,0.1349187,0.,0.,0.,0.1058121
 ,0.1119207,0.,0.,0.,-0.0006021,0.0269754,0.,0.0200143,0.070433,0.11192
 07,0.,0.,0.,-0.0006021,-0.0269754,0.,-0.0200143,0.070433,-0.082311,0.,
 -0.1364377,0.,-0.0073429,0.,-0.1030066,0.,-0.0542273,-0.082311,0.,0.13
 64377,0.,-0.007343,0.,0.1030066,0.,-0.0542273,0.0749967,0.,0.,0.,-0.13
 76324,-0.0695234,0.,-0.1091379,-0.0152198,-0.0856252,-0.0200428,0.1180
 642,0.0258541,0.0390591,0.0022122,0.0963545,0.0425954,-0.026946,-0.085
 6252,0.0200428,-0.1180642,-0.0258541,0.0390591,0.0022122,-0.0963545,0.
 0425954,-0.026946,0.0749967,0.,0.,0.,-0.1376324,0.0695234,0.,0.1091379
 ,-0.0152198,-0.0856252,-0.0200428,-0.1180642,0.0258541,0.0390591,-0.00
 22122,-0.0963545,-0.0425954,-0.026946,-0.0856252,0.0200428,0.1180642,-
 0.0258541,0.0390591,-0.0022122,0.0963545,-0.0425954,-0.026946\Polar=36
 .2994429,0.,42.1598194,0.,0.,37.7135011\PG=C02V [C2(C1),SGV(C2H2),SGV'
 (H2),X(H4)]\NImag=0\\0.59826462,0.,0.46244307,0.,0.,0.54323834,-0.0806
 7840,0.,0.,0.56917411,0.,-0.16047515,0.05559840,0.,0.51476318,0.,0.058
 96079,-0.12101785,0.,0.04837344,0.54414746,-0.08067840,0.,0.,0.0001158
 5,0.,0.,0.56917411,0.,-0.16047515,-0.05559840,0.,-0.03153634,-0.016029
 02,0.,0.51476318,0.,-0.05896079,-0.12101785,0.,0.01602902,0.01254136,0
 .,-0.04837344,0.54414746,-0.21843203,0.,-0.12235527,0.00087562,-0.0000
 4360,0.00108387,0.00087562,0.00004360,0.00108387,0.23332441,0.,-0.0470
 7075,0.,0.02421304,-0.00172546,0.01798364,-0.02421303,-0.00172546,-0.0
 1798364,0.,0.05674108,-0.12079299,0.,-0.13856128,-0.01553579,0.0009980
 4,-0.01168685,-0.01553579,-0.00099805,-0.01168685,0.13491027,0.,0.1508
 0570,-0.21843203,0.,0.12235527,0.00087562,0.00004360,-0.00108387,0.000
 87562,-0.00004360,-0.00108387,-0.02160787,0.,0.01553771,0.23332441,0.,
 -0.04707075,0.,-0.02421303,-0.00172546,0.01798364,0.02421304,-0.001725
 46,-0.01798364,0.,-0.00058797,0.,0.,0.05674108,0.12079299,0.,-0.138561
 28,0.01553579,0.00099805,-0.01168685,0.01553579,-0.00099804,-0.0116868
 5,-0.01553771,0.,0.01216742,-0.13491027,0.,0.15080570,-0.00145469,0.,0
 .,-0.04795928,0.,0.,0.00041484,0.,0.,0.00001230,0.00025206,0.00030764,
 0.00001230,-0.00025206,-0.00030764,0.04649124,0.,-0.02043834,-0.017784
 26,0.,-0.22380214,-0.12575625,0.,-0.00387633,0.00537197,0.00069061,0.0
 0080398,-0.00004666,-0.00069061,0.00080398,-0.00004666,0.,0.24484101,0
 .,0.01745958,0.01263864,0.,-0.12752360,-0.13841513,0.,0.00280843,-0.00
 214977,-0.00006700,-0.00080791,0.00083436,0.00006700,-0.00080792,0.000
 83436,0.,0.13646100,0.14740714,0.00071641,0.00029058,-0.00064876,-0.22
 171337,-0.00545613,0.12446883,0.00030419,0.00001090,-0.00035118,0.0008
 2480,-0.00049297,0.00010420,0.00164503,0.00027095,-0.00029645,0.000769
 95,0.00030988,-0.00140371,0.23787605,-0.02422305,-0.00161865,0.0168554
 6,-0.00464489,-0.04760891,0.00253725,-0.00114208,0.00179775,0.00060939
 ,0.00034767,0.00114311,-0.00072221,0.00003865,-0.00476281,0.00346472,0
 .02252816,0.00129875,-0.01444216,0.00591524,0.05084396,0.01623391,0.00
 060143,-0.01233934,0.12396682,0.00313868,-0.13664885,-0.00056321,-0.00
 102886,0.00078266,-0.00015402,-0.00061682,0.00003252,-0.00062851,0.003
 69685,-0.00138595,0.01516233,0.00129273,-0.01090668,-0.13758968,-0.007
 16183,0.14753168,0.00071641,-0.00029058,0.00064876,-0.22171337,0.00545
 613,-0.12446883,0.00030419,-0.00001090,0.00035118,0.00164503,-0.000270
 95,0.00029645,0.00082480,0.00049297,-0.00010420,0.00076995,-0.00030988
 ,0.00140371,-0.02052711,0.00018607,-0.01598856,0.23787605,0.02422305,-
 0.00161865,0.01685546,0.00464489,-0.04760891,0.00253725,0.00114208,0.0
 0179775,0.00060939,-0.00003865,-0.00476281,0.00346472,-0.00034767,0.00
 114311,-0.00072221,-0.02252816,0.00129875,-0.01444216,-0.00018607,-0.0
 0108247,-0.00040387,-0.00591524,0.05084396,-0.01623391,0.00060143,-0.0
 1233934,-0.12396682,0.00313868,-0.13664885,0.00056321,-0.00102886,0.00
 078266,0.00062851,0.00369685,-0.00138595,0.00015402,-0.00061682,0.0000
 3252,-0.01516233,0.00129273,-0.01090668,0.01598856,-0.00040387,0.01229
 806,0.13758968,-0.00716183,0.14753168,-0.00145469,0.,0.,0.00041484,0.,
 0.,-0.04795928,0.,0.,0.00001230,-0.00025206,0.00030764,0.00001230,0.00
 025206,-0.00030764,0.00053777,0.,0.,0.00020281,0.00033162,-0.00026820,
 0.00020281,-0.00033161,0.00026820,0.04649124,0.,-0.02043833,0.01778426
 ,0.,-0.00387633,-0.00537197,0.,-0.22380214,0.12575625,-0.00069061,0.00
 080398,0.00004666,0.00069061,0.00080398,0.00004666,0.,-0.00161509,0.00
 102261,-0.00006942,0.00034271,-0.00011900,0.00006942,0.00034270,-0.000
 11900,0.,0.24484101,0.,-0.01745958,0.01263864,0.,-0.00280843,-0.002149
 77,0.,0.12752360,-0.13841513,-0.00006700,0.00080792,0.00083436,0.00006
 700,0.00080791,0.00083436,0.,-0.00102261,0.00066502,-0.00024072,-0.000
 13606,-0.00000063,0.00024072,-0.00013606,-0.00000063,0.,-0.13646100,0.
 14740714,0.00071641,0.00029058,0.00064875,0.00030419,0.00001090,0.0003
 5118,-0.22171337,-0.00545613,-0.12446883,0.00164503,0.00027095,0.00029
 645,0.00082480,-0.00049297,-0.00010420,0.00020281,-0.00006942,0.000240
 72,-0.00011852,0.00003483,-0.00006989,0.00001976,-0.00062779,0.0001009
 9,0.00076995,0.00030988,0.00140371,0.23787605,-0.02422305,-0.00161865,
 -0.01685546,-0.00114208,0.00179775,-0.00060939,-0.00464489,-0.04760891
 ,-0.00253725,0.00003865,-0.00476281,-0.00346472,0.00034767,0.00114311,
 0.00072221,0.00033162,0.00034271,0.00013606,0.00003483,-0.00006442,0.0
 0007632,0.00062779,-0.00028902,0.00052437,0.02252816,0.00129875,0.0144
 4216,0.00591524,0.05084396,-0.01623391,-0.00060143,-0.01233934,0.00056
 321,0.00102886,0.00078266,-0.12396682,-0.00313868,-0.13664885,0.000628
 51,-0.00369685,-0.00138595,0.00015402,0.00061682,0.00003252,0.00026820
 ,0.00011900,-0.00000063,0.00006989,-0.00007632,0.00003357,0.00010099,-
 0.00052437,0.00060295,-0.01516233,-0.00129273,-0.01090668,0.13758968,0
 .00716183,0.14753168,0.00071641,-0.00029058,-0.00064876,0.00030419,-0.
 00001090,-0.00035118,-0.22171337,0.00545613,0.12446883,0.00082480,0.00
 049297,0.00010420,0.00164503,-0.00027095,-0.00029645,0.00020281,0.0000
 6942,-0.00024072,0.00001976,0.00062779,-0.00010099,-0.00011852,-0.0000
 3483,0.00006989,0.00076995,-0.00030988,-0.00140371,-0.02052711,0.00018
 607,0.01598856,0.23787605,0.02422305,-0.00161865,-0.01685546,0.0011420
 8,0.00179775,-0.00060939,0.00464489,-0.04760891,-0.00253725,-0.0003476
 7,0.00114311,0.00072221,-0.00003865,-0.00476281,-0.00346472,-0.0003316
 1,0.00034270,0.00013606,-0.00062779,-0.00028902,0.00052437,-0.00003483
 ,-0.00006442,0.00007632,-0.02252816,0.00129875,0.01444216,-0.00018607,
 -0.00108247,0.00040387,-0.00591524,0.05084396,0.01623391,-0.00060143,-
 0.01233934,-0.00056321,0.00102886,0.00078266,0.12396682,-0.00313868,-0
 .13664885,-0.00015402,0.00061682,0.00003252,-0.00062851,-0.00369685,-0
 .00138595,-0.00026820,0.00011900,-0.00000063,-0.00010099,-0.00052437,0
 .00060295,-0.00006989,-0.00007632,0.00003357,0.01516233,-0.00129273,-0
 .01090668,-0.01598856,0.00040387,0.01229806,-0.13758968,0.00716183,0.1
 4753168\\0.,0.,0.00001480,0.,0.00001039,-0.00000919,0.,-0.00001039,-0.
 00000919,0.00000015,0.,-0.00000183,-0.00000015,0.,-0.00000183,0.,-0.00
 000237,0.00000072,-0.00000027,-0.00000077,0.00000145,0.00000027,-0.000
 00077,0.00000145,0.,0.00000237,0.00000072,0.00000027,0.00000077,0.0000
 0145,-0.00000027,0.00000077,0.00000145\\\@


 ... IT IS NO ONE DREAME THAT
     CAN PLEASE THESE ALL ...

                -- BEN JONSON
 Job cpu time:       0 days  0 hours 13 minutes 46.7 seconds.
 File lengths (MBytes):  RWF=     16 Int=      0 D2E=      0 Chk=      3 Scr=      1
 Normal termination of Gaussian 09 at Fri Jul  9 19:22:30 2021.
