 Entering Gaussian System, Link 0=g09
 Initial command:
 /home/minenky/programs//g09/l1.exe "/local/scratch/minenky/m1_00_78-79-50_C5H8_wB97XD/Gau-48696.inp" -scrdir="/local/scratch/minenky/m1_00_78-79-50_C5H8_wB97XD/"
 Entering Link 1 = /home/minenky/programs//g09/l1.exe PID=     48709.
  
 Copyright (c) 1988,1990,1992,1993,1995,1998,2003,2009,2013,
            Gaussian, Inc.  All Rights Reserved.
  
 This is part of the Gaussian(R) 09 program.  It is based on
 the Gaussian(R) 03 system (copyright 2003, Gaussian, Inc.),
 the Gaussian(R) 98 system (copyright 1998, Gaussian, Inc.),
 the Gaussian(R) 94 system (copyright 1995, Gaussian, Inc.),
 the Gaussian 92(TM) system (copyright 1992, Gaussian, Inc.),
 the Gaussian 90(TM) system (copyright 1990, Gaussian, Inc.),
 the Gaussian 88(TM) system (copyright 1988, Gaussian, Inc.),
 the Gaussian 86(TM) system (copyright 1986, Carnegie Mellon
 University), and the Gaussian 82(TM) system (copyright 1983,
 Carnegie Mellon University). Gaussian is a federally registered
 trademark of Gaussian, Inc.
  
 This software contains proprietary and confidential information,
 including trade secrets, belonging to Gaussian, Inc.
  
 This software is provided under written license and may be
 used, copied, transmitted, or stored only in accord with that
 written license.
  
 The following legend is applicable only to US Government
 contracts under FAR:
  
                    RESTRICTED RIGHTS LEGEND
  
 Use, reproduction and disclosure by the US Government is
 subject to restrictions as set forth in subparagraphs (a)
 and (c) of the Commercial Computer Software - Restricted
 Rights clause in FAR 52.227-19.
  
 Gaussian, Inc.
 340 Quinnipiac St., Bldg. 40, Wallingford CT 06492
  
  
 ---------------------------------------------------------------
 Warning -- This program may not be used in any manner that
 competes with the business of Gaussian, Inc. or will provide
 assistance to any competitor of Gaussian, Inc.  The licensee
 of this program is prohibited from giving any competitor of
 Gaussian, Inc. access to this program.  By using this program,
 the user acknowledges that Gaussian, Inc. is engaged in the
 business of creating and licensing software in the field of
 computational chemistry and represents and warrants to the
 licensee that it is not a competitor of Gaussian, Inc. and that
 it will not use this program in any manner prohibited above.
 ---------------------------------------------------------------
  

 Cite this work as:
 Gaussian 09, Revision D.01,
 M. J. Frisch, G. W. Trucks, H. B. Schlegel, G. E. Scuseria, 
 M. A. Robb, J. R. Cheeseman, G. Scalmani, V. Barone, B. Mennucci, 
 G. A. Petersson, H. Nakatsuji, M. Caricato, X. Li, H. P. Hratchian, 
 A. F. Izmaylov, J. Bloino, G. Zheng, J. L. Sonnenberg, M. Hada, 
 M. Ehara, K. Toyota, R. Fukuda, J. Hasegawa, M. Ishida, T. Nakajima, 
 Y. Honda, O. Kitao, H. Nakai, T. Vreven, J. A. Montgomery, Jr., 
 J. E. Peralta, F. Ogliaro, M. Bearpark, J. J. Heyd, E. Brothers, 
 K. N. Kudin, V. N. Staroverov, T. Keith, R. Kobayashi, J. Normand, 
 K. Raghavachari, A. Rendell, J. C. Burant, S. S. Iyengar, J. Tomasi, 
 M. Cossi, N. Rega, J. M. Millam, M. Klene, J. E. Knox, J. B. Cross, 
 V. Bakken, C. Adamo, J. Jaramillo, R. Gomperts, R. E. Stratmann, 
 O. Yazyev, A. J. Austin, R. Cammi, C. Pomelli, J. W. Ochterski, 
 R. L. Martin, K. Morokuma, V. G. Zakrzewski, G. A. Voth, 
 P. Salvador, J. J. Dannenberg, S. Dapprich, A. D. Daniels, 
 O. Farkas, J. B. Foresman, J. V. Ortiz, J. Cioslowski, 
 and D. J. Fox, Gaussian, Inc., Wallingford CT, 2013.
 
 ******************************************
 Gaussian 09:  AM64L-G09RevD.01 24-Apr-2013
                 9-Jul-2021 
 ******************************************
 %Mem=32000MB
 %NProcShared=16
 Will use up to   16 processors via shared memory.
 %Chk=m1_00_78-79-50_C5H8_wB97XD
 ----------------------------------------------------------------------
 #P wB97XD/def2tzvp opt=(tight) freq integral(Grid=ultrafine) # SCF(Max
 Cycle=380) 5d 7f GFPrint
 ----------------------------------------------------------------------
 1/7=10,14=-1,18=20,19=15,26=4,38=1/1,3;
 2/9=110,12=2,17=6,18=5,40=1/2;
 3/5=44,7=101,8=11,11=2,16=1,24=100,25=1,30=1,71=1,74=-58,75=-5/1,2,3;
 4//1;
 5/5=2,7=380,38=5/2;
 6/7=2,8=2,9=2,10=2,28=1/1;
 7//1,2,3,16;
 1/7=10,14=-1,18=20,19=15,26=4/3(2);
 2/9=110/2;
 99//99;
 2/9=110/2;
 3/5=44,7=101,8=11,11=2,16=1,25=1,30=1,71=1,74=-58,75=-5/1,2,3;
 4/5=5,16=3,69=1/1;
 5/5=2,7=380,38=5/2;
 7//1,2,3,16;
 1/7=10,14=-1,18=20,19=15,26=4/3(-5);
 2/9=110/2;
 6/7=2,8=2,9=2,10=2,19=2,28=1/1;
 99/9=1/99;
 Leave Link    1 at Fri Jul  9 19:19:35 2021, MaxMem=  4194304000 cpu:         1.1
 (Enter /home/minenky/programs//g09/l101.exe)
 ---------------------------------------
 The PBEPBE optimization and frequencies
 ---------------------------------------
 Symbolic Z-matrix:
 Charge =  0 Multiplicity = 1
 C                    -0.58506   1.72668   0. 
 C                     0.        0.52351   0. 
 C                    -0.82403  -0.68435   0. 
 H                    -0.00591   2.64092   0. 
 H                    -1.66335   1.82729   0. 
 C                     1.49516   0.37485   0. 
 H                     1.98411   1.34787   0. 
 H                     1.83363  -0.17983   0.87871 
 H                     1.83363  -0.17983  -0.87871 
 C                    -0.3721   -1.93918   0. 
 H                    -1.8966   -0.51424   0. 
 H                    -1.05404  -2.77882   0. 
 H                     0.68473  -2.17243   0. 
 
 NAtoms=     13 NQM=       13 NQMF=       0 NMMI=      0 NMMIF=      0
                NMic=       0 NMicF=      0.
                    Isotopes and Nuclear Properties:
 (Nuclear quadrupole moments (NQMom) in fm**2, nuclear magnetic moments (NMagM)
  in nuclear magnetons)

  Atom         1           2           3           4           5           6           7           8           9          10
 IAtWgt=          12          12          12           1           1          12           1           1           1          12
 AtmWgt=  12.0000000  12.0000000  12.0000000   1.0078250   1.0078250  12.0000000   1.0078250   1.0078250   1.0078250  12.0000000
 NucSpn=           0           0           0           1           1           0           1           1           1           0
 AtZEff=   0.0000000   0.0000000   0.0000000   0.0000000   0.0000000   0.0000000   0.0000000   0.0000000   0.0000000   0.0000000
 NQMom=    0.0000000   0.0000000   0.0000000   0.0000000   0.0000000   0.0000000   0.0000000   0.0000000   0.0000000   0.0000000
 NMagM=    0.0000000   0.0000000   0.0000000   2.7928460   2.7928460   0.0000000   2.7928460   2.7928460   2.7928460   0.0000000
 AtZNuc=   6.0000000   6.0000000   6.0000000   1.0000000   1.0000000   6.0000000   1.0000000   1.0000000   1.0000000   6.0000000

  Atom        11          12          13
 IAtWgt=           1           1           1
 AtmWgt=   1.0078250   1.0078250   1.0078250
 NucSpn=           1           1           1
 AtZEff=   0.0000000   0.0000000   0.0000000
 NQMom=    0.0000000   0.0000000   0.0000000
 NMagM=    2.7928460   2.7928460   2.7928460
 AtZNuc=   1.0000000   1.0000000   1.0000000
 Leave Link  101 at Fri Jul  9 19:19:35 2021, MaxMem=  4194304000 cpu:         1.6
 (Enter /home/minenky/programs//g09/l103.exe)

 GradGradGradGradGradGradGradGradGradGradGradGradGradGradGradGradGradGrad
 Berny optimization.
 Initialization pass.
                           ----------------------------
                           !    Initial Parameters    !
                           ! (Angstroms and Degrees)  !
 --------------------------                            --------------------------
 ! Name  Definition              Value          Derivative Info.                !
 --------------------------------------------------------------------------------
 ! R1    R(1,2)                  1.3379         estimate D2E/DX2                !
 ! R2    R(1,4)                  1.0822         estimate D2E/DX2                !
 ! R3    R(1,5)                  1.083          estimate D2E/DX2                !
 ! R4    R(2,3)                  1.4622         estimate D2E/DX2                !
 ! R5    R(2,6)                  1.5025         estimate D2E/DX2                !
 ! R6    R(3,10)                 1.3337         estimate D2E/DX2                !
 ! R7    R(3,11)                 1.086          estimate D2E/DX2                !
 ! R8    R(6,7)                  1.089          estimate D2E/DX2                !
 ! R9    R(6,8)                  1.0929         estimate D2E/DX2                !
 ! R10   R(6,9)                  1.0929         estimate D2E/DX2                !
 ! R11   R(10,12)                1.0817         estimate D2E/DX2                !
 ! R12   R(10,13)                1.0823         estimate D2E/DX2                !
 ! A1    A(2,1,4)              121.7147         estimate D2E/DX2                !
 ! A2    A(2,1,5)              121.2629         estimate D2E/DX2                !
 ! A3    A(4,1,5)              117.0224         estimate D2E/DX2                !
 ! A4    A(1,2,3)              119.7652         estimate D2E/DX2                !
 ! A5    A(1,2,6)              121.6102         estimate D2E/DX2                !
 ! A6    A(3,2,6)              118.6246         estimate D2E/DX2                !
 ! A7    A(2,3,10)             125.8906         estimate D2E/DX2                !
 ! A8    A(2,3,11)             115.2907         estimate D2E/DX2                !
 ! A9    A(10,3,11)            118.8187         estimate D2E/DX2                !
 ! A10   A(2,6,7)              111.0023         estimate D2E/DX2                !
 ! A11   A(2,6,8)              111.0024         estimate D2E/DX2                !
 ! A12   A(2,6,9)              111.0024         estimate D2E/DX2                !
 ! A13   A(7,6,8)              108.3272         estimate D2E/DX2                !
 ! A14   A(7,6,9)              108.3272         estimate D2E/DX2                !
 ! A15   A(8,6,9)              107.0345         estimate D2E/DX2                !
 ! A16   A(3,10,12)            121.1101         estimate D2E/DX2                !
 ! A17   A(3,10,13)            122.2528         estimate D2E/DX2                !
 ! A18   A(12,10,13)           116.6371         estimate D2E/DX2                !
 ! D1    D(4,1,2,3)            180.0            estimate D2E/DX2                !
 ! D2    D(4,1,2,6)              0.0            estimate D2E/DX2                !
 ! D3    D(5,1,2,3)              0.0            estimate D2E/DX2                !
 ! D4    D(5,1,2,6)            180.0            estimate D2E/DX2                !
 ! D5    D(1,2,3,10)           180.0            estimate D2E/DX2                !
 ! D6    D(1,2,3,11)             0.0            estimate D2E/DX2                !
 ! D7    D(6,2,3,10)             0.0            estimate D2E/DX2                !
 ! D8    D(6,2,3,11)           180.0            estimate D2E/DX2                !
 ! D9    D(1,2,6,7)              0.0            estimate D2E/DX2                !
 ! D10   D(1,2,6,8)            120.5424         estimate D2E/DX2                !
 ! D11   D(1,2,6,9)           -120.5424         estimate D2E/DX2                !
 ! D12   D(3,2,6,7)            180.0            estimate D2E/DX2                !
 ! D13   D(3,2,6,8)            -59.4576         estimate D2E/DX2                !
 ! D14   D(3,2,6,9)             59.4576         estimate D2E/DX2                !
 ! D15   D(2,3,10,12)          180.0            estimate D2E/DX2                !
 ! D16   D(2,3,10,13)            0.0            estimate D2E/DX2                !
 ! D17   D(11,3,10,12)           0.0            estimate D2E/DX2                !
 ! D18   D(11,3,10,13)         180.0            estimate D2E/DX2                !
 --------------------------------------------------------------------------------
 Trust Radius=3.00D-01 FncErr=1.00D-07 GrdErr=1.00D-06
 Number of steps in this run=     58 maximum allowed number of steps=    100.
 GradGradGradGradGradGradGradGradGradGradGradGradGradGradGradGradGradGrad

 Leave Link  103 at Fri Jul  9 19:19:36 2021, MaxMem=  4194304000 cpu:         0.0
 (Enter /home/minenky/programs//g09/l202.exe)
                          Input orientation:                          
 ---------------------------------------------------------------------
 Center     Atomic      Atomic             Coordinates (Angstroms)
 Number     Number       Type             X           Y           Z
 ---------------------------------------------------------------------
      1          6           0       -0.585060    1.726678    0.000000
      2          6           0        0.000000    0.523512    0.000000
      3          6           0       -0.824030   -0.684350    0.000000
      4          1           0       -0.005913    2.640919    0.000000
      5          1           0       -1.663345    1.827292    0.000000
      6          6           0        1.495155    0.374854    0.000000
      7          1           0        1.984110    1.347865    0.000000
      8          1           0        1.833629   -0.179832    0.878709
      9          1           0        1.833629   -0.179832   -0.878709
     10          6           0       -0.372098   -1.939180    0.000000
     11          1           0       -1.896597   -0.514242    0.000000
     12          1           0       -1.054043   -2.778816    0.000000
     13          1           0        0.684732   -2.172431    0.000000
 ---------------------------------------------------------------------
                    Distance matrix (angstroms):
                    1          2          3          4          5
     1  C    0.000000
     2  C    1.337873   0.000000
     3  C    2.422842   1.462175   0.000000
     4  H    1.082242   2.117415   3.424431   0.000000
     5  H    1.082969   2.113423   2.648168   1.846367   0.000000
     6  C    2.480871   1.502527   2.549614   2.718135   3.476449
     7  H    2.596947   2.148546   3.466345   2.373221   3.678828
     8  H    3.202650   2.151515   2.844261   3.480328   4.126682
     9  H    3.202650   2.151515   2.844261   3.480328   4.126682
    10  C    3.672039   2.490644   1.333732   4.594714   3.981662
    11  H    2.596508   2.161947   1.085973   3.678278   2.353123
    12  H    4.529837   3.466465   2.107058   5.520154   4.646233
    13  H    4.100661   2.781540   2.119138   4.862646   4.638022
                    6          7          8          9         10
     6  C    0.000000
     7  H    1.088957   0.000000
     8  H    1.092873   1.768794   0.000000
     9  H    1.092873   1.768794   1.757418   0.000000
    10  C    2.973447   4.044302   2.955109   2.955109   0.000000
    11  H    3.506348   4.304338   3.846888   3.846888   2.086755
    12  H    4.055126   5.124438   3.983152   3.983152   1.081683
    13  H    2.673097   3.752448   2.462224   2.462224   1.082264
                   11         12         13
    11  H    0.000000
    12  H    2.416235   0.000000
    13  H    3.068037   1.841478   0.000000
 Stoichiometry    C5H8
 Framework group  CS[SG(C5H6),X(H2)]
 Deg. of freedom    22
 Full point group                 CS      NOp   2
 Largest Abelian subgroup         CS      NOp   2
 Largest concise Abelian subgroup CS      NOp   2
                         Standard orientation:                         
 ---------------------------------------------------------------------
 Center     Atomic      Atomic             Coordinates (Angstroms)
 Number     Number       Type             X           Y           Z
 ---------------------------------------------------------------------
      1          6           0       -0.585060    1.726678    0.000000
      2          6           0        0.000000    0.523512    0.000000
      3          6           0       -0.824030   -0.684350    0.000000
      4          1           0       -0.005913    2.640919    0.000000
      5          1           0       -1.663345    1.827292    0.000000
      6          6           0        1.495155    0.374854    0.000000
      7          1           0        1.984110    1.347864    0.000000
      8          1           0        1.833629   -0.179833    0.878709
      9          1           0        1.833629   -0.179833   -0.878709
     10          6           0       -0.372098   -1.939180    0.000000
     11          1           0       -1.896597   -0.514242    0.000000
     12          1           0       -1.054044   -2.778816    0.000000
     13          1           0        0.684731   -2.172431    0.000000
 ---------------------------------------------------------------------
 Rotational constants (GHZ):      8.5933036      4.1994080      2.8707636
 Leave Link  202 at Fri Jul  9 19:19:36 2021, MaxMem=  4194304000 cpu:         0.6
 (Enter /home/minenky/programs//g09/l301.exe)
 Standard basis: def2TZVP (5D, 7F)
 ======================================================================================================
                                       Pseudopotential Parameters
 ======================================================================================================
  Center     Atomic      Valence      Angular      Power
  Number     Number     Electrons     Momentum     of R      Exponent        Coefficient   SO-Coeffient
 ======================================================================================================
    1          6
                                   No pseudopotential on this center.
    2          6
                                   No pseudopotential on this center.
    3          6
                                   No pseudopotential on this center.
    4          1
                                   No pseudopotential on this center.
    5          1
                                   No pseudopotential on this center.
    6          6
                                   No pseudopotential on this center.
    7          1
                                   No pseudopotential on this center.
    8          1
                                   No pseudopotential on this center.
    9          1
                                   No pseudopotential on this center.
   10          6
                                   No pseudopotential on this center.
   11          1
                                   No pseudopotential on this center.
   12          1
                                   No pseudopotential on this center.
   13          1
                                   No pseudopotential on this center.
 ======================================================================================================
 Ernie: Thresh=  0.10000D-02 Tol=  0.10000D-05 Strict=F.
 AO basis set (Overlap normalization):
 Atom C1       Shell     1 S   6     bf    1 -     1         -1.105602714140          3.262948413876          0.000000000000
      0.1357534968D+05  0.6064550360D-03
      0.2035233368D+04  0.4697908888D-02
      0.4632256236D+03  0.2433247765D-01
      0.1312001960D+03  0.9739996831D-01
      0.4285301589D+02  0.3019558425D+00
      0.1558418577D+02  0.6623360914D+00
 Atom C1       Shell     2 S   2     bf    2 -     2         -1.105602714140          3.262948413876          0.000000000000
      0.6206713851D+01  0.6559530854D+00
      0.2576489653D+01  0.3758563329D+00
 Atom C1       Shell     3 S   1     bf    3 -     3         -1.105602714140          3.262948413876          0.000000000000
      0.5769633942D+00  0.1000000000D+01
 Atom C1       Shell     4 S   1     bf    4 -     4         -1.105602714140          3.262948413876          0.000000000000
      0.2297283136D+00  0.1000000000D+01
 Atom C1       Shell     5 S   1     bf    5 -     5         -1.105602714140          3.262948413876          0.000000000000
      0.9516444003D-01  0.1000000000D+01
 Atom C1       Shell     6 P   4     bf    6 -     8         -1.105602714140          3.262948413876          0.000000000000
      0.3469723224D+02  0.1132722000D-01
      0.7958262283D+01  0.7616965920D-01
      0.2378082688D+01  0.3019225220D+00
      0.8143320818D+00  0.7278502735D+00
 Atom C1       Shell     7 P   1     bf    9 -    11         -1.105602714140          3.262948413876          0.000000000000
      0.2888754725D+00  0.1000000000D+01
 Atom C1       Shell     8 P   1     bf   12 -    14         -1.105602714140          3.262948413876          0.000000000000
      0.1005682367D+00  0.1000000000D+01
 Atom C1       Shell     9 D   1     bf   15 -    19         -1.105602714140          3.262948413876          0.000000000000
      0.1097000000D+01  0.1000000000D+01
 Atom C1       Shell    10 D   1     bf   20 -    24         -1.105602714140          3.262948413876          0.000000000000
      0.3180000000D+00  0.1000000000D+01
 Atom C1       Shell    11 F   1     bf   25 -    31         -1.105602714140          3.262948413876          0.000000000000
      0.7610000000D+00  0.1000000000D+01
 Atom C2       Shell    12 S   6     bf   32 -    32          0.000000000000          0.989293959172          0.000000000000
      0.1357534968D+05  0.6064550360D-03
      0.2035233368D+04  0.4697908888D-02
      0.4632256236D+03  0.2433247765D-01
      0.1312001960D+03  0.9739996831D-01
      0.4285301589D+02  0.3019558425D+00
      0.1558418577D+02  0.6623360914D+00
 Atom C2       Shell    13 S   2     bf   33 -    33          0.000000000000          0.989293959172          0.000000000000
      0.6206713851D+01  0.6559530854D+00
      0.2576489653D+01  0.3758563329D+00
 Atom C2       Shell    14 S   1     bf   34 -    34          0.000000000000          0.989293959172          0.000000000000
      0.5769633942D+00  0.1000000000D+01
 Atom C2       Shell    15 S   1     bf   35 -    35          0.000000000000          0.989293959172          0.000000000000
      0.2297283136D+00  0.1000000000D+01
 Atom C2       Shell    16 S   1     bf   36 -    36          0.000000000000          0.989293959172          0.000000000000
      0.9516444003D-01  0.1000000000D+01
 Atom C2       Shell    17 P   4     bf   37 -    39          0.000000000000          0.989293959172          0.000000000000
      0.3469723224D+02  0.1132722000D-01
      0.7958262283D+01  0.7616965920D-01
      0.2378082688D+01  0.3019225220D+00
      0.8143320818D+00  0.7278502735D+00
 Atom C2       Shell    18 P   1     bf   40 -    42          0.000000000000          0.989293959172          0.000000000000
      0.2888754725D+00  0.1000000000D+01
 Atom C2       Shell    19 P   1     bf   43 -    45          0.000000000000          0.989293959172          0.000000000000
      0.1005682367D+00  0.1000000000D+01
 Atom C2       Shell    20 D   1     bf   46 -    50          0.000000000000          0.989293959172          0.000000000000
      0.1097000000D+01  0.1000000000D+01
 Atom C2       Shell    21 D   1     bf   51 -    55          0.000000000000          0.989293959172          0.000000000000
      0.3180000000D+00  0.1000000000D+01
 Atom C2       Shell    22 F   1     bf   56 -    62          0.000000000000          0.989293959172          0.000000000000
      0.7610000000D+00  0.1000000000D+01
 Atom C3       Shell    23 S   6     bf   63 -    63         -1.557191484232         -1.293234114041          0.000000000000
      0.1357534968D+05  0.6064550360D-03
      0.2035233368D+04  0.4697908888D-02
      0.4632256236D+03  0.2433247765D-01
      0.1312001960D+03  0.9739996831D-01
      0.4285301589D+02  0.3019558425D+00
      0.1558418577D+02  0.6623360914D+00
 Atom C3       Shell    24 S   2     bf   64 -    64         -1.557191484232         -1.293234114041          0.000000000000
      0.6206713851D+01  0.6559530854D+00
      0.2576489653D+01  0.3758563329D+00
 Atom C3       Shell    25 S   1     bf   65 -    65         -1.557191484232         -1.293234114041          0.000000000000
      0.5769633942D+00  0.1000000000D+01
 Atom C3       Shell    26 S   1     bf   66 -    66         -1.557191484232         -1.293234114041          0.000000000000
      0.2297283136D+00  0.1000000000D+01
 Atom C3       Shell    27 S   1     bf   67 -    67         -1.557191484232         -1.293234114041          0.000000000000
      0.9516444003D-01  0.1000000000D+01
 Atom C3       Shell    28 P   4     bf   68 -    70         -1.557191484232         -1.293234114041          0.000000000000
      0.3469723224D+02  0.1132722000D-01
      0.7958262283D+01  0.7616965920D-01
      0.2378082688D+01  0.3019225220D+00
      0.8143320818D+00  0.7278502735D+00
 Atom C3       Shell    29 P   1     bf   71 -    73         -1.557191484232         -1.293234114041          0.000000000000
      0.2888754725D+00  0.1000000000D+01
 Atom C3       Shell    30 P   1     bf   74 -    76         -1.557191484232         -1.293234114041          0.000000000000
      0.1005682367D+00  0.1000000000D+01
 Atom C3       Shell    31 D   1     bf   77 -    81         -1.557191484232         -1.293234114041          0.000000000000
      0.1097000000D+01  0.1000000000D+01
 Atom C3       Shell    32 D   1     bf   82 -    86         -1.557191484232         -1.293234114041          0.000000000000
      0.3180000000D+00  0.1000000000D+01
 Atom C3       Shell    33 F   1     bf   87 -    93         -1.557191484232         -1.293234114041          0.000000000000
      0.7610000000D+00  0.1000000000D+01
 Atom H4       Shell    34 S   3     bf   94 -    94         -0.011173146074          4.990613303273          0.000000000000
      0.3406134100D+02  0.2543930721D-01
      0.5123574600D+01  0.1900859489D+00
      0.1164662600D+01  0.8524411301D+00
 Atom H4       Shell    35 S   1     bf   95 -    95         -0.011173146074          4.990613303273          0.000000000000
      0.3272304100D+00  0.1000000000D+01
 Atom H4       Shell    36 S   1     bf   96 -    96         -0.011173146074          4.990613303273          0.000000000000
      0.1030724100D+00  0.1000000000D+01
 Atom H4       Shell    37 P   1     bf   97 -    99         -0.011173146074          4.990613303273          0.000000000000
      0.8000000000D+00  0.1000000000D+01
 Atom H5       Shell    38 S   3     bf  100 -   100         -3.143266019108          3.453081728726          0.000000000000
      0.3406134100D+02  0.2543930721D-01
      0.5123574600D+01  0.1900859489D+00
      0.1164662600D+01  0.8524411301D+00
 Atom H5       Shell    39 S   1     bf  101 -   101         -3.143266019108          3.453081728726          0.000000000000
      0.3272304100D+00  0.1000000000D+01
 Atom H5       Shell    40 S   1     bf  102 -   102         -3.143266019108          3.453081728726          0.000000000000
      0.1030724100D+00  0.1000000000D+01
 Atom H5       Shell    41 P   1     bf  103 -   105         -3.143266019108          3.453081728726          0.000000000000
      0.8000000000D+00  0.1000000000D+01
 Atom C6       Shell    42 S   6     bf  106 -   106          2.825433419729          0.708370483596          0.000000000000
      0.1357534968D+05  0.6064550360D-03
      0.2035233368D+04  0.4697908888D-02
      0.4632256236D+03  0.2433247765D-01
      0.1312001960D+03  0.9739996831D-01
      0.4285301589D+02  0.3019558425D+00
      0.1558418577D+02  0.6623360914D+00
 Atom C6       Shell    43 S   2     bf  107 -   107          2.825433419729          0.708370483596          0.000000000000
      0.6206713851D+01  0.6559530854D+00
      0.2576489653D+01  0.3758563329D+00
 Atom C6       Shell    44 S   1     bf  108 -   108          2.825433419729          0.708370483596          0.000000000000
      0.5769633942D+00  0.1000000000D+01
 Atom C6       Shell    45 S   1     bf  109 -   109          2.825433419729          0.708370483596          0.000000000000
      0.2297283136D+00  0.1000000000D+01
 Atom C6       Shell    46 S   1     bf  110 -   110          2.825433419729          0.708370483596          0.000000000000
      0.9516444003D-01  0.1000000000D+01
 Atom C6       Shell    47 P   4     bf  111 -   113          2.825433419729          0.708370483596          0.000000000000
      0.3469723224D+02  0.1132722000D-01
      0.7958262283D+01  0.7616965920D-01
      0.2378082688D+01  0.3019225220D+00
      0.8143320818D+00  0.7278502735D+00
 Atom C6       Shell    48 P   1     bf  114 -   116          2.825433419729          0.708370483596          0.000000000000
      0.2888754725D+00  0.1000000000D+01
 Atom C6       Shell    49 P   1     bf  117 -   119          2.825433419729          0.708370483596          0.000000000000
      0.1005682367D+00  0.1000000000D+01
 Atom C6       Shell    50 D   1     bf  120 -   124          2.825433419729          0.708370483596          0.000000000000
      0.1097000000D+01  0.1000000000D+01
 Atom C6       Shell    51 D   1     bf  125 -   129          2.825433419729          0.708370483596          0.000000000000
      0.3180000000D+00  0.1000000000D+01
 Atom C6       Shell    52 F   1     bf  130 -   136          2.825433419729          0.708370483596          0.000000000000
      0.7610000000D+00  0.1000000000D+01
 Atom H7       Shell    53 S   3     bf  137 -   137          3.749424830749          2.547094612093          0.000000000000
      0.3406134100D+02  0.2543930721D-01
      0.5123574600D+01  0.1900859489D+00
      0.1164662600D+01  0.8524411301D+00
 Atom H7       Shell    54 S   1     bf  138 -   138          3.749424830749          2.547094612093          0.000000000000
      0.3272304100D+00  0.1000000000D+01
 Atom H7       Shell    55 S   1     bf  139 -   139          3.749424830749          2.547094612093          0.000000000000
      0.1030724100D+00  0.1000000000D+01
 Atom H7       Shell    56 P   1     bf  140 -   142          3.749424830749          2.547094612093          0.000000000000
      0.8000000000D+00  0.1000000000D+01
 Atom H8       Shell    57 S   3     bf  143 -   143          3.465056372068         -0.339834274760          1.660519360502
      0.3406134100D+02  0.2543930721D-01
      0.5123574600D+01  0.1900859489D+00
      0.1164662600D+01  0.8524411301D+00
 Atom H8       Shell    58 S   1     bf  144 -   144          3.465056372068         -0.339834274760          1.660519360502
      0.3272304100D+00  0.1000000000D+01
 Atom H8       Shell    59 S   1     bf  145 -   145          3.465056372068         -0.339834274760          1.660519360502
      0.1030724100D+00  0.1000000000D+01
 Atom H8       Shell    60 P   1     bf  146 -   148          3.465056372068         -0.339834274760          1.660519360502
      0.8000000000D+00  0.1000000000D+01
 Atom H9       Shell    61 S   3     bf  149 -   149          3.465056372068         -0.339834274760         -1.660519360502
      0.3406134100D+02  0.2543930721D-01
      0.5123574600D+01  0.1900859489D+00
      0.1164662600D+01  0.8524411301D+00
 Atom H9       Shell    62 S   1     bf  150 -   150          3.465056372068         -0.339834274760         -1.660519360502
      0.3272304100D+00  0.1000000000D+01
 Atom H9       Shell    63 S   1     bf  151 -   151          3.465056372068         -0.339834274760         -1.660519360502
      0.1030724100D+00  0.1000000000D+01
 Atom H9       Shell    64 P   1     bf  152 -   154          3.465056372068         -0.339834274760         -1.660519360502
      0.8000000000D+00  0.1000000000D+01
 Atom C10      Shell    65 S   6     bf  155 -   155         -0.703164250342         -3.664519329091          0.000000000000
      0.1357534968D+05  0.6064550360D-03
      0.2035233368D+04  0.4697908888D-02
      0.4632256236D+03  0.2433247765D-01
      0.1312001960D+03  0.9739996831D-01
      0.4285301589D+02  0.3019558425D+00
      0.1558418577D+02  0.6623360914D+00
 Atom C10      Shell    66 S   2     bf  156 -   156         -0.703164250342         -3.664519329091          0.000000000000
      0.6206713851D+01  0.6559530854D+00
      0.2576489653D+01  0.3758563329D+00
 Atom C10      Shell    67 S   1     bf  157 -   157         -0.703164250342         -3.664519329091          0.000000000000
      0.5769633942D+00  0.1000000000D+01
 Atom C10      Shell    68 S   1     bf  158 -   158         -0.703164250342         -3.664519329091          0.000000000000
      0.2297283136D+00  0.1000000000D+01
 Atom C10      Shell    69 S   1     bf  159 -   159         -0.703164250342         -3.664519329091          0.000000000000
      0.9516444003D-01  0.1000000000D+01
 Atom C10      Shell    70 P   4     bf  160 -   162         -0.703164250342         -3.664519329091          0.000000000000
      0.3469723224D+02  0.1132722000D-01
      0.7958262283D+01  0.7616965920D-01
      0.2378082688D+01  0.3019225220D+00
      0.8143320818D+00  0.7278502735D+00
 Atom C10      Shell    71 P   1     bf  163 -   165         -0.703164250342         -3.664519329091          0.000000000000
      0.2888754725D+00  0.1000000000D+01
 Atom C10      Shell    72 P   1     bf  166 -   168         -0.703164250342         -3.664519329091          0.000000000000
      0.1005682367D+00  0.1000000000D+01
 Atom C10      Shell    73 D   1     bf  169 -   173         -0.703164250342         -3.664519329091          0.000000000000
      0.1097000000D+01  0.1000000000D+01
 Atom C10      Shell    74 D   1     bf  174 -   178         -0.703164250342         -3.664519329091          0.000000000000
      0.3180000000D+00  0.1000000000D+01
 Atom C10      Shell    75 F   1     bf  179 -   185         -0.703164250342         -3.664519329091          0.000000000000
      0.7610000000D+00  0.1000000000D+01
 Atom H11      Shell    76 S   3     bf  186 -   186         -3.584049308767         -0.971776173486          0.000000000000
      0.3406134100D+02  0.2543930721D-01
      0.5123574600D+01  0.1900859489D+00
      0.1164662600D+01  0.8524411301D+00
 Atom H11      Shell    77 S   1     bf  187 -   187         -3.584049308767         -0.971776173486          0.000000000000
      0.3272304100D+00  0.1000000000D+01
 Atom H11      Shell    78 S   1     bf  188 -   188         -3.584049308767         -0.971776173486          0.000000000000
      0.1030724100D+00  0.1000000000D+01
 Atom H11      Shell    79 P   1     bf  189 -   191         -3.584049308767         -0.971776173486          0.000000000000
      0.8000000000D+00  0.1000000000D+01
 Atom H12      Shell    80 S   3     bf  192 -   192         -1.991853857069         -5.251201161284          0.000000000000
      0.3406134100D+02  0.2543930721D-01
      0.5123574600D+01  0.1900859489D+00
      0.1164662600D+01  0.8524411301D+00
 Atom H12      Shell    81 S   1     bf  193 -   193         -1.991853857069         -5.251201161284          0.000000000000
      0.3272304100D+00  0.1000000000D+01
 Atom H12      Shell    82 S   1     bf  194 -   194         -1.991853857069         -5.251201161284          0.000000000000
      0.1030724100D+00  0.1000000000D+01
 Atom H12      Shell    83 P   1     bf  195 -   197         -1.991853857069         -5.251201161284          0.000000000000
      0.8000000000D+00  0.1000000000D+01
 Atom H13      Shell    84 S   3     bf  198 -   198          1.293954930047         -4.105300240876          0.000000000000
      0.3406134100D+02  0.2543930721D-01
      0.5123574600D+01  0.1900859489D+00
      0.1164662600D+01  0.8524411301D+00
 Atom H13      Shell    85 S   1     bf  199 -   199          1.293954930047         -4.105300240876          0.000000000000
      0.3272304100D+00  0.1000000000D+01
 Atom H13      Shell    86 S   1     bf  200 -   200          1.293954930047         -4.105300240876          0.000000000000
      0.1030724100D+00  0.1000000000D+01
 Atom H13      Shell    87 P   1     bf  201 -   203          1.293954930047         -4.105300240876          0.000000000000
      0.8000000000D+00  0.1000000000D+01
 There are   161 symmetry adapted cartesian basis functions of A'  symmetry.
 There are    67 symmetry adapted cartesian basis functions of A"  symmetry.
 There are   141 symmetry adapted basis functions of A'  symmetry.
 There are    62 symmetry adapted basis functions of A"  symmetry.
   203 basis functions,   319 primitive gaussians,   228 cartesian basis functions
    19 alpha electrons       19 beta electrons
       nuclear repulsion energy       160.8457851906 Hartrees.
 IExCor= 4639 DFT=T Ex+Corr=wB97XD ExCW=0 ScaHFX=  1.000000
 ScaDFX=  1.000000  1.000000  1.000000  1.000000 ScalE2=  1.000000  1.000000
 IRadAn=      5 IRanWt=     -1 IRanGd=            0 ICorTp=0 IEmpDi=121
  HFx wShort=  0.000000 wLong=  0.200000 cFull=  0.222036 cShort=  0.000000 cLong=  0.777964
  DFx wShort=  0.000000 wLong=  0.200000 cFull=  0.000000 cShort=  0.000000 cLong=  1.000000
 NAtoms=   13 NActive=   13 NUniq=   12 SFac= 1.17D+00 NAtFMM=   60 NAOKFM=F Big=F
 Integral buffers will be    131072 words long.
 Raffenetti 2 integral format.
 Two-electron integral symmetry is turned on.
 R6Disp:  Grimme-D2 Dispersion energy=       -0.0053372038 Hartrees.
 Nuclear repulsion after empirical dispersion term =      160.8404479868 Hartrees.
 Leave Link  301 at Fri Jul  9 19:19:36 2021, MaxMem=  4194304000 cpu:         0.8
 (Enter /home/minenky/programs//g09/l302.exe)
 NPDir=0 NMtPBC=     1 NCelOv=     1 NCel=       1 NClECP=     1 NCelD=      1
         NCelK=      1 NCelE2=     1 NClLst=     1 CellRange=     0.0.
 One-electron integrals computed using PRISM.
 One-electron integral symmetry used in STVInt
   2 Symmetry operations used in ECPInt.
 ECPInt:  NShTT=    3828 NPrTT=   11160 LenC2=    3806 LenP2D=    9405.
 LDataN:  DoStor=T MaxTD1= 6 Len=  172
 NBasis=   203 RedAO= T EigKep=  1.72D-04  NBF=   141    62
 NBsUse=   203 1.00D-06 EigRej= -1.00D+00 NBFU=   141    62
 Precomputing XC quadrature grid using
 IXCGrd= 4 IRadAn=           5 IRanWt=          -1 IRanGd=           0 AccXCQ= 0.00D+00.
 Generated NRdTot=       0 NPtTot=           0 NUsed=           0 NTot=          32
 NSgBfM=   227   227   227   227   227 MxSgAt=    13 MxSgA2=    13.
 Leave Link  302 at Fri Jul  9 19:19:39 2021, MaxMem=  4194304000 cpu:        45.3
 (Enter /home/minenky/programs//g09/l303.exe)
 DipDrv:  MaxL=1.
 Leave Link  303 at Fri Jul  9 19:19:39 2021, MaxMem=  4194304000 cpu:         1.4
 (Enter /home/minenky/programs//g09/l401.exe)
 ExpMin= 9.52D-02 ExpMax= 1.36D+04 ExpMxC= 4.63D+02 IAcc=3 IRadAn=         5 AccDes= 0.00D+00
 Harris functional with IExCor= 4639 and IRadAn=       5 diagonalized for initial guess.
 HarFok:  IExCor= 4639 AccDes= 0.00D+00 IRadAn=         5 IDoV= 1 UseB2=F ITyADJ=14
 ICtDFT=  3500011 ScaDFX=  1.000000  1.000000  1.000000  1.000000
 FoFCou: FMM=F IPFlag=           0 FMFlag=      100000 FMFlg1=           0
         NFxFlg=           0 DoJE=T BraDBF=F KetDBF=T FulRan=T
         wScrn=  0.000000 ICntrl=     500 IOpCl=  0 I1Cent=   200000004 NGrid=           0
         NMat0=    1 NMatS0=      1 NMatT0=    0 NMatD0=    1 NMtDS0=    0 NMtDT0=    0
 Petite list used in FoFCou.
 Harris En= -185.872296841340    
 JPrj=0 DoOrth=F DoCkMO=F.
 Initial guess orbital symmetries:
       Occupied  (A') (A') (A') (A') (A') (A') (A') (A') (A') (A')
                 (A') (A') (A") (A') (A') (A') (A') (A") (A")
       Virtual   (A") (A") (A') (A') (A') (A') (A") (A') (A') (A')
                 (A') (A') (A') (A") (A') (A") (A') (A') (A') (A")
                 (A') (A") (A') (A") (A') (A') (A') (A') (A') (A')
                 (A") (A') (A') (A') (A') (A') (A") (A') (A") (A')
                 (A') (A') (A") (A') (A') (A") (A') (A") (A') (A')
                 (A") (A') (A') (A") (A') (A') (A') (A") (A') (A')
                 (A') (A') (A") (A') (A") (A') (A') (A") (A') (A")
                 (A') (A') (A") (A") (A') (A') (A") (A') (A') (A")
                 (A') (A') (A') (A") (A") (A") (A') (A") (A') (A')
                 (A') (A") (A') (A') (A") (A') (A') (A") (A') (A')
                 (A') (A') (A") (A') (A") (A') (A') (A") (A') (A')
                 (A') (A') (A') (A") (A') (A') (A") (A') (A") (A')
                 (A') (A") (A') (A") (A') (A") (A') (A") (A") (A')
                 (A') (A") (A") (A') (A') (A") (A") (A') (A") (A')
                 (A') (A") (A') (A") (A') (A') (A") (A') (A') (A")
                 (A') (A') (A") (A') (A") (A') (A') (A') (A') (A")
                 (A') (A') (A') (A") (A') (A") (A') (A') (A') (A")
                 (A") (A') (A') (A') (A') (A') (A') (A') (A') (A')
                 (A') (A') (A') (A')
 The electronic state of the initial guess is 1-A'.
 Leave Link  401 at Fri Jul  9 19:19:42 2021, MaxMem=  4194304000 cpu:        35.0
 (Enter /home/minenky/programs//g09/l502.exe)
 Closed shell SCF:
 Using DIIS extrapolation, IDIIS=  1040.
 Integral symmetry usage will be decided dynamically.
 Keep R1 ints in memory in symmetry-blocked form, NReq=648693294.
 IVT=      309404 IEndB=      309404 NGot=  4194304000 MDV=  4084160335
 LenX=  4084160335 LenY=  4084107910
 Requested convergence on RMS density matrix=1.00D-08 within 380 cycles.
 Requested convergence on MAX density matrix=1.00D-06.
 Requested convergence on             energy=1.00D-06.
 No special actions if energy rises.
 FoFCou: FMM=F IPFlag=           0 FMFlag=           0 FMFlg1=           0
         NFxFlg=           0 DoJE=F BraDBF=F KetDBF=F FulRan=T
         wScrn=  0.000000 ICntrl=     600 IOpCl=  0 I1Cent=           0 NGrid=           0
         NMat0=    1 NMatS0=  20706 NMatT0=    0 NMatD0=    1 NMtDS0=    0 NMtDT0=    0
 Petite list used in FoFCou.
 Integral accuracy reduced to 1.0D-05 until final iterations.

 Cycle   1  Pass 0  IDiag  1:
 E= -195.251192550898    
 DIIS: error= 5.86D-02 at cycle   1 NSaved=   1.
 NSaved= 1 IEnMin= 1 EnMin= -195.251192550898     IErMin= 1 ErrMin= 5.86D-02
 ErrMax= 5.86D-02  0.00D+00 EMaxC= 1.00D-01 BMatC= 4.18D-01 BMatP= 4.18D-01
 IDIUse=3 WtCom= 4.14D-01 WtEn= 5.86D-01
 Coeff-Com:  0.100D+01
 Coeff-En:   0.100D+01
 Coeff:      0.100D+01
 Gap=     0.340 Goal=   None    Shift=    0.000
 GapD=    0.340 DampG=1.000 DampE=0.500 DampFc=0.5000 IDamp=-1.
 Damping current iteration by 5.00D-01
 RMSDP=1.47D-03 MaxDP=5.33D-02              OVMax= 5.09D-02

 Cycle   2  Pass 0  IDiag  1:
 E= -195.283033468952     Delta-E=       -0.031840918054 Rises=F Damp=T
 DIIS: error= 2.92D-02 at cycle   2 NSaved=   2.
 NSaved= 2 IEnMin= 2 EnMin= -195.283033468952     IErMin= 2 ErrMin= 2.92D-02
 ErrMax= 2.92D-02  0.00D+00 EMaxC= 1.00D-01 BMatC= 9.37D-02 BMatP= 4.18D-01
 IDIUse=3 WtCom= 7.08D-01 WtEn= 2.92D-01
 Coeff-Com: -0.838D+00 0.184D+01
 Coeff-En:   0.000D+00 0.100D+01
 Coeff:     -0.594D+00 0.159D+01
 Gap=     0.348 Goal=   None    Shift=    0.000
 RMSDP=7.98D-04 MaxDP=3.21D-02 DE=-3.18D-02 OVMax= 2.68D-02

 Cycle   3  Pass 0  IDiag  1:
 E= -195.311199168767     Delta-E=       -0.028165699815 Rises=F Damp=F
 DIIS: error= 3.05D-03 at cycle   3 NSaved=   3.
 NSaved= 3 IEnMin= 3 EnMin= -195.311199168767     IErMin= 3 ErrMin= 3.05D-03
 ErrMax= 3.05D-03  0.00D+00 EMaxC= 1.00D-01 BMatC= 1.96D-03 BMatP= 9.37D-02
 IDIUse=3 WtCom= 9.70D-01 WtEn= 3.05D-02
 Coeff-Com: -0.274D+00 0.593D+00 0.681D+00
 Coeff-En:   0.000D+00 0.000D+00 0.100D+01
 Coeff:     -0.266D+00 0.575D+00 0.691D+00
 Gap=     0.346 Goal=   None    Shift=    0.000
 RMSDP=1.38D-04 MaxDP=4.46D-03 DE=-2.82D-02 OVMax= 1.21D-02

 Cycle   4  Pass 0  IDiag  1:
 E= -195.312807277405     Delta-E=       -0.001608108638 Rises=F Damp=F
 DIIS: error= 1.06D-03 at cycle   4 NSaved=   4.
 NSaved= 4 IEnMin= 4 EnMin= -195.312807277405     IErMin= 4 ErrMin= 1.06D-03
 ErrMax= 1.06D-03  0.00D+00 EMaxC= 1.00D-01 BMatC= 7.32D-05 BMatP= 1.96D-03
 IDIUse=3 WtCom= 9.89D-01 WtEn= 1.06D-02
 Coeff-Com: -0.924D-01 0.201D+00 0.278D+00 0.613D+00
 Coeff-En:   0.000D+00 0.000D+00 0.000D+00 0.100D+01
 Coeff:     -0.914D-01 0.199D+00 0.275D+00 0.617D+00
 Gap=     0.347 Goal=   None    Shift=    0.000
 RMSDP=3.32D-05 MaxDP=9.28D-04 DE=-1.61D-03 OVMax= 3.72D-03

 Cycle   5  Pass 0  IDiag  1:
 E= -195.312874320431     Delta-E=       -0.000067043026 Rises=F Damp=F
 DIIS: error= 3.79D-04 at cycle   5 NSaved=   5.
 NSaved= 5 IEnMin= 5 EnMin= -195.312874320431     IErMin= 5 ErrMin= 3.79D-04
 ErrMax= 3.79D-04  0.00D+00 EMaxC= 1.00D-01 BMatC= 6.82D-06 BMatP= 7.32D-05
 IDIUse=3 WtCom= 9.96D-01 WtEn= 3.79D-03
 Coeff-Com:  0.266D-01-0.577D-01-0.486D-01 0.200D+00 0.879D+00
 Coeff-En:   0.000D+00 0.000D+00 0.000D+00 0.000D+00 0.100D+01
 Coeff:      0.265D-01-0.575D-01-0.484D-01 0.200D+00 0.880D+00
 Gap=     0.347 Goal=   None    Shift=    0.000
 RMSDP=2.32D-05 MaxDP=4.32D-04 DE=-6.70D-05 OVMax= 1.83D-03

 Cycle   6  Pass 0  IDiag  1:
 E= -195.312883799225     Delta-E=       -0.000009478793 Rises=F Damp=F
 DIIS: error= 5.73D-05 at cycle   6 NSaved=   6.
 NSaved= 6 IEnMin= 6 EnMin= -195.312883799225     IErMin= 6 ErrMin= 5.73D-05
 ErrMax= 5.73D-05  0.00D+00 EMaxC= 1.00D-01 BMatC= 2.38D-07 BMatP= 6.82D-06
 IDIUse=1 WtCom= 1.00D+00 WtEn= 0.00D+00
 Coeff-Com:  0.977D-02-0.212D-01-0.222D-01 0.197D-01 0.205D+00 0.809D+00
 Coeff:      0.977D-02-0.212D-01-0.222D-01 0.197D-01 0.205D+00 0.809D+00
 Gap=     0.347 Goal=   None    Shift=    0.000
 RMSDP=4.57D-06 MaxDP=7.62D-05 DE=-9.48D-06 OVMax= 2.98D-04

 Initial convergence to 1.0D-05 achieved.  Increase integral accuracy.
 Cycle   7  Pass 1  IDiag  1:
 E= -195.312882505524     Delta-E=        0.000001293701 Rises=F Damp=F
 DIIS: error= 3.11D-05 at cycle   1 NSaved=   1.
 NSaved= 1 IEnMin= 1 EnMin= -195.312882505524     IErMin= 1 ErrMin= 3.11D-05
 ErrMax= 3.11D-05  0.00D+00 EMaxC= 1.00D-01 BMatC= 4.62D-07 BMatP= 4.62D-07
 IDIUse=1 WtCom= 1.00D+00 WtEn= 0.00D+00
 Coeff-Com:  0.100D+01
 Coeff:      0.100D+01
 Gap=     0.347 Goal=   None    Shift=    0.000
 RMSDP=4.57D-06 MaxDP=7.62D-05 DE= 1.29D-06 OVMax= 1.63D-04

 Cycle   8  Pass 1  IDiag  1:
 E= -195.312882803971     Delta-E=       -0.000000298447 Rises=F Damp=F
 DIIS: error= 1.20D-05 at cycle   2 NSaved=   2.
 NSaved= 2 IEnMin= 2 EnMin= -195.312882803971     IErMin= 2 ErrMin= 1.20D-05
 ErrMax= 1.20D-05  0.00D+00 EMaxC= 1.00D-01 BMatC= 2.37D-08 BMatP= 4.62D-07
 IDIUse=1 WtCom= 1.00D+00 WtEn= 0.00D+00
 Coeff-Com:  0.335D-01 0.966D+00
 Coeff:      0.335D-01 0.966D+00
 Gap=     0.347 Goal=   None    Shift=    0.000
 RMSDP=1.08D-06 MaxDP=3.00D-05 DE=-2.98D-07 OVMax= 6.15D-05

 Cycle   9  Pass 1  IDiag  1:
 E= -195.312882819145     Delta-E=       -0.000000015175 Rises=F Damp=F
 DIIS: error= 8.26D-06 at cycle   3 NSaved=   3.
 NSaved= 3 IEnMin= 3 EnMin= -195.312882819145     IErMin= 3 ErrMin= 8.26D-06
 ErrMax= 8.26D-06  0.00D+00 EMaxC= 1.00D-01 BMatC= 1.19D-08 BMatP= 2.37D-08
 IDIUse=1 WtCom= 1.00D+00 WtEn= 0.00D+00
 Coeff-Com: -0.368D-01 0.414D+00 0.623D+00
 Coeff:     -0.368D-01 0.414D+00 0.623D+00
 Gap=     0.347 Goal=   None    Shift=    0.000
 RMSDP=3.78D-07 MaxDP=1.26D-05 DE=-1.52D-08 OVMax= 3.26D-05

 Cycle  10  Pass 1  IDiag  1:
 E= -195.312882830573     Delta-E=       -0.000000011427 Rises=F Damp=F
 DIIS: error= 2.03D-06 at cycle   4 NSaved=   4.
 NSaved= 4 IEnMin= 4 EnMin= -195.312882830573     IErMin= 4 ErrMin= 2.03D-06
 ErrMax= 2.03D-06  0.00D+00 EMaxC= 1.00D-01 BMatC= 2.30D-10 BMatP= 1.19D-08
 IDIUse=1 WtCom= 1.00D+00 WtEn= 0.00D+00
 Coeff-Com: -0.998D-02 0.763D-01 0.152D+00 0.782D+00
 Coeff:     -0.998D-02 0.763D-01 0.152D+00 0.782D+00
 Gap=     0.347 Goal=   None    Shift=    0.000
 RMSDP=1.26D-07 MaxDP=2.24D-06 DE=-1.14D-08 OVMax= 8.79D-06

 Cycle  11  Pass 1  IDiag  1:
 E= -195.312882830887     Delta-E=       -0.000000000314 Rises=F Damp=F
 DIIS: error= 1.04D-06 at cycle   5 NSaved=   5.
 NSaved= 5 IEnMin= 5 EnMin= -195.312882830887     IErMin= 5 ErrMin= 1.04D-06
 ErrMax= 1.04D-06  0.00D+00 EMaxC= 1.00D-01 BMatC= 6.43D-11 BMatP= 2.30D-10
 IDIUse=1 WtCom= 1.00D+00 WtEn= 0.00D+00
 Coeff-Com:  0.470D-02-0.660D-01-0.838D-01 0.331D+00 0.814D+00
 Coeff:      0.470D-02-0.660D-01-0.838D-01 0.331D+00 0.814D+00
 Gap=     0.347 Goal=   None    Shift=    0.000
 RMSDP=8.19D-08 MaxDP=1.79D-06 DE=-3.14D-10 OVMax= 8.89D-06

 Cycle  12  Pass 1  IDiag  1:
 E= -195.312882831009     Delta-E=       -0.000000000122 Rises=F Damp=F
 DIIS: error= 2.43D-07 at cycle   6 NSaved=   6.
 NSaved= 6 IEnMin= 6 EnMin= -195.312882831009     IErMin= 6 ErrMin= 2.43D-07
 ErrMax= 2.43D-07  0.00D+00 EMaxC= 1.00D-01 BMatC= 3.12D-12 BMatP= 6.43D-11
 IDIUse=1 WtCom= 1.00D+00 WtEn= 0.00D+00
 Coeff-Com:  0.169D-02-0.189D-01-0.282D-01-0.940D-02 0.176D+00 0.879D+00
 Coeff:      0.169D-02-0.189D-01-0.282D-01-0.940D-02 0.176D+00 0.879D+00
 Gap=     0.347 Goal=   None    Shift=    0.000
 RMSDP=2.11D-08 MaxDP=4.84D-07 DE=-1.22D-10 OVMax= 1.57D-06

 Cycle  13  Pass 1  IDiag  1:
 E= -195.312882831014     Delta-E=       -0.000000000005 Rises=F Damp=F
 DIIS: error= 5.57D-08 at cycle   7 NSaved=   7.
 NSaved= 7 IEnMin= 7 EnMin= -195.312882831014     IErMin= 7 ErrMin= 5.57D-08
 ErrMax= 5.57D-08  0.00D+00 EMaxC= 1.00D-01 BMatC= 3.76D-13 BMatP= 3.12D-12
 IDIUse=1 WtCom= 1.00D+00 WtEn= 0.00D+00
 Coeff-Com:  0.134D-03-0.428D-04-0.143D-02-0.392D-01-0.114D-01 0.297D+00
 Coeff-Com:  0.755D+00
 Coeff:      0.134D-03-0.428D-04-0.143D-02-0.392D-01-0.114D-01 0.297D+00
 Coeff:      0.755D+00
 Gap=     0.347 Goal=   None    Shift=    0.000
 RMSDP=5.22D-09 MaxDP=1.11D-07 DE=-5.00D-12 OVMax= 4.66D-07

 SCF Done:  E(RwB97XD) =  -195.312882831     A.U. after   13 cycles
            NFock= 13  Conv=0.52D-08     -V/T= 2.0055
 KE= 1.942487676700D+02 PE=-7.738115135225D+02 EE= 2.234094150347D+02
 Leave Link  502 at Fri Jul  9 19:19:53 2021, MaxMem=  4194304000 cpu:       153.9
 (Enter /home/minenky/programs//g09/l601.exe)
 Copying SCF densities to generalized density rwf, IOpCl= 0 IROHF=0.

 **********************************************************************

            Population analysis using the SCF density.

 **********************************************************************

 Orbital symmetries:
       Occupied  (A') (A') (A') (A') (A') (A') (A') (A') (A') (A')
                 (A') (A') (A") (A') (A') (A') (A') (A") (A")
       Virtual   (A") (A') (A") (A') (A') (A') (A') (A") (A') (A')
                 (A') (A') (A') (A") (A') (A') (A") (A') (A') (A")
                 (A') (A") (A') (A") (A') (A') (A') (A') (A') (A')
                 (A") (A') (A') (A') (A') (A') (A") (A') (A") (A')
                 (A') (A') (A') (A') (A") (A") (A') (A") (A') (A')
                 (A") (A') (A') (A") (A') (A') (A') (A") (A') (A')
                 (A') (A') (A") (A') (A") (A') (A') (A") (A') (A")
                 (A') (A") (A') (A') (A") (A') (A") (A') (A') (A')
                 (A") (A') (A') (A") (A") (A") (A') (A") (A') (A')
                 (A') (A") (A') (A') (A") (A') (A') (A") (A') (A')
                 (A') (A') (A") (A') (A') (A") (A') (A") (A') (A')
                 (A') (A') (A') (A") (A') (A') (A") (A') (A") (A')
                 (A') (A") (A') (A") (A') (A") (A') (A") (A') (A")
                 (A') (A") (A") (A') (A') (A") (A") (A') (A") (A')
                 (A') (A") (A') (A") (A') (A') (A") (A') (A') (A")
                 (A') (A') (A") (A') (A") (A') (A') (A') (A') (A")
                 (A') (A') (A') (A") (A') (A") (A') (A') (A') (A")
                 (A") (A') (A') (A') (A') (A') (A') (A') (A') (A')
                 (A') (A') (A') (A')
 The electronic state is 1-A'.
 Alpha  occ. eigenvalues --  -10.29960 -10.28999 -10.27998 -10.27873 -10.27668
 Alpha  occ. eigenvalues --   -0.92539  -0.84260  -0.79012  -0.69682  -0.61489
 Alpha  occ. eigenvalues --   -0.56685  -0.54870  -0.50744  -0.48613  -0.47000
 Alpha  occ. eigenvalues --   -0.45479  -0.42140  -0.39513  -0.31146
 Alpha virt. eigenvalues --    0.03565   0.12329   0.13694   0.14531   0.15858
 Alpha virt. eigenvalues --    0.17457   0.19459   0.19845   0.20584   0.22620
 Alpha virt. eigenvalues --    0.23743   0.26567   0.26955   0.28225   0.29452
 Alpha virt. eigenvalues --    0.30776   0.31128   0.34858   0.37722   0.37879
 Alpha virt. eigenvalues --    0.41092   0.41198   0.41498   0.44094   0.44281
 Alpha virt. eigenvalues --    0.47087   0.48502   0.50194   0.51992   0.52661
 Alpha virt. eigenvalues --    0.54436   0.55647   0.56930   0.57560   0.59714
 Alpha virt. eigenvalues --    0.63315   0.64799   0.65059   0.67457   0.67694
 Alpha virt. eigenvalues --    0.73112   0.73852   0.76812   0.77716   0.78396
 Alpha virt. eigenvalues --    0.86262   0.89536   0.89761   0.93696   1.00516
 Alpha virt. eigenvalues --    1.02573   1.04137   1.05159   1.09983   1.10682
 Alpha virt. eigenvalues --    1.12833   1.15743   1.17101   1.20017   1.23185
 Alpha virt. eigenvalues --    1.28880   1.32381   1.34032   1.37821   1.40399
 Alpha virt. eigenvalues --    1.42203   1.48119   1.51560   1.55814   1.59572
 Alpha virt. eigenvalues --    1.60910   1.62131   1.62157   1.66289   1.66379
 Alpha virt. eigenvalues --    1.69021   1.70260   1.71752   1.76114   1.78134
 Alpha virt. eigenvalues --    1.78320   1.81704   1.88579   1.89759   1.91706
 Alpha virt. eigenvalues --    1.93696   1.96880   2.00945   2.03860   2.07939
 Alpha virt. eigenvalues --    2.10677   2.13014   2.16222   2.25182   2.27189
 Alpha virt. eigenvalues --    2.28628   2.34195   2.39734   2.41029   2.43863
 Alpha virt. eigenvalues --    2.46306   2.47937   2.48658   2.54969   2.56182
 Alpha virt. eigenvalues --    2.59191   2.59195   2.62111   2.64958   2.69071
 Alpha virt. eigenvalues --    2.69767   2.72724   2.73097   2.79547   2.80256
 Alpha virt. eigenvalues --    2.81251   2.83794   2.88708   2.91136   2.91983
 Alpha virt. eigenvalues --    2.98594   3.02942   3.03342   3.06489   3.09357
 Alpha virt. eigenvalues --    3.11584   3.11963   3.15002   3.17175   3.18127
 Alpha virt. eigenvalues --    3.19506   3.23412   3.26660   3.27509   3.31419
 Alpha virt. eigenvalues --    3.32294   3.34043   3.34451   3.36561   3.37511
 Alpha virt. eigenvalues --    3.39770   3.42209   3.42719   3.47221   3.48790
 Alpha virt. eigenvalues --    3.54227   3.55324   3.58679   3.65104   3.65566
 Alpha virt. eigenvalues --    3.68078   3.78208   3.82461   3.83274   3.89479
 Alpha virt. eigenvalues --    3.90691   3.95086   4.05668   4.08478   4.09347
 Alpha virt. eigenvalues --    4.17257   4.22989   4.28040   4.31239   4.40078
 Alpha virt. eigenvalues --    4.45696   4.52690   4.55212   4.58938   4.59182
 Alpha virt. eigenvalues --    4.62566   4.69434   4.79415   4.89537   4.95977
 Alpha virt. eigenvalues --    4.99211   5.08802   5.34922   5.46800  22.20777
 Alpha virt. eigenvalues --   22.48590  22.51818  22.78656  23.10750
          Condensed to atoms (all electrons):
               1          2          3          4          5          6
     1  C    4.942886   0.631320  -0.063786   0.414470   0.421556  -0.037985
     2  C    0.631320   4.971976   0.357848  -0.038633  -0.050089   0.264253
     3  C   -0.063786   0.357848   4.972728   0.009940  -0.008583  -0.077851
     4  H    0.414470  -0.038633   0.009940   0.528949  -0.026892  -0.012515
     5  H    0.421556  -0.050089  -0.008583  -0.026892   0.529999   0.007703
     6  C   -0.037985   0.264253  -0.077851  -0.012515   0.007703   4.965252
     7  H   -0.004753  -0.041269   0.009000   0.003459   0.000189   0.409487
     8  H   -0.003721  -0.042777  -0.000106   0.000244  -0.000297   0.419040
     9  H   -0.003721  -0.042777  -0.000106   0.000244  -0.000297   0.419040
    10  C   -0.001861  -0.045110   0.598074  -0.000473   0.000804   0.010550
    11  H    0.001383  -0.053296   0.408953  -0.000088   0.004515   0.006370
    12  H   -0.000312   0.006170  -0.041302   0.000014  -0.000063  -0.001108
    13  H    0.000145  -0.010375  -0.044710  -0.000009   0.000051   0.007564
               7          8          9         10         11         12
     1  C   -0.004753  -0.003721  -0.003721  -0.001861   0.001383  -0.000312
     2  C   -0.041269  -0.042777  -0.042777  -0.045110  -0.053296   0.006170
     3  C    0.009000  -0.000106  -0.000106   0.598074   0.408953  -0.041302
     4  H    0.003459   0.000244   0.000244  -0.000473  -0.000088   0.000014
     5  H    0.000189  -0.000297  -0.000297   0.000804   0.004515  -0.000063
     6  C    0.409487   0.419040   0.419040   0.010550   0.006370  -0.001108
     7  H    0.542271  -0.018342  -0.018342  -0.000426  -0.000152   0.000007
     8  H   -0.018342   0.555580  -0.040204  -0.000351  -0.000132   0.000134
     9  H   -0.018342  -0.040204   0.555580  -0.000351  -0.000132   0.000134
    10  C   -0.000426  -0.000351  -0.000351   4.924306  -0.024891   0.422124
    11  H   -0.000152  -0.000132  -0.000132  -0.024891   0.548716  -0.007932
    12  H    0.000007   0.000134   0.000134   0.422124  -0.007932   0.516269
    13  H    0.000286  -0.002458  -0.002458   0.418055   0.005018  -0.024904
              13
     1  C    0.000145
     2  C   -0.010375
     3  C   -0.044710
     4  H   -0.000009
     5  H    0.000051
     6  C    0.007564
     7  H    0.000286
     8  H   -0.002458
     9  H   -0.002458
    10  C    0.418055
    11  H    0.005018
    12  H   -0.024904
    13  H    0.521085
 Mulliken charges:
               1
     1  C   -0.295620
     2  C    0.092759
     3  C   -0.120098
     4  H    0.121291
     5  H    0.121406
     6  C   -0.379801
     7  H    0.118586
     8  H    0.133391
     9  H    0.133391
    10  C   -0.300452
    11  H    0.111668
    12  H    0.130771
    13  H    0.132709
 Sum of Mulliken charges =   0.00000
 Mulliken charges with hydrogens summed into heavy atoms:
               1
     1  C   -0.052923
     2  C    0.092759
     3  C   -0.008430
     6  C    0.005566
    10  C   -0.036971
 Electronic spatial extent (au):  <R**2>=            467.3923
 Charge=              0.0000 electrons
 Dipole moment (field-independent basis, Debye):
    X=              0.2673    Y=             -0.0129    Z=              0.0000  Tot=              0.2676
 Quadrupole moment (field-independent basis, Debye-Ang):
   XX=            -29.4994   YY=            -30.0458   ZZ=            -35.1425
   XY=              0.0960   XZ=              0.0000   YZ=              0.0000
 Traceless Quadrupole moment (field-independent basis, Debye-Ang):
   XX=              2.0631   YY=              1.5168   ZZ=             -3.5799
   XY=              0.0960   XZ=              0.0000   YZ=              0.0000
 Octapole moment (field-independent basis, Debye-Ang**2):
  XXX=             -3.2813  YYY=             -0.1207  ZZZ=              0.0000  XYY=              0.2493
  XXY=             -0.0893  XXZ=              0.0000  XZZ=              2.7162  YZZ=             -0.0276
  YYZ=              0.0000  XYZ=              0.0000
 Hexadecapole moment (field-independent basis, Debye-Ang**3):
 XXXX=           -217.3773 YYYY=           -360.2864 ZZZZ=            -48.1566 XXXY=            -16.6334
 XXXZ=              0.0000 YYYX=             -7.1251 YYYZ=              0.0000 ZZZX=              0.0000
 ZZZY=              0.0000 XXYY=            -93.9831 XXZZ=            -46.1386 YYZZ=            -81.7511
 XXYZ=              0.0000 YYXZ=              0.0000 ZZXY=             -6.6507
 N-N= 1.608404479868D+02 E-N=-7.738115089110D+02  KE= 1.942487676700D+02
 Symmetry A'   KE= 1.880871229155D+02
 Symmetry A"   KE= 6.161644754492D+00
 No NMR shielding tensors so no spin-rotation constants.
 Leave Link  601 at Fri Jul  9 19:19:54 2021, MaxMem=  4194304000 cpu:         2.7
 (Enter /home/minenky/programs//g09/l701.exe)
 Compute integral first derivatives.
 ... and contract with generalized density number  0.
 R6Disp: Adding Grimme-D2 dispersion energy 1st derivatives to the gradient.
   2 Symmetry operations used in ECPInt.
 ECPInt:  NShTT=    3828 NPrTT=   11160 LenC2=    3806 LenP2D=    9405.
 LDataN:  DoStor=T MaxTD1= 7 Len=  274
 Leave Link  701 at Fri Jul  9 19:19:55 2021, MaxMem=  4194304000 cpu:        14.7
 (Enter /home/minenky/programs//g09/l702.exe)
 L702 exits ... SP integral derivatives will be done elsewhere.
 Leave Link  702 at Fri Jul  9 19:19:55 2021, MaxMem=  4194304000 cpu:         0.1
 (Enter /home/minenky/programs//g09/l703.exe)
 Compute integral first derivatives, UseDBF=F ICtDFT=           0.
 Integral derivatives from FoFJK, PRISM(SPDF).
 Calling FoFJK, ICntrl=      2127 FMM=F ISym2X=1 I1Cent= 0 IOpClX= 0 NMat=1 NMatS=1 NMatT=0.
 FoFJK:  IHMeth= 1 ICntrl=    2127 DoSepK=T KAlg= 0 I1Cent=   0 FoldK=F
 IRaf=         1 NMat=   1 IRICut=       1 DoRegI=T DoRafI=F ISym2E= 1.
 FoFCou: FMM=F IPFlag=           0 FMFlag=      100000 FMFlg1=         800
         NFxFlg=           0 DoJE=F BraDBF=F KetDBF=F FulRan=T
         wScrn=  0.000000 ICntrl=    2527 IOpCl=  0 I1Cent=           0 NGrid=           0
         NMat0=    1 NMatS0=      1 NMatT0=    0 NMatD0=    1 NMtDS0=    0 NMtDT0=    0
 Petite list used in FoFCou.
 Leave Link  703 at Fri Jul  9 19:20:01 2021, MaxMem=  4194304000 cpu:        91.3
 (Enter /home/minenky/programs//g09/l716.exe)
 Dipole        = 1.05170790D-01-5.08212944D-03 2.22044605D-16
 ***** Axes restored to original set *****
 -------------------------------------------------------------------
 Center     Atomic                   Forces (Hartrees/Bohr)
 Number     Number              X              Y              Z
 -------------------------------------------------------------------
      1        6           0.002156648   -0.005296118    0.000000000
      2        6           0.000624933    0.006642774    0.000000000
      3        6           0.000032814   -0.006471115    0.000000000
      4        1           0.000461575    0.000240279    0.000000000
      5        1          -0.000453040   -0.000145646    0.000000000
      6        6          -0.000501041   -0.000190758    0.000000000
      7        1           0.000020562    0.000033075    0.000000000
      8        1          -0.000314392    0.000099111    0.000076338
      9        1          -0.000314392    0.000099111   -0.000076338
     10        6          -0.001797849    0.005099319    0.000000000
     11        1          -0.000237268   -0.000283970    0.000000000
     12        1          -0.000455496    0.000015941    0.000000000
     13        1           0.000776946    0.000157997    0.000000000
 -------------------------------------------------------------------
 Cartesian Forces:  Max     0.006642774 RMS     0.001963234
 Leave Link  716 at Fri Jul  9 19:20:01 2021, MaxMem=  4194304000 cpu:         0.1
 (Enter /home/minenky/programs//g09/l103.exe)

 GradGradGradGradGradGradGradGradGradGradGradGradGradGradGradGradGradGrad
 Berny optimization.
 FormGI is forming the generalized inverse of G from B-inverse, IUseBI=4.
 Internal  Forces:  Max     0.005624534 RMS     0.001216212
 Search for a local minimum.
 Step number   1 out of a maximum of   58
 All quantities printed in internal units (Hartrees-Bohrs-Radians)
 RMS Force = .12162D-02 SwitMx=.10000D-02 MixMth= 1
 Mixed Optimization -- RFO/linear search
 Second derivative matrix not updated -- first step.
 ITU=  0
     Eigenvalues ---    0.00733   0.01266   0.01519   0.02143   0.02911
     Eigenvalues ---    0.02911   0.02965   0.02965   0.07181   0.07252
     Eigenvalues ---    0.16000   0.16000   0.16000   0.16000   0.16000
     Eigenvalues ---    0.16000   0.16000   0.16000   0.22000   0.25000
     Eigenvalues ---    0.25000   0.32114   0.34483   0.34483   0.34933
     Eigenvalues ---    0.35282   0.35638   0.35722   0.35725   0.35792
     Eigenvalues ---    0.36693   0.57684   0.58633
 RFO step:  Lambda=-1.38709827D-04 EMin= 7.32518799D-03
 Linear search not attempted -- first point.
 Iteration  1 RMS(Cart)=  0.00479346 RMS(Int)=  0.00000655
 Iteration  2 RMS(Cart)=  0.00000936 RMS(Int)=  0.00000060
 Iteration  3 RMS(Cart)=  0.00000000 RMS(Int)=  0.00000060
 ITry= 1 IFail=0 DXMaxC= 1.89D-02 DCOld= 1.00D+10 DXMaxT= 3.00D-01 DXLimC= 3.00D+00 Rises=F
 ClnCor:  largest displacement from symmetrization is 2.58D-12 for atom    13.
 Variable       Old X    -DE/DX   Delta X   Delta X   Delta X     New X
                                 (Linear)    (Quad)   (Total)
    R1        2.52821  -0.00562   0.00000  -0.00975  -0.00975   2.51846
    R2        2.04514   0.00045   0.00000   0.00126   0.00126   2.04640
    R3        2.04651   0.00044   0.00000   0.00123   0.00123   2.04774
    R4        2.76311   0.00217   0.00000   0.00591   0.00591   2.76903
    R5        2.83936  -0.00111   0.00000  -0.00345  -0.00345   2.83592
    R6        2.52039  -0.00546   0.00000  -0.00931  -0.00931   2.51108
    R7        2.05219   0.00019   0.00000   0.00054   0.00054   2.05273
    R8        2.05783   0.00004   0.00000   0.00011   0.00011   2.05794
    R9        2.06523  -0.00009   0.00000  -0.00025  -0.00025   2.06498
   R10        2.06523  -0.00009   0.00000  -0.00025  -0.00025   2.06498
   R11        2.04408   0.00027   0.00000   0.00077   0.00077   2.04485
   R12        2.04518   0.00073   0.00000   0.00203   0.00203   2.04721
    A1        2.12432  -0.00023   0.00000  -0.00142  -0.00142   2.12290
    A2        2.11644  -0.00008   0.00000  -0.00049  -0.00049   2.11595
    A3        2.04243   0.00031   0.00000   0.00191   0.00191   2.04433
    A4        2.09030  -0.00021   0.00000  -0.00084  -0.00084   2.08946
    A5        2.12250   0.00047   0.00000   0.00188   0.00188   2.12438
    A6        2.07039  -0.00026   0.00000  -0.00104  -0.00104   2.06935
    A7        2.19721  -0.00083   0.00000  -0.00378  -0.00378   2.19343
    A8        2.01220   0.00074   0.00000   0.00393   0.00393   2.01613
    A9        2.07378   0.00009   0.00000  -0.00015  -0.00015   2.07363
   A10        1.93736   0.00014   0.00000   0.00094   0.00094   1.93829
   A11        1.93736  -0.00038   0.00000  -0.00238  -0.00238   1.93498
   A12        1.93736  -0.00038   0.00000  -0.00238  -0.00238   1.93498
   A13        1.89067   0.00013   0.00000   0.00084   0.00084   1.89151
   A14        1.89067   0.00013   0.00000   0.00084   0.00084   1.89151
   A15        1.86810   0.00038   0.00000   0.00231   0.00231   1.87042
   A16        2.11377  -0.00028   0.00000  -0.00172  -0.00172   2.11205
   A17        2.13371  -0.00019   0.00000  -0.00120  -0.00120   2.13252
   A18        2.03570   0.00047   0.00000   0.00292   0.00292   2.03862
    D1        3.14159   0.00000   0.00000   0.00000   0.00000   3.14159
    D2        0.00000   0.00000   0.00000   0.00000   0.00000   0.00000
    D3        0.00000   0.00000   0.00000   0.00000   0.00000   0.00000
    D4        3.14159   0.00000   0.00000   0.00000   0.00000   3.14159
    D5        3.14159   0.00000   0.00000   0.00000   0.00000   3.14159
    D6        0.00000   0.00000   0.00000   0.00000   0.00000   0.00000
    D7        0.00000   0.00000   0.00000   0.00000   0.00000   0.00000
    D8        3.14159   0.00000   0.00000   0.00000   0.00000   3.14159
    D9        0.00000   0.00000   0.00000   0.00000   0.00000   0.00000
   D10        2.10386   0.00001   0.00000   0.00010   0.00010   2.10396
   D11       -2.10386  -0.00001   0.00000  -0.00010  -0.00010  -2.10396
   D12        3.14159   0.00000   0.00000   0.00000   0.00000   3.14159
   D13       -1.03773   0.00001   0.00000   0.00010   0.00010  -1.03763
   D14        1.03773  -0.00001   0.00000  -0.00010  -0.00010   1.03763
   D15        3.14159   0.00000   0.00000   0.00000   0.00000   3.14159
   D16        0.00000   0.00000   0.00000   0.00000   0.00000   0.00000
   D17        0.00000   0.00000   0.00000   0.00000   0.00000   0.00000
   D18        3.14159   0.00000   0.00000   0.00000   0.00000   3.14159
         Item               Value     Threshold  Converged?
 Maximum Force            0.005625     0.000015     NO 
 RMS     Force            0.001216     0.000010     NO 
 Maximum Displacement     0.018868     0.000060     NO 
 RMS     Displacement     0.004793     0.000040     NO 
 Predicted change in Energy=-6.937633D-05
 Lowest energy point so far.  Saving SCF results.
 GradGradGradGradGradGradGradGradGradGradGradGradGradGradGradGradGradGrad

 Leave Link  103 at Fri Jul  9 19:20:02 2021, MaxMem=  4194304000 cpu:        17.2
 (Enter /home/minenky/programs//g09/l202.exe)
                          Input orientation:                          
 ---------------------------------------------------------------------
 Center     Atomic      Atomic             Coordinates (Angstroms)
 Number     Number       Type             X           Y           Z
 ---------------------------------------------------------------------
      1          6           0       -0.582620    1.723320    0.000000
      2          6           0        0.000641    0.525015    0.000000
      3          6           0       -0.825709   -0.685052    0.000000
      4          1           0       -0.002164    2.637519    0.000000
      5          1           0       -1.661639    1.823058    0.000000
      6          6           0        1.493755    0.374295    0.000000
      7          1           0        1.985109    1.346164    0.000000
      8          1           0        1.828882   -0.181141    0.879353
      9          1           0        1.828882   -0.181141   -0.879353
     10          6           0       -0.371298   -1.933745    0.000000
     11          1           0       -1.899141   -0.518621    0.000000
     12          1           0       -1.052153   -2.774787    0.000000
     13          1           0        0.687624   -2.162447    0.000000
 ---------------------------------------------------------------------
                    Distance matrix (angstroms):
                    1          2          3          4          5
     1  C    0.000000
     2  C    1.332714   0.000000
     3  C    2.420609   1.465305   0.000000
     4  H    1.082908   2.112506   3.423114   0.000000
     5  H    1.083619   2.109049   2.643747   1.848568   0.000000
     6  C    2.476126   1.500702   2.549928   2.712924   3.472092
     7  H    2.595280   2.147649   3.467930   2.369990   3.677798
     8  H    3.196181   2.148111   2.841486   3.474311   4.119928
     9  H    3.196181   2.148111   2.841486   3.474311   4.119928
    10  C    3.663165   2.486733   1.328804   4.586144   3.972222
    11  H    2.599909   2.167567   1.086257   3.682356   2.353693
    12  H    4.522547   3.463679   2.101968   5.513215   4.638065
    13  H    4.088117   2.773878   2.114916   4.849276   4.626368
                    6          7          8          9         10
     6  C    0.000000
     7  H    1.089016   0.000000
     8  H    1.092740   1.769273   0.000000
     9  H    1.092740   1.769273   1.758706   0.000000
    10  C    2.967402   4.038620   2.947147   2.947147   0.000000
    11  H    3.508424   4.308691   3.845167   3.845167   2.082517
    12  H    4.049490   5.119296   3.975000   3.975000   1.082089
    13  H    2.661749   3.740830   2.449756   2.449756   1.083338
                   11         12         13
    11  H    0.000000
    12  H    2.409911   0.000000
    13  H    3.064884   1.844393   0.000000
 Stoichiometry    C5H8
 Framework group  CS[SG(C5H6),X(H2)]
 Deg. of freedom    22
 Full point group                 CS      NOp   2
 RotChk:  IX=0 Diff= 1.44D-03
 Largest Abelian subgroup         CS      NOp   2
 Largest concise Abelian subgroup CS      NOp   2
                         Standard orientation:                         
 ---------------------------------------------------------------------
 Center     Atomic      Atomic             Coordinates (Angstroms)
 Number     Number       Type             X           Y           Z
 ---------------------------------------------------------------------
      1          6           0       -0.584484    1.722419    0.000000
      2          6           0        0.000000    0.524710    0.000000
      3          6           0       -0.825115   -0.686200    0.000000
      4          1           0       -0.004961    2.637210    0.000000
      5          1           0       -1.663604    1.821055    0.000000
      6          6           0        1.493267    0.375514    0.000000
      7          1           0        1.983628    1.347884    0.000000
      8          1           0        1.828960   -0.179580    0.879353
      9          1           0        1.828960   -0.179580   -0.879353
     10          6           0       -0.369430   -1.934428    0.000000
     11          1           0       -1.898716   -0.520865    0.000000
     12          1           0       -1.049426   -2.776165    0.000000
     13          1           0        0.689725   -2.162049    0.000000
 ---------------------------------------------------------------------
 Rotational constants (GHZ):      8.6104758      4.2144044      2.8797620
 Leave Link  202 at Fri Jul  9 19:20:02 2021, MaxMem=  4194304000 cpu:         0.3
 (Enter /home/minenky/programs//g09/l301.exe)
 Standard basis: def2TZVP (5D, 7F)
 Ernie: Thresh=  0.10000D-02 Tol=  0.10000D-05 Strict=F.
 There are   161 symmetry adapted cartesian basis functions of A'  symmetry.
 There are    67 symmetry adapted cartesian basis functions of A"  symmetry.
 There are   141 symmetry adapted basis functions of A'  symmetry.
 There are    62 symmetry adapted basis functions of A"  symmetry.
   203 basis functions,   319 primitive gaussians,   228 cartesian basis functions
    19 alpha electrons       19 beta electrons
       nuclear repulsion energy       161.0488486425 Hartrees.
 IExCor= 4639 DFT=T Ex+Corr=wB97XD ExCW=0 ScaHFX=  1.000000
 ScaDFX=  1.000000  1.000000  1.000000  1.000000 ScalE2=  1.000000  1.000000
 IRadAn=      5 IRanWt=     -1 IRanGd=            0 ICorTp=0 IEmpDi=121
  HFx wShort=  0.000000 wLong=  0.200000 cFull=  0.222036 cShort=  0.000000 cLong=  0.777964
  DFx wShort=  0.000000 wLong=  0.200000 cFull=  0.000000 cShort=  0.000000 cLong=  1.000000
 NAtoms=   13 NActive=   13 NUniq=   12 SFac= 1.17D+00 NAtFMM=   60 NAOKFM=F Big=F
 Integral buffers will be    131072 words long.
 Raffenetti 2 integral format.
 Two-electron integral symmetry is turned on.
 R6Disp:  Grimme-D2 Dispersion energy=       -0.0053426427 Hartrees.
 Nuclear repulsion after empirical dispersion term =      161.0435059998 Hartrees.
 Leave Link  301 at Fri Jul  9 19:20:02 2021, MaxMem=  4194304000 cpu:         0.3
 (Enter /home/minenky/programs//g09/l302.exe)
 NPDir=0 NMtPBC=     1 NCelOv=     1 NCel=       1 NClECP=     1 NCelD=      1
         NCelK=      1 NCelE2=     1 NClLst=     1 CellRange=     0.0.
 One-electron integrals computed using PRISM.
 One-electron integral symmetry used in STVInt
   2 Symmetry operations used in ECPInt.
 ECPInt:  NShTT=    3828 NPrTT=   11160 LenC2=    3806 LenP2D=    9405.
 LDataN:  DoStor=T MaxTD1= 6 Len=  172
 NBasis=   203 RedAO= T EigKep=  1.69D-04  NBF=   141    62
 NBsUse=   203 1.00D-06 EigRej= -1.00D+00 NBFU=   141    62
 Precomputing XC quadrature grid using
 IXCGrd= 4 IRadAn=           5 IRanWt=          -1 IRanGd=           0 AccXCQ= 0.00D+00.
 Generated NRdTot=       0 NPtTot=           0 NUsed=           0 NTot=          32
 NSgBfM=   227   227   227   227   227 MxSgAt=    13 MxSgA2=    13.
 Leave Link  302 at Fri Jul  9 19:20:03 2021, MaxMem=  4194304000 cpu:        17.1
 (Enter /home/minenky/programs//g09/l303.exe)
 DipDrv:  MaxL=1.
 Leave Link  303 at Fri Jul  9 19:20:04 2021, MaxMem=  4194304000 cpu:         1.8
 (Enter /home/minenky/programs//g09/l401.exe)
 Initial guess from the checkpoint file:  "m1_00_78-79-50_C5H8_wB97XD.chk"
 B after Tr=     0.000000    0.000000    0.000000
         Rot=    1.000000    0.000000    0.000000   -0.000421 Ang=  -0.05 deg.
 Guess basis will be translated and rotated to current coordinates.
 JPrj=2 DoOrth=T DoCkMO=T.
 Initial guess orbital symmetries:
       Occupied  (A') (A') (A') (A') (A') (A') (A') (A') (A') (A')
                 (A') (A') (A") (A') (A') (A') (A') (A") (A")
       Virtual   (A') (A') (A') (A') (A') (A') (A') (A') (A') (A')
                 (A') (A') (A') (A') (A') (A') (A') (A') (A') (A')
                 (A') (A') (A') (A') (A') (A') (A') (A') (A') (A')
                 (A') (A') (A') (A') (A') (A') (A') (A') (A') (A')
                 (A') (A') (A') (A') (A') (A') (A') (A') (A') (A')
                 (A') (A') (A') (A') (A') (A') (A') (A') (A') (A')
                 (A') (A') (A') (A') (A') (A') (A') (A') (A') (A')
                 (A') (A') (A') (A') (A') (A') (A') (A') (A') (A')
                 (A') (A') (A') (A') (A') (A') (A') (A') (A') (A')
                 (A') (A') (A') (A') (A') (A') (A') (A') (A') (A')
                 (A') (A') (A') (A') (A') (A') (A') (A') (A') (A')
                 (A') (A') (A') (A') (A') (A') (A') (A') (A') (A')
                 (A') (A') (A') (A') (A') (A") (A") (A") (A") (A")
                 (A") (A") (A") (A") (A") (A") (A") (A") (A") (A")
                 (A") (A") (A") (A") (A") (A") (A") (A") (A") (A")
                 (A") (A") (A") (A") (A") (A") (A") (A") (A") (A")
                 (A") (A") (A") (A") (A") (A") (A") (A") (A") (A")
                 (A") (A") (A") (A") (A") (A") (A") (A") (A") (A")
                 (A") (A") (A") (A")
 The electronic state of the initial guess is 1-A'.
 Leave Link  401 at Fri Jul  9 19:20:04 2021, MaxMem=  4194304000 cpu:         2.7
 (Enter /home/minenky/programs//g09/l502.exe)
 Closed shell SCF:
 Using DIIS extrapolation, IDIIS=  1040.
 Integral symmetry usage will be decided dynamically.
 Keep R1 ints in memory in symmetry-blocked form, NReq=648693294.
 IVT=      309404 IEndB=      309404 NGot=  4194304000 MDV=  4084160335
 LenX=  4084160335 LenY=  4084107910
 Requested convergence on RMS density matrix=1.00D-08 within 380 cycles.
 Requested convergence on MAX density matrix=1.00D-06.
 Requested convergence on             energy=1.00D-06.
 No special actions if energy rises.
 FoFCou: FMM=F IPFlag=           0 FMFlag=           0 FMFlg1=           0
         NFxFlg=           0 DoJE=F BraDBF=F KetDBF=F FulRan=T
         wScrn=  0.000000 ICntrl=     600 IOpCl=  0 I1Cent=           0 NGrid=           0
         NMat0=    1 NMatS0=  20706 NMatT0=    0 NMatD0=    1 NMtDS0=    0 NMtDT0=    0
 Petite list used in FoFCou.

 Cycle   1  Pass 1  IDiag  1:
 E= -195.312921374694    
 DIIS: error= 3.62D-04 at cycle   1 NSaved=   1.
 NSaved= 1 IEnMin= 1 EnMin= -195.312921374694     IErMin= 1 ErrMin= 3.62D-04
 ErrMax= 3.62D-04  0.00D+00 EMaxC= 1.00D-01 BMatC= 3.81D-05 BMatP= 3.81D-05
 IDIUse=3 WtCom= 9.96D-01 WtEn= 3.62D-03
 Coeff-Com:  0.100D+01
 Coeff-En:   0.100D+01
 Coeff:      0.100D+01
 Gap=     0.858 Goal=   None    Shift=    0.000
 RMSDP=3.87D-05 MaxDP=9.24D-04              OVMax= 1.58D-03

 Cycle   2  Pass 1  IDiag  1:
 E= -195.312949560985     Delta-E=       -0.000028186291 Rises=F Damp=F
 DIIS: error= 7.32D-05 at cycle   2 NSaved=   2.
 NSaved= 2 IEnMin= 2 EnMin= -195.312949560985     IErMin= 2 ErrMin= 7.32D-05
 ErrMax= 7.32D-05  0.00D+00 EMaxC= 1.00D-01 BMatC= 1.71D-06 BMatP= 3.81D-05
 IDIUse=1 WtCom= 1.00D+00 WtEn= 0.00D+00
 Coeff-Com:  0.350D-01 0.965D+00
 Coeff:      0.350D-01 0.965D+00
 Gap=     0.350 Goal=   None    Shift=    0.000
 RMSDP=8.85D-06 MaxDP=1.84D-04 DE=-2.82D-05 OVMax= 5.52D-04

 Cycle   3  Pass 1  IDiag  1:
 E= -195.312950997645     Delta-E=       -0.000001436660 Rises=F Damp=F
 DIIS: error= 8.69D-05 at cycle   3 NSaved=   3.
 NSaved= 3 IEnMin= 3 EnMin= -195.312950997645     IErMin= 2 ErrMin= 7.32D-05
 ErrMax= 8.69D-05  0.00D+00 EMaxC= 1.00D-01 BMatC= 5.76D-07 BMatP= 1.71D-06
 IDIUse=1 WtCom= 1.00D+00 WtEn= 0.00D+00
 Coeff-Com: -0.249D-01 0.340D+00 0.685D+00
 Coeff:     -0.249D-01 0.340D+00 0.685D+00
 Gap=     0.350 Goal=   None    Shift=    0.000
 RMSDP=3.14D-06 MaxDP=1.01D-04 DE=-1.44D-06 OVMax= 3.53D-04

 Cycle   4  Pass 1  IDiag  1:
 E= -195.312951587277     Delta-E=       -0.000000589632 Rises=F Damp=F
 DIIS: error= 3.46D-05 at cycle   4 NSaved=   4.
 NSaved= 4 IEnMin= 4 EnMin= -195.312951587277     IErMin= 4 ErrMin= 3.46D-05
 ErrMax= 3.46D-05  0.00D+00 EMaxC= 1.00D-01 BMatC= 5.87D-08 BMatP= 5.76D-07
 IDIUse=1 WtCom= 1.00D+00 WtEn= 0.00D+00
 Coeff-Com: -0.899D-02 0.293D-01 0.245D+00 0.735D+00
 Coeff:     -0.899D-02 0.293D-01 0.245D+00 0.735D+00
 Gap=     0.350 Goal=   None    Shift=    0.000
 RMSDP=1.07D-06 MaxDP=3.11D-05 DE=-5.90D-07 OVMax= 1.44D-04

 Cycle   5  Pass 1  IDiag  1:
 E= -195.312951651592     Delta-E=       -0.000000064315 Rises=F Damp=F
 DIIS: error= 1.01D-05 at cycle   5 NSaved=   5.
 NSaved= 5 IEnMin= 5 EnMin= -195.312951651592     IErMin= 5 ErrMin= 1.01D-05
 ErrMax= 1.01D-05  0.00D+00 EMaxC= 1.00D-01 BMatC= 8.52D-09 BMatP= 5.87D-08
 IDIUse=1 WtCom= 1.00D+00 WtEn= 0.00D+00
[...]
               36            37            38            39 
     36  0.233902D-01
     37  0.000000D+00  0.349413D+00
     38  0.000000D+00 -0.627271D-01  0.676038D-01
     39  0.276192D-02  0.000000D+00  0.000000D+00  0.234572D-01
 FormGI is forming the generalized inverse of G from B-inverse, IUseBI=4.
 Leave Link  716 at Fri Jul  9 19:24:50 2021, MaxMem=  4194304000 cpu:         8.0
 (Enter /home/minenky/programs//g09/l103.exe)

 GradGradGradGradGradGradGradGradGradGradGradGradGradGradGradGradGradGrad
 Berny optimization.
 Red2BG is reusing G-inverse.
 Internal  Forces:  Max     0.000004043 RMS     0.000000973
 Search for a local minimum.
 Step number   1 out of a maximum of    2
 All quantities printed in internal units (Hartrees-Bohrs-Radians)
 Second derivative matrix not updated -- analytic derivatives used.
 ITU=  0
     Eigenvalues ---    0.00293   0.00771   0.01881   0.02421   0.03007
     Eigenvalues ---    0.03271   0.03914   0.04157   0.05698   0.05871
     Eigenvalues ---    0.10538   0.10626   0.11462   0.12307   0.12787
     Eigenvalues ---    0.13353   0.14408   0.14653   0.18943   0.19651
     Eigenvalues ---    0.24025   0.32807   0.33677   0.34369   0.34937
     Eigenvalues ---    0.35480   0.35780   0.36300   0.36395   0.36550
     Eigenvalues ---    0.37478   0.62928   0.63720
 Angle between quadratic step and forces=  32.75 degrees.
 Linear search not attempted -- first point.
 Iteration  1 RMS(Cart)=  0.00000761 RMS(Int)=  0.00000000
 Iteration  2 RMS(Cart)=  0.00000000 RMS(Int)=  0.00000000
 ITry= 1 IFail=0 DXMaxC= 2.03D-05 DCOld= 1.00D+10 DXMaxT= 3.00D-01 DXLimC= 3.00D+00 Rises=F
 ClnCor:  largest displacement from symmetrization is 4.19D-12 for atom    13.
 Variable       Old X    -DE/DX   Delta X   Delta X   Delta X     New X
                                 (Linear)    (Quad)   (Total)
    R1        2.51846   0.00000   0.00000   0.00000   0.00000   2.51846
    R2        2.04662   0.00000   0.00000   0.00000   0.00000   2.04662
    R3        2.04773   0.00000   0.00000   0.00000   0.00000   2.04773
    R4        2.77244   0.00000   0.00000  -0.00001  -0.00001   2.77243
    R5        2.83585   0.00000   0.00000  -0.00001  -0.00001   2.83584
    R6        2.51134   0.00000   0.00000   0.00000   0.00000   2.51134
    R7        2.05267   0.00000   0.00000   0.00000   0.00000   2.05267
    R8        2.05801   0.00000   0.00000   0.00000   0.00000   2.05801
    R9        2.06492   0.00000   0.00000   0.00000   0.00000   2.06492
   R10        2.06492   0.00000   0.00000   0.00000   0.00000   2.06492
   R11        2.04499   0.00000   0.00000   0.00000   0.00000   2.04499
   R12        2.04712   0.00000   0.00000   0.00000   0.00000   2.04713
    A1        2.12331   0.00000   0.00000   0.00000   0.00000   2.12332
    A2        2.11655   0.00000   0.00000   0.00000   0.00000   2.11655
    A3        2.04332   0.00000   0.00000  -0.00001  -0.00001   2.04332
    A4        2.08893   0.00000   0.00000  -0.00001  -0.00001   2.08892
    A5        2.12686   0.00000   0.00000   0.00000   0.00000   2.12686
    A6        2.06740   0.00000   0.00000   0.00000   0.00000   2.06741
    A7        2.19396   0.00000   0.00000  -0.00001  -0.00001   2.19395
    A8        2.01409   0.00000   0.00000   0.00000   0.00000   2.01410
    A9        2.07513   0.00000   0.00000   0.00001   0.00001   2.07514
   A10        1.93819   0.00000   0.00000   0.00001   0.00001   1.93820
   A11        1.93513   0.00000   0.00000   0.00000   0.00000   1.93513
   A12        1.93513   0.00000   0.00000   0.00000   0.00000   1.93513
   A13        1.89120   0.00000   0.00000   0.00000   0.00000   1.89120
   A14        1.89120   0.00000   0.00000   0.00000   0.00000   1.89120
   A15        1.87083   0.00000   0.00000  -0.00001  -0.00001   1.87082
   A16        2.11244   0.00000   0.00000   0.00001   0.00001   2.11245
   A17        2.13292   0.00000   0.00000   0.00000   0.00000   2.13292
   A18        2.03782   0.00000   0.00000  -0.00001  -0.00001   2.03781
    D1        3.14159   0.00000   0.00000   0.00000   0.00000   3.14159
    D2        0.00000   0.00000   0.00000   0.00000   0.00000   0.00000
    D3        0.00000   0.00000   0.00000   0.00000   0.00000   0.00000
    D4        3.14159   0.00000   0.00000   0.00000   0.00000   3.14159
    D5        3.14159   0.00000   0.00000   0.00000   0.00000   3.14159
    D6        0.00000   0.00000   0.00000   0.00000   0.00000   0.00000
    D7        0.00000   0.00000   0.00000   0.00000   0.00000   0.00000
    D8        3.14159   0.00000   0.00000   0.00000   0.00000   3.14159
    D9        0.00000   0.00000   0.00000   0.00000   0.00000   0.00000
   D10        2.10360   0.00000   0.00000   0.00000   0.00000   2.10361
   D11       -2.10360   0.00000   0.00000   0.00000   0.00000  -2.10361
   D12        3.14159   0.00000   0.00000   0.00000   0.00000   3.14159
   D13       -1.03799   0.00000   0.00000   0.00000   0.00000  -1.03799
   D14        1.03799   0.00000   0.00000   0.00000   0.00000   1.03799
   D15        3.14159   0.00000   0.00000   0.00000   0.00000   3.14159
   D16        0.00000   0.00000   0.00000   0.00000   0.00000   0.00000
   D17        0.00000   0.00000   0.00000   0.00000   0.00000   0.00000
   D18        3.14159   0.00000   0.00000   0.00000   0.00000   3.14159
         Item               Value     Threshold  Converged?
 Maximum Force            0.000004     0.000015     YES
 RMS     Force            0.000001     0.000010     YES
 Maximum Displacement     0.000020     0.000060     YES
 RMS     Displacement     0.000008     0.000040     YES
 Predicted change in Energy=-8.514623D-11
 Optimization completed.
    -- Stationary point found.
                           ----------------------------
                           !   Optimized Parameters   !
                           ! (Angstroms and Degrees)  !
 --------------------------                            --------------------------
 ! Name  Definition              Value          Derivative Info.                !
 --------------------------------------------------------------------------------
 ! R1    R(1,2)                  1.3327         -DE/DX =    0.0                 !
 ! R2    R(1,4)                  1.083          -DE/DX =    0.0                 !
 ! R3    R(1,5)                  1.0836         -DE/DX =    0.0                 !
 ! R4    R(2,3)                  1.4671         -DE/DX =    0.0                 !
 ! R5    R(2,6)                  1.5007         -DE/DX =    0.0                 !
 ! R6    R(3,10)                 1.3289         -DE/DX =    0.0                 !
 ! R7    R(3,11)                 1.0862         -DE/DX =    0.0                 !
 ! R8    R(6,7)                  1.0891         -DE/DX =    0.0                 !
 ! R9    R(6,8)                  1.0927         -DE/DX =    0.0                 !
 ! R10   R(6,9)                  1.0927         -DE/DX =    0.0                 !
 ! R11   R(10,12)                1.0822         -DE/DX =    0.0                 !
 ! R12   R(10,13)                1.0833         -DE/DX =    0.0                 !
 ! A1    A(2,1,4)              121.6568         -DE/DX =    0.0                 !
 ! A2    A(2,1,5)              121.2694         -DE/DX =    0.0                 !
 ! A3    A(4,1,5)              117.0737         -DE/DX =    0.0                 !
 ! A4    A(1,2,3)              119.6866         -DE/DX =    0.0                 !
 ! A5    A(1,2,6)              121.8599         -DE/DX =    0.0                 !
 ! A6    A(3,2,6)              118.4535         -DE/DX =    0.0                 !
 ! A7    A(2,3,10)             125.7046         -DE/DX =    0.0                 !
 ! A8    A(2,3,11)             115.3991         -DE/DX =    0.0                 !
 ! A9    A(10,3,11)            118.8963         -DE/DX =    0.0                 !
 ! A10   A(2,6,7)              111.0502         -DE/DX =    0.0                 !
 ! A11   A(2,6,8)              110.8747         -DE/DX =    0.0                 !
 ! A12   A(2,6,9)              110.8747         -DE/DX =    0.0                 !
 ! A13   A(7,6,8)              108.358          -DE/DX =    0.0                 !
 ! A14   A(7,6,9)              108.358          -DE/DX =    0.0                 !
 ! A15   A(8,6,9)              107.1905         -DE/DX =    0.0                 !
 ! A16   A(3,10,12)            121.0341         -DE/DX =    0.0                 !
 ! A17   A(3,10,13)            122.2074         -DE/DX =    0.0                 !
 ! A18   A(12,10,13)           116.7585         -DE/DX =    0.0                 !
 ! D1    D(4,1,2,3)            180.0            -DE/DX =    0.0                 !
 ! D2    D(4,1,2,6)              0.0            -DE/DX =    0.0                 !
 ! D3    D(5,1,2,3)              0.0            -DE/DX =    0.0                 !
 ! D4    D(5,1,2,6)            180.0            -DE/DX =    0.0                 !
 ! D5    D(1,2,3,10)           180.0            -DE/DX =    0.0                 !
 ! D6    D(1,2,3,11)             0.0            -DE/DX =    0.0                 !
 ! D7    D(6,2,3,10)             0.0            -DE/DX =    0.0                 !
 ! D8    D(6,2,3,11)           180.0            -DE/DX =    0.0                 !
 ! D9    D(1,2,6,7)              0.0            -DE/DX =    0.0                 !
 ! D10   D(1,2,6,8)            120.5276         -DE/DX =    0.0                 !
 ! D11   D(1,2,6,9)           -120.5276         -DE/DX =    0.0                 !
 ! D12   D(3,2,6,7)            180.0            -DE/DX =    0.0                 !
 ! D13   D(3,2,6,8)            -59.4724         -DE/DX =    0.0                 !
 ! D14   D(3,2,6,9)             59.4724         -DE/DX =    0.0                 !
 ! D15   D(2,3,10,12)          180.0            -DE/DX =    0.0                 !
 ! D16   D(2,3,10,13)            0.0            -DE/DX =    0.0                 !
 ! D17   D(11,3,10,12)           0.0            -DE/DX =    0.0                 !
 ! D18   D(11,3,10,13)         180.0            -DE/DX =    0.0                 !
 --------------------------------------------------------------------------------
 GradGradGradGradGradGradGradGradGradGradGradGradGradGradGradGradGradGrad

 Leave Link  103 at Fri Jul  9 19:24:51 2021, MaxMem=  4194304000 cpu:        17.1
 (Enter /home/minenky/programs//g09/l9999.exe)
 1\1\GINC-CN514-06-R\Freq\RwB97XD\def2TZVP\C5H8\MINENKY\09-Jul-2021\0\\
 #P Geom=AllCheck Guess=TCheck SCRF=Check GenChk RwB97XD/def2TZVP Freq\
 \The PBEPBE optimization and frequencies\\0,1\C,-0.5833527747,1.724216
 0259,0.\C,0.0011983247,0.526544934,0.\C,-0.8255066709,-0.6854675652,0.
 \H,-0.0041993307,2.6393770703,0.\H,-1.6624125153,1.8234376741,0.\C,1.4
 940662218,0.3737430886,0.\H,1.9866956018,1.3450055823,0.\H,1.828595120
 8,-0.1818193438,0.8794589614\H,1.8285951208,-0.1818193438,-0.879458961
 4\C,-0.371027599,-1.9342859278,0.\H,-1.8986580253,-0.5174455179,0.\H,-
 1.0515843802,-2.7756610713,0.\H,0.6877599061,-2.1633886054,0.\\Version
 =AM64L-G09RevD.01\State=1-A'\HF=-195.3129548\RMSD=2.846e-09\RMSF=1.388
 e-06\ZeroPoint=0.1142693\Thermal=0.1200564\Dipole=0.1050361,-0.0064549
 ,0.\DipoleDeriv=-0.0098591,0.0179648,0.,0.1077892,-0.2104392,0.,0.,0.,
 -0.3157236,0.2417788,-0.0206416,0.,-0.0440561,0.146093,0.,0.,0.,-0.097
 8361,0.0456295,0.0664155,0.,-0.0233629,0.2788414,0.,0.,0.,-0.1296929,-
 0.0026921,-0.1025095,0.,-0.0416924,-0.0382089,0.,0.,0.,0.138329,-0.104
 3832,0.0276479,0.,-0.0287719,0.0550647,0.,0.,0.,0.159425,-0.0712658,-0
 .0041122,0.,0.0236088,0.0220167,0.,0.,0.,0.1360847,0.0100822,-0.031238
 1,0.,-0.1187541,-0.0901947,0.,0.,0.,0.0817847,0.0048112,0.0352481,-0.0
 024202,0.0527773,0.0173701,0.0834272,-0.0558429,0.081808,-0.0413543,0.
 0048112,0.0352481,0.0024202,0.0527773,0.0173701,-0.0834272,0.0558429,-
 0.081808,-0.0413543,0.0694556,0.0396543,0.,0.0361785,-0.2604262,0.,0.,
 0.,-0.3149386,-0.1096483,-0.0095159,0.,0.0336516,0.0193682,0.,0.,0.,0.
 1331077,-0.0023933,-0.0935698,0.,-0.0457099,-0.0276436,0.,0.,0.,0.1459
 987,-0.0763267,0.0394083,0.,-0.0044355,0.0707884,0.,0.,0.,0.1461699\Po
 lar=58.8727628,-6.542696,90.8133838,0.,0.,40.4226751\PG=CS [SG(C5H6),X
 (H2)]\NImag=0\\0.69343780,-0.07159897,0.81738249,0.,0.,0.11002489,-0.1
 9792090,0.17261854,0.,0.61726890,0.16528498,-0.45329320,0.,-0.11823586
 ,0.77863623,0.,0.,-0.05704049,0.,0.,0.17738017,0.01405969,0.00940378,0
 .,-0.16030498,-0.07359923,0.,0.67209132,-0.01271645,-0.05023155,0.,-0.
 06683324,-0.17455977,0.,-0.11383704,0.80415822,0.,0.,0.00778889,0.,0.,
 -0.07200792,0.,0.,0.13925451,-0.14294146,-0.13347930,0.,0.00909296,0.0
 1317906,0.,-0.00142532,0.00152174,0.,0.14294317,-0.12729610,-0.2567592
 2,0.,-0.01870072,-0.01960266,0.,0.00417674,-0.00303313,0.,0.13946164,0
 .27385649,0.,0.,-0.03487716,0.,0.,0.00628567,0.,0.,0.01202162,0.,0.,0.
 02291330,-0.33841489,0.02434870,0.,-0.01233400,-0.00169785,0.,0.000814
 86,-0.00238326,0.,-0.01014605,0.00376514,0.,0.35842030,0.01861944,-0.0
 5976059,0.,0.02942495,0.00110190,0.,0.00242062,0.00070669,0.,-0.023417
 69,0.00503929,0.,-0.02755932,0.05707580,0.,0.,-0.03438996,0.,0.,0.0039
 1005,0.,0.,-0.00780447,0.,0.,0.00236138,0.,0.,0.02314473,-0.02051952,0
 .00695101,0.,-0.21768040,0.01391522,0.,-0.02199636,-0.00404823,0.,0.00
 133931,-0.00181377,0.,0.00083005,0.00014077,0.,0.49700493,0.03367673,-
 0.00219592,0.,0.00633171,-0.08983041,0.,-0.02804958,0.00463624,0.,0.00
 161474,0.00073168,0.,0.00200205,-0.00383293,0.,0.02054800,0.59267616,0
 .,0.,0.00859906,0.,0.,-0.07691958,0.,0.,0.00385272,0.,0.,-0.00774251,0
 .,0.,0.01233522,0.,0.,0.54288093,0.00139366,-0.00147592,0.,-0.01506529
 ,-0.03146617,0.,-0.00574901,0.00243956,0.,-0.00019846,0.00134605,0.,0.
 00059317,0.00016845,0.,-0.09995438,-0.10617367,0.,0.11133493,0.0018611
 4,0.00108736,0.,0.00287602,0.00344842,0.,0.00130414,0.00014639,0.,0.00
 005838,0.00029249,0.,0.00002208,0.00023072,0.,-0.11027846,-0.26815268,
 0.,0.11712302,0.28837217,0.,0.,-0.00045715,0.,0.,-0.00165074,0.,0.,0.0
 0137104,0.,0.,0.00038385,0.,0.,-0.00019233,0.,0.,-0.04712445,0.,0.,0.0
 4509138,-0.00397615,-0.00138115,0.00046268,-0.01034035,0.01909601,-0.0
 2810859,0.00063769,0.00098933,0.00053944,-0.00001372,0.00009043,-0.000
 98932,-0.00049584,0.00076090,0.00222522,-0.06960223,0.03822915,-0.0648
 1599,0.00406897,-0.00633430,0.01250284,0.07687543,0.00098552,0.0005300
 6,0.00005565,0.00408833,-0.00348472,0.00157358,-0.00063265,-0.00048646
 ,-0.00004165,0.00001554,0.00027021,0.00075087,0.00032102,-0.00007234,-
 0.00075420,0.03696016,-0.11398114,0.10975131,0.00934149,-0.01295851,0.
 02329010,-0.04442703,0.12177889,0.00004524,-0.00068010,0.00001176,0.00
 023884,-0.00117938,0.00252903,0.00000150,0.00058504,0.00027420,0.00002
 850,-0.00006440,0.00012658,0.00009900,-0.00001425,-0.00027872,-0.06416
 400,0.10915066,-0.21871331,0.00123285,-0.00143276,0.00122657,0.0703055
 8,-0.12002379,0.23631840,-0.00397615,-0.00138115,-0.00046268,-0.010340
 35,0.01909601,0.02810859,0.00063769,0.00098933,-0.00053944,-0.00001372
 ,0.00009043,0.00098932,-0.00049584,0.00076090,-0.00222522,-0.06960223,
 0.03822915,0.06481599,0.00406897,-0.00633430,-0.01250284,0.00267445,-0
 .00578474,-0.00783049,0.07687543,0.00098552,0.00053006,-0.00005565,0.0
 0408833,-0.00348472,-0.00157358,-0.00063265,-0.00048646,0.00004165,0.0
 0001554,0.00027021,-0.00075087,0.00032102,-0.00007234,0.00075420,0.036
 96016,-0.11398114,-0.10975131,0.00934149,-0.01295851,-0.02329010,-0.00
 578474,0.00871885,0.01405079,-0.04442703,0.12177889,-0.00004524,0.0006
 8010,0.00001176,-0.00023884,0.00117938,0.00252903,-0.00000150,-0.00058
 504,0.00027420,-0.00002850,0.00006440,0.00012658,-0.00009900,0.0000142
 5,-0.00027872,0.06416400,-0.10915066,-0.21871331,-0.00123285,0.0014327
 6,0.00122657,0.00783049,-0.01405079,-0.02133481,-0.07030558,0.12002379
 ,0.23631840,-0.00300318,-0.00555909,0.,0.01653272,-0.01213201,0.,-0.17
 540568,0.13963587,0.,0.00091503,-0.00132320,0.,0.00047213,-0.00044734,
 0.,0.00007139,-0.00164637,0.,-0.00016912,0.00016843,0.,0.00007754,-0.0
 0057521,-0.00041635,0.00007754,-0.00057521,0.00041635,0.67400348,-0.00
 655310,0.00270953,0.,0.00519552,-0.04258364,0.,0.15022396,-0.49864331,
 0.,0.00051262,-0.00082725,0.,0.00027339,0.00016557,0.,0.00175419,-0.00
 106576,0.,0.00097694,-0.00016123,0.,-0.00071776,0.00022671,0.00039774,
 -0.00071776,0.00022671,-0.00039774,-0.06348831,0.83881404,0.,0.,0.0017
 1685,0.,0.,0.00705206,0.,0.,-0.05425178,0.,0.,-0.00049664,0.,0.,0.0002
 9409,0.,0.,-0.00121403,0.,0.,0.00013720,0.00001952,-0.00016717,0.00009
 780,-0.00001952,0.00016717,0.00009780,0.,0.,0.11097267,0.00127692,0.00
 126161,0.,-0.01726729,0.00541009,0.,-0.32565040,0.04027968,0.,0.000425
 88,-0.00005891,0.,0.00068623,-0.00082105,0.,0.00048383,-0.00333641,0.,
 -0.00097274,0.00003492,0.,0.00011138,0.00010472,-0.00003463,0.00011138
 ,0.00010472,0.00003463,-0.00836845,0.00017953,0.,0.34695740,-0.0017965
 3,0.00085936,0.,-0.02554248,0.00474506,0.,0.03934556,-0.06232909,0.,0.
 00043038,0.00019742,0.,0.00067536,-0.00076528,0.,-0.00140482,-0.004429
 72,0.,-0.00143808,0.00025179,0.,0.00017805,0.00001498,-0.00015091,0.00
 017805,0.00001498,0.00015091,0.03274676,-0.00326390,0.,-0.04488474,0.0
 6868335,0.,0.,-0.00120851,0.,0.,0.00306293,0.,0.,-0.04195354,0.,0.,-0.
 00010824,0.,0.,0.00030223,0.,0.,0.00225489,0.,0.,0.00034160,0.00044158
 ,0.00003704,-0.00003121,-0.00044158,-0.00003704,-0.00003121,0.,0.,0.00
 665863,0.,0.,0.02718972,0.00057725,0.00015209,0.,-0.00101101,0.0022058
 0,0.,0.01039040,0.01245573,0.,-0.00003052,0.00017432,0.,-0.00000630,-0
 .00001172,0.,-0.00026631,-0.00021534,0.,0.00021097,-0.00021895,0.,0.00
 016328,0.00007674,0.00034460,0.00016328,0.00007674,-0.00034460,-0.1760
 4132,-0.14490186,0.,0.00126854,-0.00006225,0.,0.17714528,-0.00116821,-
 0.00091148,0.,0.00392649,-0.00229632,0.,-0.02183001,-0.01951180,0.,0.0
 0019177,-0.00041645,0.,0.00008101,0.00002195,0.,0.00048284,0.00020808,
 0.,-0.00014300,0.00006154,0.,-0.00004360,0.00003208,-0.00012344,-0.000
 04360,0.00003208,0.00012344,-0.13920826,-0.22617143,0.,0.00027417,0.00
 075386,0.,0.15179042,0.24105669,0.,0.,-0.00036994,0.,0.,0.01252838,0.,
 0.,0.00536789,0.,0.,-0.00143690,0.,0.,0.00050383,0.,0.,-0.00032594,0.,
 0.,0.00011208,0.00001031,-0.00001310,0.00005829,-0.00001031,0.00001310
 ,0.00005829,0.,0.,-0.03482964,0.,0.,-0.00781841,0.,0.,0.02339015,0.000
 00693,0.00013984,0.,-0.00063002,-0.00105604,0.,-0.00809988,0.00150699,
 0.,0.00005289,0.00008796,0.,0.00007617,-0.00003892,0.,-0.00010808,-0.0
 0121015,0.,0.00043831,-0.00028210,0.,-0.00018046,-0.00047389,0.0001493
 6,-0.00018046,-0.00047389,-0.00014936,-0.32916209,0.05726263,0.,0.0009
 3731,0.00157474,0.,-0.01256354,0.00568999,0.,0.34941293,-0.00028398,0.
 00005310,0.,0.00076241,0.00120384,0.,0.03170636,-0.00036597,0.,-0.0001
 0442,-0.00001908,0.,-0.00016934,0.00016157,0.,-0.00016707,-0.00078246,
 0.,-0.00004014,0.00034006,0.,-0.00065530,-0.00058860,-0.00051519,-0.00
 065530,-0.00058860,0.00051519,0.05240396,-0.06942604,0.,0.00145167,-0.
 00473280,0.,-0.02152173,0.00714119,0.,-0.06272715,0.06760380,0.,0.,0.0
 0018998,0.,0.,-0.00765860,0.,0.,0.00581263,0.,0.,0.00044248,0.,0.,0.00
 009267,0.,0.,0.00083031,0.,0.,-0.00046563,-0.00042377,-0.00040783,-0.0
 0028457,0.00042377,0.00040783,-0.00028457,0.,0.,-0.03623501,0.,0.,0.01
 134114,0.,0.,0.00276192,0.,0.,0.02345725\\0.00000053,0.00000020,0.,-0.
 00000321,0.00000424,0.,-0.00000085,-0.00000191,0.,-0.00000030,-0.00000
 008,0.,-0.00000019,-0.00000109,0.,0.00000381,-0.00000129,0.,-0.0000005
 5,0.00000115,0.,-0.00000072,0.00000113,-0.00000019,-0.00000072,0.00000
 113,0.00000019,0.00000251,-0.00000328,0.,0.00000038,-0.00000096,0.,0.0
 0000015,0.,0.,-0.00000082,0.00000076,0.\\\@


 ... IT CAN BE VERY DIFFICULT, IN THESE COMPLEX TIMES,
 TO UNDERSTAND JUST HOW SCIENTISTS DO WHAT THEY DO.

                     DON MOSER IN THE FEBRUARY 1979 SMITHSONIAN
 Job cpu time:       0 days  0 hours 41 minutes 54.3 seconds.
 File lengths (MBytes):  RWF=     46 Int=      0 D2E=      0 Chk=      4 Scr=      1
 Normal termination of Gaussian 09 at Fri Jul  9 19:24:51 2021.
