 Entering Gaussian System, Link 0=g09
 Initial command:
 /home/minenky/programs//g09/l1.exe "/local/scratch/minenky/m1_00_120835-96-3-C32H16_wB97XD/Gau-340800.inp" -scrdir="/local/scratch/minenky/m1_00_120835-96-3-C32H16_wB97XD/"
 Entering Link 1 = /home/minenky/programs//g09/l1.exe PID=    340801.
  
 Copyright (c) 1988,1990,1992,1993,1995,1998,2003,2009,2013,
            Gaussian, Inc.  All Rights Reserved.
  
 This is part of the Gaussian(R) 09 program.  It is based on
 the Gaussian(R) 03 system (copyright 2003, Gaussian, Inc.),
 the Gaussian(R) 98 system (copyright 1998, Gaussian, Inc.),
 the Gaussian(R) 94 system (copyright 1995, Gaussian, Inc.),
 the Gaussian 92(TM) system (copyright 1992, Gaussian, Inc.),
 the Gaussian 90(TM) system (copyright 1990, Gaussian, Inc.),
 the Gaussian 88(TM) system (copyright 1988, Gaussian, Inc.),
 the Gaussian 86(TM) system (copyright 1986, Carnegie Mellon
 University), and the Gaussian 82(TM) system (copyright 1983,
 Carnegie Mellon University). Gaussian is a federally registered
 trademark of Gaussian, Inc.
  
 This software contains proprietary and confidential information,
 including trade secrets, belonging to Gaussian, Inc.
  
 This software is provided under written license and may be
 used, copied, transmitted, or stored only in accord with that
 written license.
  
 The following legend is applicable only to US Government
 contracts under FAR:
  
                    RESTRICTED RIGHTS LEGEND
  
 Use, reproduction and disclosure by the US Government is
 subject to restrictions as set forth in subparagraphs (a)
 and (c) of the Commercial Computer Software - Restricted
 Rights clause in FAR 52.227-19.
  
 Gaussian, Inc.
 340 Quinnipiac St., Bldg. 40, Wallingford CT 06492
  
  
 ---------------------------------------------------------------
 Warning -- This program may not be used in any manner that
 competes with the business of Gaussian, Inc. or will provide
 assistance to any competitor of Gaussian, Inc.  The licensee
 of this program is prohibited from giving any competitor of
 Gaussian, Inc. access to this program.  By using this program,
 the user acknowledges that Gaussian, Inc. is engaged in the
 business of creating and licensing software in the field of
 computational chemistry and represents and warrants to the
 licensee that it is not a competitor of Gaussian, Inc. and that
 it will not use this program in any manner prohibited above.
 ---------------------------------------------------------------
  

 Cite this work as:
 Gaussian 09, Revision D.01,
 M. J. Frisch, G. W. Trucks, H. B. Schlegel, G. E. Scuseria, 
 M. A. Robb, J. R. Cheeseman, G. Scalmani, V. Barone, B. Mennucci, 
 G. A. Petersson, H. Nakatsuji, M. Caricato, X. Li, H. P. Hratchian, 
 A. F. Izmaylov, J. Bloino, G. Zheng, J. L. Sonnenberg, M. Hada, 
 M. Ehara, K. Toyota, R. Fukuda, J. Hasegawa, M. Ishida, T. Nakajima, 
 Y. Honda, O. Kitao, H. Nakai, T. Vreven, J. A. Montgomery, Jr., 
 J. E. Peralta, F. Ogliaro, M. Bearpark, J. J. Heyd, E. Brothers, 
 K. N. Kudin, V. N. Staroverov, T. Keith, R. Kobayashi, J. Normand, 
 K. Raghavachari, A. Rendell, J. C. Burant, S. S. Iyengar, J. Tomasi, 
 M. Cossi, N. Rega, J. M. Millam, M. Klene, J. E. Knox, J. B. Cross, 
 V. Bakken, C. Adamo, J. Jaramillo, R. Gomperts, R. E. Stratmann, 
 O. Yazyev, A. J. Austin, R. Cammi, C. Pomelli, J. W. Ochterski, 
 R. L. Martin, K. Morokuma, V. G. Zakrzewski, G. A. Voth, 
 P. Salvador, J. J. Dannenberg, S. Dapprich, A. D. Daniels, 
 O. Farkas, J. B. Foresman, J. V. Ortiz, J. Cioslowski, 
 and D. J. Fox, Gaussian, Inc., Wallingford CT, 2013.
 
 ******************************************
 Gaussian 09:  AM64L-G09RevD.01 24-Apr-2013
                27-Jul-2019 
 ******************************************
 %Mem=32000MB
 %NProcShared=16
 Will use up to   16 processors via shared memory.
 %Chk=m1_00_120835-96-3-C32H16_wB97XD
 ----------------------------------------------------------------------
 #P wB97XD/def2tzvp opt=(tight) freq integral(Grid=ultrafine) # SCF(Max
 Cycle=380) 5d 7f GFPrint
 ----------------------------------------------------------------------
 1/7=10,14=-1,18=20,19=15,26=4,38=1/1,3;
 2/9=110,12=2,17=6,18=5,40=1/2;
 3/5=44,7=101,8=11,11=2,16=1,24=100,25=1,30=1,71=1,74=-58,75=-5/1,2,3;
 4//1;
 5/5=2,7=380,38=5/2;
 6/7=2,8=2,9=2,10=2,28=1/1;
 7//1,2,3,16;
 1/7=10,14=-1,18=20,19=15,26=4/3(2);
 2/9=110/2;
 99//99;
 2/9=110/2;
 3/5=44,7=101,8=11,11=2,16=1,25=1,30=1,71=1,74=-58,75=-5/1,2,3;
 4/5=5,16=3,69=1/1;
 5/5=2,7=380,38=5/2;
 7//1,2,3,16;
 1/7=10,14=-1,18=20,19=15,26=4/3(-5);
 2/9=110/2;
 6/7=2,8=2,9=2,10=2,19=2,28=1/1;
 99/9=1/99;
 Leave Link    1 at Sat Jul 27 11:52:02 2019, MaxMem=  4194304000 cpu:         1.5
 (Enter /home/minenky/programs//g09/l101.exe)
 ---------------------------------------
 The PBEPBE optimization and frequencies
 ---------------------------------------
 Symbolic Z-matrix:
 Charge =  0 Multiplicity = 1
 C                     4.93154  -2.17566   0. 
 C                     5.62691  -0.97097   0. 
 C                     4.94704   0.23892   0. 
 C                     3.54646   0.2616    0. 
 C                     2.82051   1.49659   0. 
 C                     1.45572   1.52482   0. 
 C                    -1.43404   1.54527   0. 
 C                    -2.79911   1.53631   0. 
 C                    -0.70056   0.30051   0. 
 C                     0.70472   0.29057   0. 
 C                     1.3967   -0.94312   0. 
 C                     0.68866  -2.16797   0. 
 C                     1.43501  -3.40004   0. 
 C                     2.78698  -3.41185   0. 
 C                     3.53455  -2.18202   0. 
 C                     2.82934  -0.95594   0. 
 C                    -0.68298   2.80023   0. 
 C                     0.72252   2.79028   0. 
 C                     1.41427   4.00939   0. 
 C                     0.73341   5.21595   0. 
 C                    -0.65944   5.22583   0. 
 C                    -1.35736   4.02906   0. 
 C                    -3.54244   0.3117    0. 
 C                    -4.94318   0.30883   0. 
 C                    -5.64007  -0.89134   0. 
 C                    -4.9618   -2.10572   0. 
 C                    -2.84258  -0.91584   0. 
 C                    -3.56506  -2.13181   0. 
 C                    -2.83498  -3.37209   0. 
 C                    -1.48298  -3.3794    0. 
 C                    -0.71927  -2.15802   0. 
 C                    -1.40991  -0.92327   0. 
 H                     5.47847  -3.12529   0. 
 H                     6.72208  -0.97812   0. 
 H                     5.50373   1.18286   0. 
 H                     3.391     2.43958   0. 
 H                    -3.35624   2.48726   0. 
 H                     0.8594   -4.33851   0. 
 H                     3.34402  -4.35572   0. 
 H                     2.51512   3.99604   0. 
 H                     1.28906   6.15923   0. 
 H                    -1.20167   6.17689   0. 
 H                    -2.45829   4.03136   0. 
 H                    -5.48643   1.26055   0. 
 H                    -6.73523  -0.88305   0. 
 H                    -5.52207  -3.04755   0. 
 H                    -3.40535  -4.30797   0. 
 H                    -0.92072  -4.32593   0. 
 
 NAtoms=     48 NQM=       48 NQMF=       0 NMMI=      0 NMMIF=      0
                NMic=       0 NMicF=      0.
                    Isotopes and Nuclear Properties:
 (Nuclear quadrupole moments (NQMom) in fm**2, nuclear magnetic moments (NMagM)
  in nuclear magnetons)

  Atom         1           2           3           4           5           6           7           8           9          10
 IAtWgt=          12          12          12          12          12          12          12          12          12          12
 AtmWgt=  12.0000000  12.0000000  12.0000000  12.0000000  12.0000000  12.0000000  12.0000000  12.0000000  12.0000000  12.0000000
 NucSpn=           0           0           0           0           0           0           0           0           0           0
 AtZEff=   0.0000000   0.0000000   0.0000000   0.0000000   0.0000000   0.0000000   0.0000000   0.0000000   0.0000000   0.0000000
 NQMom=    0.0000000   0.0000000   0.0000000   0.0000000   0.0000000   0.0000000   0.0000000   0.0000000   0.0000000   0.0000000
 NMagM=    0.0000000   0.0000000   0.0000000   0.0000000   0.0000000   0.0000000   0.0000000   0.0000000   0.0000000   0.0000000
 AtZNuc=   6.0000000   6.0000000   6.0000000   6.0000000   6.0000000   6.0000000   6.0000000   6.0000000   6.0000000   6.0000000

  Atom        11          12          13          14          15          16          17          18          19          20
 IAtWgt=          12          12          12          12          12          12          12          12          12          12
 AtmWgt=  12.0000000  12.0000000  12.0000000  12.0000000  12.0000000  12.0000000  12.0000000  12.0000000  12.0000000  12.0000000
 NucSpn=           0           0           0           0           0           0           0           0           0           0
 AtZEff=   0.0000000   0.0000000   0.0000000   0.0000000   0.0000000   0.0000000   0.0000000   0.0000000   0.0000000   0.0000000
 NQMom=    0.0000000   0.0000000   0.0000000   0.0000000   0.0000000   0.0000000   0.0000000   0.0000000   0.0000000   0.0000000
 NMagM=    0.0000000   0.0000000   0.0000000   0.0000000   0.0000000   0.0000000   0.0000000   0.0000000   0.0000000   0.0000000
 AtZNuc=   6.0000000   6.0000000   6.0000000   6.0000000   6.0000000   6.0000000   6.0000000   6.0000000   6.0000000   6.0000000

  Atom        21          22          23          24          25          26          27          28          29          30
 IAtWgt=          12          12          12          12          12          12          12          12          12          12
 AtmWgt=  12.0000000  12.0000000  12.0000000  12.0000000  12.0000000  12.0000000  12.0000000  12.0000000  12.0000000  12.0000000
 NucSpn=           0           0           0           0           0           0           0           0           0           0
 AtZEff=   0.0000000   0.0000000   0.0000000   0.0000000   0.0000000   0.0000000   0.0000000   0.0000000   0.0000000   0.0000000
 NQMom=    0.0000000   0.0000000   0.0000000   0.0000000   0.0000000   0.0000000   0.0000000   0.0000000   0.0000000   0.0000000
 NMagM=    0.0000000   0.0000000   0.0000000   0.0000000   0.0000000   0.0000000   0.0000000   0.0000000   0.0000000   0.0000000
 AtZNuc=   6.0000000   6.0000000   6.0000000   6.0000000   6.0000000   6.0000000   6.0000000   6.0000000   6.0000000   6.0000000

  Atom        31          32          33          34          35          36          37          38          39          40
 IAtWgt=          12          12           1           1           1           1           1           1           1           1
 AtmWgt=  12.0000000  12.0000000   1.0078250   1.0078250   1.0078250   1.0078250   1.0078250   1.0078250   1.0078250   1.0078250
 NucSpn=           0           0           1           1           1           1           1           1           1           1
 AtZEff=   0.0000000   0.0000000   0.0000000   0.0000000   0.0000000   0.0000000   0.0000000   0.0000000   0.0000000   0.0000000
 NQMom=    0.0000000   0.0000000   0.0000000   0.0000000   0.0000000   0.0000000   0.0000000   0.0000000   0.0000000   0.0000000
 NMagM=    0.0000000   0.0000000   2.7928460   2.7928460   2.7928460   2.7928460   2.7928460   2.7928460   2.7928460   2.7928460
 AtZNuc=   6.0000000   6.0000000   1.0000000   1.0000000   1.0000000   1.0000000   1.0000000   1.0000000   1.0000000   1.0000000

  Atom        41          42          43          44          45          46          47          48
 IAtWgt=           1           1           1           1           1           1           1           1
 AtmWgt=   1.0078250   1.0078250   1.0078250   1.0078250   1.0078250   1.0078250   1.0078250   1.0078250
 NucSpn=           1           1           1           1           1           1           1           1
 AtZEff=   0.0000000   0.0000000   0.0000000   0.0000000   0.0000000   0.0000000   0.0000000   0.0000000
 NQMom=    0.0000000   0.0000000   0.0000000   0.0000000   0.0000000   0.0000000   0.0000000   0.0000000
 NMagM=    2.7928460   2.7928460   2.7928460   2.7928460   2.7928460   2.7928460   2.7928460   2.7928460
 AtZNuc=   1.0000000   1.0000000   1.0000000   1.0000000   1.0000000   1.0000000   1.0000000   1.0000000
 Leave Link  101 at Sat Jul 27 11:52:02 2019, MaxMem=  4194304000 cpu:         3.4
 (Enter /home/minenky/programs//g09/l103.exe)

 GradGradGradGradGradGradGradGradGradGradGradGradGradGradGradGradGradGrad
 Berny optimization.
 Initialization pass.
                           ----------------------------
                           !    Initial Parameters    !
                           ! (Angstroms and Degrees)  !
 --------------------------                            --------------------------
 ! Name  Definition              Value          Derivative Info.                !
 --------------------------------------------------------------------------------
 ! R1    R(1,2)                  1.391          estimate D2E/DX2                !
 ! R2    R(1,15)                 1.397          estimate D2E/DX2                !
 ! R3    R(1,33)                 1.0959         estimate D2E/DX2                !
 ! R4    R(2,3)                  1.3878         estimate D2E/DX2                !
 ! R5    R(2,34)                 1.0952         estimate D2E/DX2                !
 ! R6    R(3,4)                  1.4008         estimate D2E/DX2                !
 ! R7    R(3,35)                 1.0959         estimate D2E/DX2                !
 ! R8    R(4,5)                  1.4326         estimate D2E/DX2                !
 ! R9    R(4,16)                 1.413          estimate D2E/DX2                !
 ! R10   R(5,6)                  1.3651         estimate D2E/DX2                !
 ! R11   R(5,36)                 1.1021         estimate D2E/DX2                !
 ! R12   R(6,10)                 1.4448         estimate D2E/DX2                !
 ! R13   R(6,18)                 1.4625         estimate D2E/DX2                !
 ! R14   R(7,8)                  1.3651         estimate D2E/DX2                !
 ! R15   R(7,9)                  1.4448         estimate D2E/DX2                !
 ! R16   R(7,17)                 1.4625         estimate D2E/DX2                !
 ! R17   R(8,23)                 1.4326         estimate D2E/DX2                !
 ! R18   R(8,37)                 1.1021         estimate D2E/DX2                !
 ! R19   R(9,10)                 1.4053         estimate D2E/DX2                !
 ! R20   R(9,32)                 1.4145         estimate D2E/DX2                !
 ! R21   R(10,11)                1.4145         estimate D2E/DX2                !
 ! R22   R(11,12)                1.4148         estimate D2E/DX2                !
 ! R23   R(11,16)                1.4327         estimate D2E/DX2                !
 ! R24   R(12,13)                1.4405         estimate D2E/DX2                !
 ! R25   R(12,31)                1.408          estimate D2E/DX2                !
 ! R26   R(13,14)                1.352          estimate D2E/DX2                !
 ! R27   R(13,38)                1.1009         estimate D2E/DX2                !
 ! R28   R(14,15)                1.4392         estimate D2E/DX2                !
 ! R29   R(14,39)                1.096          estimate D2E/DX2                !
 ! R30   R(15,16)                1.4144         estimate D2E/DX2                !
 ! R31   R(17,18)                1.4055         estimate D2E/DX2                !
 ! R32   R(17,22)                1.4017         estimate D2E/DX2                !
 ! R33   R(18,19)                1.4017         estimate D2E/DX2                !
 ! R34   R(19,20)                1.3854         estimate D2E/DX2                !
 ! R35   R(19,40)                1.1009         estimate D2E/DX2                !
 ! R36   R(20,21)                1.3929         estimate D2E/DX2                !
 ! R37   R(20,41)                1.0948         estimate D2E/DX2                !
 ! R38   R(21,22)                1.3854         estimate D2E/DX2                !
 ! R39   R(21,42)                1.0948         estimate D2E/DX2                !
 ! R40   R(22,43)                1.1009         estimate D2E/DX2                !
 ! R41   R(23,24)                1.4008         estimate D2E/DX2                !
 ! R42   R(23,27)                1.413          estimate D2E/DX2                !
 ! R43   R(24,25)                1.3878         estimate D2E/DX2                !
 ! R44   R(24,44)                1.0959         estimate D2E/DX2                !
 ! R45   R(25,26)                1.391          estimate D2E/DX2                !
 ! R46   R(25,45)                1.0952         estimate D2E/DX2                !
 ! R47   R(26,28)                1.397          estimate D2E/DX2                !
 ! R48   R(26,46)                1.0959         estimate D2E/DX2                !
 ! R49   R(27,28)                1.4144         estimate D2E/DX2                !
 ! R50   R(27,32)                1.4327         estimate D2E/DX2                !
 ! R51   R(28,29)                1.4392         estimate D2E/DX2                !
 ! R52   R(29,30)                1.352          estimate D2E/DX2                !
 ! R53   R(29,47)                1.096          estimate D2E/DX2                !
 ! R54   R(30,31)                1.4405         estimate D2E/DX2                !
 ! R55   R(30,48)                1.1009         estimate D2E/DX2                !
 ! R56   R(31,32)                1.4148         estimate D2E/DX2                !
 ! A1    A(2,1,15)             120.2556         estimate D2E/DX2                !
 ! A2    A(2,1,33)             120.0659         estimate D2E/DX2                !
 ! A3    A(15,1,33)            119.6785         estimate D2E/DX2                !
 ! A4    A(1,2,3)              120.6727         estimate D2E/DX2                !
 ! A5    A(1,2,34)             119.6208         estimate D2E/DX2                !
 ! A6    A(3,2,34)             119.7065         estimate D2E/DX2                !
 ! A7    A(2,3,4)              120.2604         estimate D2E/DX2                !
 ! A8    A(2,3,35)             120.1374         estimate D2E/DX2                !
 ! A9    A(4,3,35)             119.6022         estimate D2E/DX2                !
 ! A10   A(3,4,5)              121.3754         estimate D2E/DX2                !
 ! A11   A(3,4,16)             119.57           estimate D2E/DX2                !
 ! A12   A(5,4,16)             119.0547         estimate D2E/DX2                !
 ! A13   A(4,5,6)              121.6328         estimate D2E/DX2                !
 ! A14   A(4,5,36)             118.379          estimate D2E/DX2                !
 ! A15   A(6,5,36)             119.9882         estimate D2E/DX2                !
 ! A16   A(5,6,10)             120.1337         estimate D2E/DX2                !
 ! A17   A(5,6,18)             121.273          estimate D2E/DX2                !
 ! A18   A(10,6,18)            118.5934         estimate D2E/DX2                !
 ! A19   A(8,7,9)              120.1325         estimate D2E/DX2                !
 ! A20   A(8,7,17)             121.2757         estimate D2E/DX2                !
 ! A21   A(9,7,17)             118.5919         estimate D2E/DX2                !
 ! A22   A(7,8,23)             121.6338         estimate D2E/DX2                !
 ! A23   A(7,8,37)             119.9884         estimate D2E/DX2                !
 ! A24   A(23,8,37)            118.3777         estimate D2E/DX2                !
 ! A25   A(7,9,10)             120.9143         estimate D2E/DX2                !
 ! A26   A(7,9,32)             119.3932         estimate D2E/DX2                !
 ! A27   A(10,9,32)            119.6925         estimate D2E/DX2                !
 ! A28   A(6,10,9)             120.9133         estimate D2E/DX2                !
 ! A29   A(6,10,11)            119.3932         estimate D2E/DX2                !
 ! A30   A(9,10,11)            119.6935         estimate D2E/DX2                !
 ! A31   A(10,11,12)           120.6814         estimate D2E/DX2                !
 ! A32   A(10,11,16)           119.8007         estimate D2E/DX2                !
 ! A33   A(12,11,16)           119.5179         estimate D2E/DX2                !
 ! A34   A(11,12,13)           118.7634         estimate D2E/DX2                !
 ! A35   A(11,12,31)           119.6256         estimate D2E/DX2                !
 ! A36   A(13,12,31)           121.611          estimate D2E/DX2                !
 ! A37   A(12,13,14)           121.7064         estimate D2E/DX2                !
 ! A38   A(12,13,38)           117.2713         estimate D2E/DX2                !
 ! A39   A(14,13,38)           121.0222         estimate D2E/DX2                !
 ! A40   A(13,14,15)           120.7938         estimate D2E/DX2                !
 ! A41   A(13,14,39)           121.048          estimate D2E/DX2                !
 ! A42   A(15,14,39)           118.1582         estimate D2E/DX2                !
 ! A43   A(1,15,14)            121.5551         estimate D2E/DX2                !
 ! A44   A(1,15,16)            119.6458         estimate D2E/DX2                !
 ! A45   A(14,15,16)           118.799          estimate D2E/DX2                !
 ! A46   A(4,16,11)            119.9849         estimate D2E/DX2                !
 ! A47   A(4,16,15)            119.5955         estimate D2E/DX2                !
 ! A48   A(11,16,15)           120.4195         estimate D2E/DX2                !
 ! A49   A(7,17,18)            120.4936         estimate D2E/DX2                !
 ! A50   A(7,17,22)            120.3428         estimate D2E/DX2                !
 ! A51   A(18,17,22)           119.1635         estimate D2E/DX2                !
 ! A52   A(6,18,17)            120.4936         estimate D2E/DX2                !
 ! A53   A(6,18,19)            120.3406         estimate D2E/DX2                !
 ! A54   A(17,18,19)           119.1658         estimate D2E/DX2                !
 ! A55   A(18,19,20)           120.9924         estimate D2E/DX2                !
 ! A56   A(18,19,40)           118.8766         estimate D2E/DX2                !
 ! A57   A(20,19,40)           120.131          estimate D2E/DX2                !
 ! A58   A(19,20,21)           119.8427         estimate D2E/DX2                !
 ! A59   A(19,20,41)           120.0632         estimate D2E/DX2                !
 ! A60   A(21,20,41)           120.0941         estimate D2E/DX2                !
 ! A61   A(20,21,22)           119.843          estimate D2E/DX2                !
 ! A62   A(20,21,42)           120.0957         estimate D2E/DX2                !
 ! A63   A(22,21,42)           120.0613         estimate D2E/DX2                !
 ! A64   A(17,22,21)           120.9927         estimate D2E/DX2                !
 ! A65   A(17,22,43)           118.8773         estimate D2E/DX2                !
 ! A66   A(21,22,43)           120.13           estimate D2E/DX2                !
 ! A67   A(8,23,24)            121.375          estimate D2E/DX2                !
 ! A68   A(8,23,27)            119.0538         estimate D2E/DX2                !
 ! A69   A(24,23,27)           119.5711         estimate D2E/DX2                !
 ! A70   A(23,24,25)           120.2595         estimate D2E/DX2                !
 ! A71   A(23,24,44)           119.6004         estimate D2E/DX2                !
 ! A72   A(25,24,44)           120.1401         estimate D2E/DX2                !
 ! A73   A(24,25,26)           120.6734         estimate D2E/DX2                !
 ! A74   A(24,25,45)           119.7086         estimate D2E/DX2                !
 ! A75   A(26,25,45)           119.618          estimate D2E/DX2                !
 ! A76   A(25,26,28)           120.2547         estimate D2E/DX2                !
 ! A77   A(25,26,46)           120.0681         estimate D2E/DX2                !
 ! A78   A(28,26,46)           119.6772         estimate D2E/DX2                !
 ! A79   A(23,27,28)           119.5942         estimate D2E/DX2                !
 ! A80   A(23,27,32)           119.9858         estimate D2E/DX2                !
 ! A81   A(28,27,32)           120.42           estimate D2E/DX2                !
 ! A82   A(26,28,27)           119.6471         estimate D2E/DX2                !
 ! A83   A(26,28,29)           121.5529         estimate D2E/DX2                !
 ! A84   A(27,28,29)           118.7999         estimate D2E/DX2                !
 ! A85   A(28,29,30)           120.7927         estimate D2E/DX2                !
 ! A86   A(28,29,47)           118.1566         estimate D2E/DX2                !
 ! A87   A(30,29,47)           121.0507         estimate D2E/DX2                !
 ! A88   A(29,30,31)           121.7072         estimate D2E/DX2                !
 ! A89   A(29,30,48)           121.0209         estimate D2E/DX2                !
 ! A90   A(31,30,48)           117.2719         estimate D2E/DX2                !
 ! A91   A(12,31,30)           121.612          estimate D2E/DX2                !
 ! A92   A(12,31,32)           119.6248         estimate D2E/DX2                !
 ! A93   A(30,31,32)           118.7632         estimate D2E/DX2                !
 ! A94   A(9,32,27)            119.8008         estimate D2E/DX2                !
 ! A95   A(9,32,31)            120.6821         estimate D2E/DX2                !
 ! A96   A(27,32,31)           119.5171         estimate D2E/DX2                !
 ! D1    D(15,1,2,3)             0.0            estimate D2E/DX2                !
 ! D2    D(15,1,2,34)          180.0            estimate D2E/DX2                !
 ! D3    D(33,1,2,3)           180.0            estimate D2E/DX2                !
 ! D4    D(33,1,2,34)            0.0            estimate D2E/DX2                !
 ! D5    D(2,1,15,14)          180.0            estimate D2E/DX2                !
 ! D6    D(2,1,15,16)            0.0            estimate D2E/DX2                !
 ! D7    D(33,1,15,14)           0.0            estimate D2E/DX2                !
 ! D8    D(33,1,15,16)         180.0            estimate D2E/DX2                !
 ! D9    D(1,2,3,4)              0.0            estimate D2E/DX2                !
 ! D10   D(1,2,3,35)           180.0            estimate D2E/DX2                !
 ! D11   D(34,2,3,4)           180.0            estimate D2E/DX2                !
 ! D12   D(34,2,3,35)            0.0            estimate D2E/DX2                !
 ! D13   D(2,3,4,5)            180.0            estimate D2E/DX2                !
 ! D14   D(2,3,4,16)             0.0            estimate D2E/DX2                !
 ! D15   D(35,3,4,5)             0.0            estimate D2E/DX2                !
 ! D16   D(35,3,4,16)          180.0            estimate D2E/DX2                !
 ! D17   D(3,4,5,6)            180.0            estimate D2E/DX2                !
 ! D18   D(3,4,5,36)             0.0            estimate D2E/DX2                !
 ! D19   D(16,4,5,6)             0.0            estimate D2E/DX2                !
 ! D20   D(16,4,5,36)          180.0            estimate D2E/DX2                !
 ! D21   D(3,4,16,11)          180.0            estimate D2E/DX2                !
 ! D22   D(3,4,16,15)            0.0            estimate D2E/DX2                !
 ! D23   D(5,4,16,11)            0.0            estimate D2E/DX2                !
 ! D24   D(5,4,16,15)          180.0            estimate D2E/DX2                !
 ! D25   D(4,5,6,10)             0.0            estimate D2E/DX2                !
 ! D26   D(4,5,6,18)           180.0            estimate D2E/DX2                !
 ! D27   D(36,5,6,10)          180.0            estimate D2E/DX2                !
 ! D28   D(36,5,6,18)            0.0            estimate D2E/DX2                !
 ! D29   D(5,6,10,9)           180.0            estimate D2E/DX2                !
 ! D30   D(5,6,10,11)            0.0            estimate D2E/DX2                !
 ! D31   D(18,6,10,9)            0.0            estimate D2E/DX2                !
 ! D32   D(18,6,10,11)         180.0            estimate D2E/DX2                !
 ! D33   D(5,6,18,17)          180.0            estimate D2E/DX2                !
 ! D34   D(5,6,18,19)            0.0            estimate D2E/DX2                !
 ! D35   D(10,6,18,17)           0.0            estimate D2E/DX2                !
 ! D36   D(10,6,18,19)         180.0            estimate D2E/DX2                !
 ! D37   D(9,7,8,23)             0.0            estimate D2E/DX2                !
 ! D38   D(9,7,8,37)           180.0            estimate D2E/DX2                !
 ! D39   D(17,7,8,23)          180.0            estimate D2E/DX2                !
 ! D40   D(17,7,8,37)            0.0            estimate D2E/DX2                !
 ! D41   D(8,7,9,10)           180.0            estimate D2E/DX2                !
 ! D42   D(8,7,9,32)             0.0            estimate D2E/DX2                !
 ! D43   D(17,7,9,10)            0.0            estimate D2E/DX2                !
 ! D44   D(17,7,9,32)          180.0            estimate D2E/DX2                !
 ! D45   D(8,7,17,18)          180.0            estimate D2E/DX2                !
 ! D46   D(8,7,17,22)            0.0            estimate D2E/DX2                !
 ! D47   D(9,7,17,18)            0.0            estimate D2E/DX2                !
 ! D48   D(9,7,17,22)          180.0            estimate D2E/DX2                !
 ! D49   D(7,8,23,24)          180.0            estimate D2E/DX2                !
 ! D50   D(7,8,23,27)            0.0            estimate D2E/DX2                !
 ! D51   D(37,8,23,24)           0.0            estimate D2E/DX2                !
 ! D52   D(37,8,23,27)         180.0            estimate D2E/DX2                !
 ! D53   D(7,9,10,6)             0.0            estimate D2E/DX2                !
 ! D54   D(7,9,10,11)          180.0            estimate D2E/DX2                !
 ! D55   D(32,9,10,6)          180.0            estimate D2E/DX2                !
 ! D56   D(32,9,10,11)           0.0            estimate D2E/DX2                !
 ! D57   D(7,9,32,27)            0.0            estimate D2E/DX2                !
 ! D58   D(7,9,32,31)          180.0            estimate D2E/DX2                !
 ! D59   D(10,9,32,27)         180.0            estimate D2E/DX2                !
 ! D60   D(10,9,32,31)           0.0            estimate D2E/DX2                !
 ! D61   D(6,10,11,12)         180.0            estimate D2E/DX2                !
 ! D62   D(6,10,11,16)           0.0            estimate D2E/DX2                !
 ! D63   D(9,10,11,12)           0.0            estimate D2E/DX2                !
 ! D64   D(9,10,11,16)         180.0            estimate D2E/DX2                !
 ! D65   D(10,11,12,13)        180.0            estimate D2E/DX2                !
 ! D66   D(10,11,12,31)          0.0            estimate D2E/DX2                !
 ! D67   D(16,11,12,13)          0.0            estimate D2E/DX2                !
 ! D68   D(16,11,12,31)        180.0            estimate D2E/DX2                !
 ! D69   D(10,11,16,4)           0.0            estimate D2E/DX2                !
 ! D70   D(10,11,16,15)        180.0            estimate D2E/DX2                !
 ! D71   D(12,11,16,4)         180.0            estimate D2E/DX2                !
 ! D72   D(12,11,16,15)          0.0            estimate D2E/DX2                !
 ! D73   D(11,12,13,14)          0.0            estimate D2E/DX2                !
 ! D74   D(11,12,13,38)        180.0            estimate D2E/DX2                !
 ! D75   D(31,12,13,14)        180.0            estimate D2E/DX2                !
 ! D76   D(31,12,13,38)          0.0            estimate D2E/DX2                !
 ! D77   D(11,12,31,30)        180.0            estimate D2E/DX2                !
 ! D78   D(11,12,31,32)          0.0            estimate D2E/DX2                !
 ! D79   D(13,12,31,30)          0.0            estimate D2E/DX2                !
 ! D80   D(13,12,31,32)        180.0            estimate D2E/DX2                !
 ! D81   D(12,13,14,15)          0.0            estimate D2E/DX2                !
 ! D82   D(12,13,14,39)        180.0            estimate D2E/DX2                !
 ! D83   D(38,13,14,15)        180.0            estimate D2E/DX2                !
 ! D84   D(38,13,14,39)          0.0            estimate D2E/DX2                !
 ! D85   D(13,14,15,1)         180.0            estimate D2E/DX2                !
 ! D86   D(13,14,15,16)          0.0            estimate D2E/DX2                !
 ! D87   D(39,14,15,1)           0.0            estimate D2E/DX2                !
 ! D88   D(39,14,15,16)        180.0            estimate D2E/DX2                !
 ! D89   D(1,15,16,4)            0.0            estimate D2E/DX2                !
 ! D90   D(1,15,16,11)         180.0            estimate D2E/DX2                !
 ! D91   D(14,15,16,4)         180.0            estimate D2E/DX2                !
 ! D92   D(14,15,16,11)          0.0            estimate D2E/DX2                !
 ! D93   D(7,17,18,6)            0.0            estimate D2E/DX2                !
 ! D94   D(7,17,18,19)         180.0            estimate D2E/DX2                !
 ! D95   D(22,17,18,6)         180.0            estimate D2E/DX2                !
 ! D96   D(22,17,18,19)          0.0            estimate D2E/DX2                !
 ! D97   D(7,17,22,21)         180.0            estimate D2E/DX2                !
 ! D98   D(7,17,22,43)           0.0            estimate D2E/DX2                !
 ! D99   D(18,17,22,21)          0.0            estimate D2E/DX2                !
 ! D100  D(18,17,22,43)        180.0            estimate D2E/DX2                !
 ! D101  D(6,18,19,20)         180.0            estimate D2E/DX2                !
 ! D102  D(6,18,19,40)           0.0            estimate D2E/DX2                !
 ! D103  D(17,18,19,20)          0.0            estimate D2E/DX2                !
 ! D104  D(17,18,19,40)        180.0            estimate D2E/DX2                !
 ! D105  D(18,19,20,21)          0.0            estimate D2E/DX2                !
 ! D106  D(18,19,20,41)        180.0            estimate D2E/DX2                !
 ! D107  D(40,19,20,21)        180.0            estimate D2E/DX2                !
 ! D108  D(40,19,20,41)          0.0            estimate D2E/DX2                !
 ! D109  D(19,20,21,22)          0.0            estimate D2E/DX2                !
 ! D110  D(19,20,21,42)        180.0            estimate D2E/DX2                !
 ! D111  D(41,20,21,22)        180.0            estimate D2E/DX2                !
 ! D112  D(41,20,21,42)          0.0            estimate D2E/DX2                !
 ! D113  D(20,21,22,17)          0.0            estimate D2E/DX2                !
 ! D114  D(20,21,22,43)        180.0            estimate D2E/DX2                !
 ! D115  D(42,21,22,17)        180.0            estimate D2E/DX2                !
 ! D116  D(42,21,22,43)          0.0            estimate D2E/DX2                !
 ! D117  D(8,23,24,25)         180.0            estimate D2E/DX2                !
 ! D118  D(8,23,24,44)           0.0            estimate D2E/DX2                !
 ! D119  D(27,23,24,25)          0.0            estimate D2E/DX2                !
 ! D120  D(27,23,24,44)        180.0            estimate D2E/DX2                !
 ! D121  D(8,23,27,28)         180.0            estimate D2E/DX2                !
 ! D122  D(8,23,27,32)           0.0            estimate D2E/DX2                !
 ! D123  D(24,23,27,28)          0.0            estimate D2E/DX2                !
 ! D124  D(24,23,27,32)        180.0            estimate D2E/DX2                !
 ! D125  D(23,24,25,26)          0.0            estimate D2E/DX2                !
 ! D126  D(23,24,25,45)        180.0            estimate D2E/DX2                !
 ! D127  D(44,24,25,26)        180.0            estimate D2E/DX2                !
 ! D128  D(44,24,25,45)          0.0            estimate D2E/DX2                !
 ! D129  D(24,25,26,28)          0.0            estimate D2E/DX2                !
 ! D130  D(24,25,26,46)        180.0            estimate D2E/DX2                !
 ! D131  D(45,25,26,28)        180.0            estimate D2E/DX2                !
 ! D132  D(45,25,26,46)          0.0            estimate D2E/DX2                !
 ! D133  D(25,26,28,27)          0.0            estimate D2E/DX2                !
 ! D134  D(25,26,28,29)        180.0            estimate D2E/DX2                !
 ! D135  D(46,26,28,27)        180.0            estimate D2E/DX2                !
 ! D136  D(46,26,28,29)          0.0            estimate D2E/DX2                !
 ! D137  D(23,27,28,26)          0.0            estimate D2E/DX2                !
 ! D138  D(23,27,28,29)        180.0            estimate D2E/DX2                !
 ! D139  D(32,27,28,26)        180.0            estimate D2E/DX2                !
 ! D140  D(32,27,28,29)          0.0            estimate D2E/DX2                !
 ! D141  D(23,27,32,9)           0.0            estimate D2E/DX2                !
 ! D142  D(23,27,32,31)        180.0            estimate D2E/DX2                !
 ! D143  D(28,27,32,9)         180.0            estimate D2E/DX2                !
 ! D144  D(28,27,32,31)          0.0            estimate D2E/DX2                !
 ! D145  D(26,28,29,30)        180.0            estimate D2E/DX2                !
 ! D146  D(26,28,29,47)          0.0            estimate D2E/DX2                !
 ! D147  D(27,28,29,30)          0.0            estimate D2E/DX2                !
 ! D148  D(27,28,29,47)        180.0            estimate D2E/DX2                !
 ! D149  D(28,29,30,31)          0.0            estimate D2E/DX2                !
 ! D150  D(28,29,30,48)        180.0            estimate D2E/DX2                !
 ! D151  D(47,29,30,31)        180.0            estimate D2E/DX2                !
 ! D152  D(47,29,30,48)          0.0            estimate D2E/DX2                !
 ! D153  D(29,30,31,12)        180.0            estimate D2E/DX2                !
 ! D154  D(29,30,31,32)          0.0            estimate D2E/DX2                !
 ! D155  D(48,30,31,12)          0.0            estimate D2E/DX2                !
 ! D156  D(48,30,31,32)        180.0            estimate D2E/DX2                !
 ! D157  D(12,31,32,9)           0.0            estimate D2E/DX2                !
 ! D158  D(12,31,32,27)        180.0            estimate D2E/DX2                !
 ! D159  D(30,31,32,9)         180.0            estimate D2E/DX2                !
 ! D160  D(30,31,32,27)          0.0            estimate D2E/DX2                !
 --------------------------------------------------------------------------------
 Trust Radius=3.00D-01 FncErr=1.00D-07 GrdErr=1.00D-06
 Number of steps in this run=    288 maximum allowed number of steps=    288.
 GradGradGradGradGradGradGradGradGradGradGradGradGradGradGradGradGradGrad

 Leave Link  103 at Sat Jul 27 11:52:03 2019, MaxMem=  4194304000 cpu:         0.1
 (Enter /home/minenky/programs//g09/l202.exe)
                          Input orientation:                          
 ---------------------------------------------------------------------
 Center     Atomic      Atomic             Coordinates (Angstroms)
 Number     Number       Type             X           Y           Z
 ---------------------------------------------------------------------
      1          6           0        4.931536   -2.175657    0.000000
      2          6           0        5.626910   -0.970971    0.000000
      3          6           0        4.947043    0.238921    0.000000
      4          6           0        3.546455    0.261600    0.000000
      5          6           0        2.820508    1.496591    0.000000
      6          6           0        1.455716    1.524825    0.000000
      7          6           0       -1.434040    1.545274    0.000000
      8          6           0       -2.799105    1.536308    0.000000
      9          6           0       -0.700561    0.300511    0.000000
     10          6           0        0.704721    0.290566    0.000000
     11          6           0        1.396696   -0.943123    0.000000
     12          6           0        0.688661   -2.167967    0.000000
     13          6           0        1.435009   -3.400039    0.000000
     14          6           0        2.786980   -3.411845    0.000000
     15          6           0        3.534554   -2.182019    0.000000
     16          6           0        2.829335   -0.955943    0.000000
     17          6           0       -0.682985    2.800228    0.000000
     18          6           0        0.722519    2.790276    0.000000
     19          6           0        1.414273    4.009393    0.000000
     20          6           0        0.733413    5.215947    0.000000
     21          6           0       -0.659441    5.225831    0.000000
     22          6           0       -1.357364    4.029062    0.000000
     23          6           0       -3.542435    0.311701    0.000000
     24          6           0       -4.943182    0.308828    0.000000
     25          6           0       -5.640070   -0.891338    0.000000
     26          6           0       -4.961801   -2.105720    0.000000
     27          6           0       -2.842578   -0.915843    0.000000
     28          6           0       -3.565057   -2.131808    0.000000
     29          6           0       -2.834975   -3.372086    0.000000
     30          6           0       -1.482975   -3.379396    0.000000
     31          6           0       -0.719270   -2.158016    0.000000
     32          6           0       -1.409907   -0.923274    0.000000
     33          1           0        5.478469   -3.125288    0.000000
     34          1           0        6.722081   -0.978116    0.000000
     35          1           0        5.503727    1.182856    0.000000
     36          1           0        3.391004    2.439582    0.000000
     37          1           0       -3.356237    2.487257    0.000000
     38          1           0        0.859403   -4.338511    0.000000
     39          1           0        3.344025   -4.355725    0.000000
     40          1           0        2.515120    3.996041    0.000000
     41          1           0        1.289063    6.159226    0.000000
     42          1           0       -1.201674    6.176886    0.000000
     43          1           0       -2.458288    4.031359    0.000000
     44          1           0       -5.486433    1.260555    0.000000
     45          1           0       -6.735234   -0.883055    0.000000
     46          1           0       -5.522066   -3.047546    0.000000
     47          1           0       -3.405353   -4.307967    0.000000
     48          1           0       -0.920717   -4.325927    0.000000
 ---------------------------------------------------------------------
                    Distance matrix (angstroms):
                    1          2          3          4          5
     1  C    0.000000
     2  C    1.390976   0.000000
     3  C    2.414627   1.387825   0.000000
     4  C    2.803332   2.418166   1.400771   0.000000
     5  C    4.235781   3.736945   2.470604   1.432551   0.000000
     6  C    5.076897   4.860849   3.720606   2.442729   1.365083
     7  C    7.373322   7.495900   6.513431   5.143263   4.254826
     8  C    8.575634   8.791143   7.854045   6.472327   5.619753
     9  C    6.152391   6.453957   5.647940   4.247194   3.718673
    10  C    4.893691   5.081281   4.242636   2.841882   2.435374
    11  C    3.743558   4.230306   3.741950   2.464309   2.824791
    12  C    4.242882   5.081250   4.891516   3.750971   4.239546
    13  C    3.704701   4.844833   5.057313   4.226796   5.088869
    14  C    2.475335   3.744739   4.241930   3.751134   4.908551
    15  C    1.396996   2.417559   2.802869   2.443648   3.747271
    16  C    2.430422   2.797616   2.431540   1.413037   2.452550
    17  C    7.502151   7.350967   6.185265   4.932829   3.738172
    18  C    6.509709   6.180618   4.935182   3.790623   2.464788
    19  C    7.115193   6.523062   5.166906   4.311862   2.879526
    20  C    8.500591   7.888236   6.521155   5.697259   4.264924
    21  C    9.275831   8.827150   7.503462   6.506393   5.100713
    22  C    8.834522   8.589552   7.355998   6.183948   4.885490
    23  C    8.831485   9.258625   8.489790   7.089067   6.472326
    24  C   10.182471  10.647288   9.890472   8.489769   7.854022
    25  C   10.649334  11.267262  10.647274   9.258591   8.791108
    26  C    9.893584  10.649341  10.182462   8.831457   8.575604
    27  C    7.875530   8.469668   7.874749   6.496624   6.155516
    28  C    8.496706   9.264978   8.836074   7.503467   7.344435
    29  C    7.858126   8.795957   8.578997   7.343455   7.462473
    30  C    6.526480   7.506729   7.378167   6.209027   6.503477
    31  C    5.650834   6.456244   6.152432   4.904178   5.087847
    32  C    6.463927   7.036979   6.462315   5.096023   4.873618
    33  H    1.095872   2.159425   3.405924   3.899191   5.331653
    34  H    2.154102   1.095194   2.152194   3.409031   4.620222
    35  H    3.406906   2.157347   1.095861   2.163244   2.701499
    36  H    4.865559   4.078131   2.695212   2.183522   1.102133
    37  H    9.509466   9.625813   8.602294   7.252634   6.255685
    38  H    4.610879   5.836904   6.136911   5.327407   6.155838
    39  H    2.696829   4.082661   4.866255   4.621760   5.875685
    40  H    6.627889   5.861267   4.475511   3.874235   2.518037
    41  H    9.096036   8.346055   6.959226   6.314888   4.907697
    42  H   10.362492   9.885415   8.547874   7.585205   6.171151
    43  H    9.650727   9.507562   8.319947   7.089995   5.855829
    44  H   10.970033  11.335171  10.483375   9.087958   8.310293
    45  H   11.738157  12.362457  11.736031  10.345210   9.847584
    46  H   10.489899  11.340716  10.972835   9.653421   9.499880
    47  H    8.605258   9.628984   9.509822   8.319169   8.512005
    48  H    6.234784   7.357116   7.434275   6.403205   6.920873
                    6          7          8          9         10
     6  C    0.000000
     7  C    2.889829   0.000000
     8  C    4.254837   1.365095   0.000000
     9  C    2.479612   1.444793   2.435381   0.000000
    10  C    1.444780   2.479636   3.718693   1.405318   0.000000
    11  C    2.468653   3.768977   4.873636   2.438260   1.414502
    12  C    3.771615   4.277151   5.087845   2.832547   2.458585
    13  C    4.924907   5.717304   6.503479   4.272555   3.762164
    14  C    5.113020   6.510763   7.462477   5.093577   4.247781
    15  C    4.249972   6.211252   7.344467   4.909089   3.757876
    16  C    2.835672   4.942920   6.155539   3.746844   2.463284
    17  C    2.490120   1.462530   2.464845   2.499779   2.867775
    18  C    1.462513   2.490135   3.738218   2.867766   2.499773
    19  C    2.484914   3.766267   4.885561   4.269465   3.785913
    20  C    3.761131   4.262827   5.100826   5.120331   4.925465
    21  C    4.262785   3.761184   4.265061   4.925492   5.120330
    22  C    3.766248   2.484971   2.879660   3.785958   4.269490
    23  C    5.143266   2.442751   1.432551   2.841896   4.247209
    24  C    6.513413   3.720602   2.470582   4.242629   5.647933
    25  C    7.495867   4.860840   3.736917   5.081265   6.453935
    26  C    7.373289   5.076895   4.235756   4.893682   6.152371
    27  C    4.942893   2.835680   2.452537   2.463281   3.746833
    28  C    6.211210   4.249961   3.747233   3.757860   4.909063
    29  C    6.510743   5.113028   4.908525   4.247787   5.093572
    30  C    5.717280   4.924913   5.088845   3.762165   4.272544
    31  C    4.277135   3.771639   4.239546   2.458599   2.832544
    32  C    3.768950   2.468667   2.824787   1.414504   2.438250
    33  H    6.148666   8.342478   9.499933   7.065162   5.869985
    34  H    5.830893   8.537553   9.847605   7.531965   6.149648
    35  H    4.062430   6.947227   8.310352   6.266716   4.881254
    36  H    2.140588   4.907223   6.255666   4.616982   3.440114
    37  H    4.907257   2.140601   1.102134   3.440127   4.617016
    38  H    5.893580   6.314967   6.920851   4.894284   4.631660
    39  H    6.176291   7.592871   8.511998   6.167593   5.343589
    40  H    2.688725   4.647808   5.855875   4.898728   4.124086
    41  H    4.637397   5.357596   6.171263   6.187337   5.897680
    42  H    5.357555   4.637437   4.907826   5.897703   6.187335
    43  H    4.647811   2.688810   2.518220   4.124176   4.898792
    44  H    6.947177   4.062383   2.701438   4.881214   6.266679
    45  H    8.537538   5.830904   4.620219   6.149643   7.531953
    46  H    8.342423   6.148655   5.331626   5.869958   7.065117
    47  H    7.592855   6.176286   5.875635   5.343591   6.167594
    48  H    6.314961   5.893599   6.155822   4.631674   4.894288
                   11         12         13         14         15
    11  C    0.000000
    12  C    1.414764   0.000000
    13  C    2.457214   1.440499   0.000000
    14  C    2.833280   2.439298   1.352022   0.000000
    15  C    2.470891   2.845928   2.427275   1.439215   0.000000
    16  C    1.432696   2.459977   2.813850   2.456268   1.414425
    17  C    4.282260   5.154064   6.552038   7.115512   6.527666
    18  C    3.793782   4.958358   6.231183   6.536689   5.712378
    19  C    4.952547   6.219830   7.409461   7.547125   6.544401
    20  C    6.194682   7.384049   8.644504   8.868818   7.910518
    21  C    6.502592   7.515692   8.876506   9.299853   8.512687
    22  C    5.683966   6.526054   7.936553   8.517199   7.906225
    23  C    5.096038   4.904174   6.209022   7.343452   7.503494
    24  C    6.462309   6.152412   7.378144   8.578975   8.836081
    25  C    7.036957   6.456207   7.506685   8.795915   9.264965
    26  C    6.463909   5.650805   6.526442   7.858089   8.496698
    27  C    4.239362   3.746660   4.946612   6.158080   6.501616
    28  C    5.102153   4.253872   5.158398   6.479727   7.099789
    29  C    4.879232   3.723697   4.270076   5.622095   6.479750
    30  C    3.771993   2.486677   2.918057   4.270078   5.158421
    31  C    2.439935   1.407967   2.486672   3.723691   4.253892
    32  C    2.806673   2.439927   3.771990   4.879225   5.102170
    33  H    4.628468   4.884540   4.052784   2.706701   2.160686
    34  H    5.325500   6.149626   5.815397   4.626885   3.407303
    35  H    4.624661   5.866249   6.128409   5.337790   3.898722
    36  H    3.926825   5.341550   6.158497   5.882520   4.623830
    37  H    5.861559   6.167033   7.590539   8.516954   8.323770
    38  H    3.437636   2.177249   1.100932   2.138752   3.436115
    39  H    3.929115   3.440530   2.134872   1.095997   2.182040
    40  H    5.064208   6.428914   7.474532   7.412873   6.261603
    41  H    7.103164   8.348809   9.560378   9.687577   8.638206
    42  H    7.579318   8.556281   9.933257  10.385236   9.607453
    43  H    6.293359   6.952332   8.389483   9.105719   8.632510
    44  H    7.227286   7.063041   8.344309   9.501614   9.655544
    45  H    8.132152   7.534269   8.549156   9.852276  10.351611
    46  H    7.231727   6.272702   6.965999   8.317028   9.097885
    47  H    5.863604   4.619583   4.924778   6.256838   7.258234
    48  H    4.100460   2.692005   2.531149   3.818712   4.944268
                   16         17         18         19         20
    16  C    0.000000
    17  C    5.142491   0.000000
    18  C    4.298003   1.405539   0.000000
    19  C    5.163038   2.420861   1.401703   0.000000
    20  C    6.518061   2.800336   2.425696   1.385404   0.000000
    21  C    7.098302   2.425717   2.800311   2.404165   1.392889
    22  C    6.509894   1.401720   2.420847   2.771706   2.404172
    23  C    6.496643   3.790676   4.932866   6.184002   6.506497
    24  C    7.874749   4.935216   6.185285   7.356046   7.503569
    25  C    8.469651   6.180644   7.350974   8.589582   8.827243
    26  C    7.875519   6.509732   7.502151   8.834531   9.275898
    27  C    5.672055   4.298027   5.142493   6.509895   7.098349
    28  C    6.501608   5.712383   6.527650   7.906205   8.512717
    29  C    6.158097   6.536706   7.115509   8.517180   9.299877
    30  C    4.946630   6.231191   6.552027   7.936514   8.876503
    31  C    3.746676   4.958378   5.154062   6.526021   7.515692
    32  C    4.239368   3.793796   4.282253   5.683942   6.502604
    33  H    3.424028   8.548407   7.590320   8.211051   9.596445
    34  H    3.892809   8.313296   7.084880   7.283411   8.615716
    35  H    3.424447   6.394630   5.044180   4.971212   6.246737
    36  H    3.441665   4.089920   2.691431   2.524237   3.843305
    37  H    7.079331   2.691510   4.089996   5.007461   4.916400
    38  H    3.914383   7.303462   7.130101   8.366324   9.555288
    39  H    3.438520   8.211241   7.611677   8.584820   9.921300
    40  H    4.961942   3.414358   2.160390   1.100927   2.159317
    41  H    7.279977   3.895104   3.416255   2.153476   1.094770
    42  H    8.193063   3.416264   3.895080   3.397235   2.160547
    43  H    7.268572   2.160413   3.414355   3.872624   3.404439
    44  H    8.606094   5.044176   6.394617   7.428045   7.370998
    45  H    9.564847   7.084935   8.313329   9.505289   9.642537
    46  H    8.609339   7.590335   8.548392   9.895110  10.364186
    47  H    7.078658   7.611684   8.211235   9.612870  10.384330
    48  H    5.041794   7.130120   7.303463   8.656197   9.684189
                   21         22         23         24         25
    21  C    0.000000
    22  C    1.385407   0.000000
    23  C    5.697397   4.311996   0.000000
    24  C    6.521301   5.167033   1.400750   0.000000
    25  C    7.888373   6.523182   2.418135   1.387823   0.000000
    26  C    8.500703   7.115302   2.803306   2.414620   1.390961
    27  C    6.518148   5.163134   1.413034   2.431534   2.797599
    28  C    7.910592   6.544481   2.443614   2.802844   2.417528
    29  C    8.868886   7.547207   3.751105   4.241894   3.744685
    30  C    8.644544   7.409523   4.226769   5.057275   4.844777
    31  C    7.384090   6.219895   3.750968   4.891498   5.081214
    32  C    6.194732   4.952615   2.464313   3.741940   4.230283
    33  H   10.364127   9.895117   9.653477  10.972875  11.340743
    34  H    9.642397   9.505222  10.345237  11.736038  12.362455
    35  H    7.370908   7.428018   9.088012  10.483408  11.335188
    36  H    4.916227   5.007338   7.252617   8.602254   9.625763
    37  H    3.843501   2.524412   2.183509   2.695171   4.078087
    38  H    9.684189   8.656230   6.403175   7.434229   7.357047
    39  H   10.384313   9.612892   8.319146   9.509777   9.628911
    40  H    3.404441   3.872624   7.090016   8.319964   9.507554
    41  H    2.160530   3.397230   7.585309   8.547984   9.885511
    42  H    1.094770   2.153460   6.315027   6.959382   8.346206
    43  H    2.159309   1.100927   3.874433   4.475705   5.861457
    44  H    6.246861   4.971302   2.163204   1.095858   2.157371
    45  H    8.615901   7.283569   3.409019   2.152216   1.095196
    46  H    9.596557   8.211159   3.899164   3.405929   2.159435
    47  H    9.921358   8.584888   4.621701   4.866180   4.082561
    48  H    9.555331   8.366391   5.327382   6.136871   5.836839
                   26         27         28         29         30
    26  C    0.000000
    27  C    2.430415   0.000000
    28  C    1.396988   1.414407   0.000000
    29  C    2.475292   2.456255   1.439205   0.000000
    30  C    3.704657   2.813825   2.427250   1.352020   0.000000
    31  C    4.242853   2.459965   2.845907   2.439297   1.440491
    32  C    3.743545   1.432690   2.470876   2.833284   2.457208
    33  H   10.489937   8.609383   9.097933   8.317107   6.966081
    34  H   11.738169   9.564862  10.351629   9.852331   8.549216
    35  H   10.970051   8.606123   9.655560   9.501656   8.344349
    36  H    9.509423   7.079295   8.323724   8.516942   7.590532
    37  H    4.865519   3.441647   4.623782   5.882483   6.158467
    38  H    6.234723   5.041757   4.944228   3.818692   2.531134
    39  H    8.605189   7.078619   7.258183   6.256803   4.924749
    40  H    9.650691   7.268530   8.632443   9.105647   8.389388
    41  H   10.362559   8.193110   9.607483  10.385259   9.933252
    42  H    9.096160   7.280067   8.638286   9.687649   9.560422
    43  H    6.628070   4.962105   6.261754   7.413022   7.474659
    44  H    3.406912   3.424424   3.898693   5.337751   6.128362
    45  H    2.154060   3.892794   3.407258   4.626802   5.815320
    46  H    1.095871   3.424006   2.160662   2.706619   4.052701
    47  H    2.696742   3.438490   2.182011   1.095994   2.134896
    48  H    4.610822   3.914361   3.436087   2.138737   1.100934
                   31         32         33         34         35
    31  C    0.000000
    32  C    1.414767   0.000000
    33  H    6.272766   7.231777   0.000000
    34  H    7.534313   8.132173   2.481314   0.000000
    35  H    7.063082   7.227318   4.308218   2.480763   0.000000
    36  H    6.167030   5.861531   5.943508   4.772498   2.458243
    37  H    5.341550   3.926821  10.466742  10.657453   8.955469
    38  H    2.691982   4.100440   4.775739   6.757459   7.214932
    39  H    4.619555   5.863581   2.463702   4.776977   5.944762
    40  H    6.952244   6.293289   7.713285   6.514657   4.104361
    41  H    8.556280   7.579330  10.185938   8.969913   6.521323
    42  H    8.348851   7.103214  11.452282  10.676139   8.360786
    43  H    6.429039   5.064335  10.686895  10.458203   8.456220
    44  H    5.866214   4.624627  11.809517  12.412069  10.990435
    45  H    6.149581   5.325479  12.417816  13.457651  12.412097
    46  H    4.884477   4.628432  11.000811  12.417797  11.809506
    47  H    3.440542   3.929115   8.962200  10.660808  10.465221
    48  H    2.177250   3.437638   6.510847   8.343872   8.462871
                   36         37         38         39         40
    36  H    0.000000
    37  H    6.747409   0.000000
    38  H    7.235436   8.022638   0.000000
    39  H    6.795469   9.577051   2.484681   0.000000
    40  H    1.785983   6.062117   8.497420   8.392799   0.000000
    41  H    4.272459   5.921332  10.506526  10.713872   2.486481
    42  H    5.921160   4.272647  10.715485  11.471673   4.309367
    43  H    6.062010   1.786215   9.003432  10.198530   4.973533
    44  H    8.955389   2.458156   8.462811  10.465161   8.456224
    45  H   10.657420   4.772486   8.343781  10.660718  10.458232
    46  H   10.466680   5.943472   6.510741   8.962082  10.686836
    47  H    9.577050   6.795401   4.264866   6.749547  10.198457
    48  H    8.022659   7.235415   1.780165   4.264846   9.003340
                   41         42         43         44         45
    41  H    0.000000
    42  H    2.490799   0.000000
    43  H    4.309345   2.486437   0.000000
    44  H    8.360880   6.521463   4.104511   0.000000
    45  H   10.676285   8.970120   6.514885   2.480840   0.000000
    46  H   11.452342  10.186066   7.713471   4.308248   2.481290
    47  H   11.471689  10.713932   8.392930   5.944689   4.776832
    48  H   10.715482  10.506571   8.497550   7.214883   6.757365
                   46         47         48
    46  H    0.000000
    47  H    2.463561   0.000000
    48  H    4.775633   2.484701   0.000000
 Stoichiometry    C32H16
 Framework group  CS[SG(C32H16)]
 Deg. of freedom    93
 Full point group                 CS      NOp   2
 Largest Abelian subgroup         CS      NOp   2
 Largest concise Abelian subgroup C1      NOp   1
                         Standard orientation:                         
 ---------------------------------------------------------------------
 Center     Atomic      Atomic             Coordinates (Angstroms)
 Number     Number       Type             X           Y           Z
 ---------------------------------------------------------------------
      1          6           0        2.146263   -4.946850    0.000000
      2          6           0        0.936674   -5.633659    0.000000
      3          6           0       -0.268364   -4.945223    0.000000
      4          6           0       -0.281103   -3.544509    0.000000
      5          6           0       -1.510912   -2.809816    0.000000
      6          6           0       -1.529460   -1.444859    0.000000
      7          6           0       -1.529403    1.444970    0.000000
      8          6           0       -1.510750    2.809937    0.000000
      9          6           0       -0.289876    0.702676    0.000000
     10          6           0       -0.289903   -0.702642    0.000000
     11          6           0        0.938844   -1.403354    0.000000
     12          6           0        2.168682   -0.704028    0.000000
     13          6           0        3.395426   -1.459100    0.000000
     14          6           0        3.397639   -2.811120    0.000000
     15          6           0        2.162539   -3.549949    0.000000
     16          6           0        0.941498   -2.836047    0.000000
     17          6           0       -2.789655    0.702839    0.000000
     18          6           0       -2.789676   -0.702700    0.000000
     19          6           0       -4.013672   -1.385786    0.000000
     20          6           0       -5.215364   -0.696381    0.000000
     21          6           0       -5.215364    0.696508    0.000000
     22          6           0       -4.013672    1.385921    0.000000
     23          6           0       -0.280899    3.544558    0.000000
     24          6           0       -0.268086    4.945249    0.000000
     25          6           0        0.936995    5.633603    0.000000
     26          6           0        2.146534    4.946734    0.000000
     27          6           0        0.941648    2.836008    0.000000
     28          6           0        2.162709    3.549840    0.000000
     29          6           0        3.397775    2.810975    0.000000
     30          6           0        3.395491    1.458957    0.000000
     31          6           0        2.168723    0.703939    0.000000
     32          6           0        0.938913    1.403320    0.000000
     33          1           0        3.091990   -5.500509    0.000000
     34          1           0        0.936047   -6.728853    0.000000
     35          1           0       -1.216225   -5.495195    0.000000
     36          1           0       -2.457927   -3.373606    0.000000
     37          1           0       -2.457721    3.373803    0.000000
     38          1           0        4.337959   -0.890168    0.000000
     39          1           0        4.337542   -3.374850    0.000000
     40          1           0       -4.008131   -2.486699    0.000000
     41          1           0       -6.162562   -1.245323    0.000000
     42          1           0       -6.162547    1.245476    0.000000
     43          1           0       -4.008156    2.486834    0.000000
     44          1           0       -1.215934    5.495240    0.000000
     45          1           0        0.936484    6.728798    0.000000
     46          1           0        3.092312    5.500302    0.000000
     47          1           0        4.337680    3.374698    0.000000
     48          1           0        4.338009    0.889997    0.000000
 ---------------------------------------------------------------------
 Rotational constants (GHZ):      0.2008110      0.1392203      0.0822188
 Leave Link  202 at Sat Jul 27 11:52:03 2019, MaxMem=  4194304000 cpu:         1.3
 (Enter /home/minenky/programs//g09/l301.exe)
 Standard basis: def2TZVP (5D, 7F)
 ======================================================================================================
                                       Pseudopotential Parameters
 ======================================================================================================
  Center     Atomic      Valence      Angular      Power
  Number     Number     Electrons     Momentum     of R      Exponent        Coefficient   SO-Coeffient
 ======================================================================================================
    1          6
                                   No pseudopotential on this center.
    2          6
                                   No pseudopotential on this center.
    3          6
                                   No pseudopotential on this center.
    4          6
                                   No pseudopotential on this center.
    5          6
                                   No pseudopotential on this center.
    6          6
                                   No pseudopotential on this center.
    7          6
                                   No pseudopotential on this center.
    8          6
                                   No pseudopotential on this center.
    9          6
                                   No pseudopotential on this center.
   10          6
                                   No pseudopotential on this center.
   11          6
                                   No pseudopotential on this center.
   12          6
                                   No pseudopotential on this center.
   13          6
                                   No pseudopotential on this center.
   14          6
                                   No pseudopotential on this center.
   15          6
                                   No pseudopotential on this center.
   16          6
                                   No pseudopotential on this center.
   17          6
                                   No pseudopotential on this center.
   18          6
                                   No pseudopotential on this center.
   19          6
                                   No pseudopotential on this center.
   20          6
                                   No pseudopotential on this center.
   21          6
                                   No pseudopotential on this center.
   22          6
                                   No pseudopotential on this center.
   23          6
                                   No pseudopotential on this center.
   24          6
                                   No pseudopotential on this center.
   25          6
                                   No pseudopotential on this center.
   26          6
                                   No pseudopotential on this center.
   27          6
                                   No pseudopotential on this center.
   28          6
                                   No pseudopotential on this center.
   29          6
                                   No pseudopotential on this center.
   30          6
                                   No pseudopotential on this center.
   31          6
                                   No pseudopotential on this center.
   32          6
                                   No pseudopotential on this center.
   33          1
                                   No pseudopotential on this center.
   34          1
                                   No pseudopotential on this center.
   35          1
                                   No pseudopotential on this center.
   36          1
                                   No pseudopotential on this center.
   37          1
                                   No pseudopotential on this center.
   38          1
                                   No pseudopotential on this center.
   39          1
                                   No pseudopotential on this center.
   40          1
                                   No pseudopotential on this center.
   41          1
                                   No pseudopotential on this center.
   42          1
                                   No pseudopotential on this center.
   43          1
                                   No pseudopotential on this center.
   44          1
                                   No pseudopotential on this center.
   45          1
                                   No pseudopotential on this center.
   46          1
                                   No pseudopotential on this center.
   47          1
                                   No pseudopotential on this center.
   48          1
                                   No pseudopotential on this center.
 ======================================================================================================
 Ernie: Thresh=  0.10000D-02 Tol=  0.10000D-05 Strict=F.
 AO basis set (Overlap normalization):
 Atom C1       Shell     1 S   6     bf    1 -     1          4.055849774569         -9.348192257306          0.000000000000
      0.1357534968D+05  0.6064550360D-03
      0.2035233368D+04  0.4697908888D-02
      0.4632256236D+03  0.2433247765D-01
      0.1312001960D+03  0.9739996831D-01
      0.4285301589D+02  0.3019558425D+00
      0.1558418577D+02  0.6623360914D+00
 Atom C1       Shell     2 S   2     bf    2 -     2          4.055849774569         -9.348192257306          0.000000000000
      0.6206713851D+01  0.6559530854D+00
      0.2576489653D+01  0.3758563329D+00
 Atom C1       Shell     3 S   1     bf    3 -     3          4.055849774569         -9.348192257306          0.000000000000
      0.5769633942D+00  0.1000000000D+01
 Atom C1       Shell     4 S   1     bf    4 -     4          4.055849774569         -9.348192257306          0.000000000000
      0.2297283136D+00  0.1000000000D+01
 Atom C1       Shell     5 S   1     bf    5 -     5          4.055849774569         -9.348192257306          0.000000000000
      0.9516444003D-01  0.1000000000D+01
 Atom C1       Shell     6 P   4     bf    6 -     8          4.055849774569         -9.348192257306          0.000000000000
      0.3469723224D+02  0.1132722000D-01
      0.7958262283D+01  0.7616965920D-01
      0.2378082688D+01  0.3019225220D+00
      0.8143320818D+00  0.7278502735D+00
 Atom C1       Shell     7 P   1     bf    9 -    11          4.055849774569         -9.348192257306          0.000000000000
      0.2888754725D+00  0.1000000000D+01
 Atom C1       Shell     8 P   1     bf   12 -    14          4.055849774569         -9.348192257306          0.000000000000
      0.1005682367D+00  0.1000000000D+01
 Atom C1       Shell     9 D   1     bf   15 -    19          4.055849774569         -9.348192257306          0.000000000000
      0.1097000000D+01  0.1000000000D+01
 Atom C1       Shell    10 D   1     bf   20 -    24          4.055849774569         -9.348192257306          0.000000000000
      0.3180000000D+00  0.1000000000D+01
 Atom C1       Shell    11 F   1     bf   25 -    31          4.055849774569         -9.348192257306          0.000000000000
      0.7610000000D+00  0.1000000000D+01
 Atom C2       Shell    12 S   6     bf   32 -    32          1.770056442292        -10.646072062118          0.000000000000
      0.1357534968D+05  0.6064550360D-03
      0.2035233368D+04  0.4697908888D-02
      0.4632256236D+03  0.2433247765D-01
      0.1312001960D+03  0.9739996831D-01
      0.4285301589D+02  0.3019558425D+00
      0.1558418577D+02  0.6623360914D+00
 Atom C2       Shell    13 S   2     bf   33 -    33          1.770056442292        -10.646072062118          0.000000000000
      0.6206713851D+01  0.6559530854D+00
      0.2576489653D+01  0.3758563329D+00
 Atom C2       Shell    14 S   1     bf   34 -    34          1.770056442292        -10.646072062118          0.000000000000
      0.5769633942D+00  0.1000000000D+01
 Atom C2       Shell    15 S   1     bf   35 -    35          1.770056442292        -10.646072062118          0.000000000000
      0.2297283136D+00  0.1000000000D+01
 Atom C2       Shell    16 S   1     bf   36 -    36          1.770056442292        -10.646072062118          0.000000000000
      0.9516444003D-01  0.1000000000D+01
 Atom C2       Shell    17 P   4     bf   37 -    39          1.770056442292        -10.646072062118          0.000000000000
      0.3469723224D+02  0.1132722000D-01
      0.7958262283D+01  0.7616965920D-01
      0.2378082688D+01  0.3019225220D+00
      0.8143320818D+00  0.7278502735D+00
 Atom C2       Shell    18 P   1     bf   40 -    42          1.770056442292        -10.646072062118          0.000000000000
      0.2888754725D+00  0.1000000000D+01
 Atom C2       Shell    19 P   1     bf   43 -    45          1.770056442292        -10.646072062118          0.000000000000
      0.1005682367D+00  0.1000000000D+01
 Atom C2       Shell    20 D   1     bf   46 -    50          1.770056442292        -10.646072062118          0.000000000000
      0.1097000000D+01  0.1000000000D+01
 Atom C2       Shell    21 D   1     bf   51 -    55          1.770056442292        -10.646072062118          0.000000000000
      0.3180000000D+00  0.1000000000D+01
 Atom C2       Shell    22 F   1     bf   56 -    62          1.770056442292        -10.646072062118          0.000000000000
      0.7610000000D+00  0.1000000000D+01
 Atom C3       Shell    23 S   6     bf   63 -    63         -0.507133849581         -9.345116797151          0.000000000000
      0.1357534968D+05  0.6064550360D-03
      0.2035233368D+04  0.4697908888D-02
      0.4632256236D+03  0.2433247765D-01
      0.1312001960D+03  0.9739996831D-01
      0.4285301589D+02  0.3019558425D+00
      0.1558418577D+02  0.6623360914D+00
 Atom C3       Shell    24 S   2     bf   64 -    64         -0.507133849581         -9.345116797151          0.000000000000
      0.6206713851D+01  0.6559530854D+00
      0.2576489653D+01  0.3758563329D+00
 Atom C3       Shell    25 S   1     bf   65 -    65         -0.507133849581         -9.345116797151          0.000000000000
      0.5769633942D+00  0.1000000000D+01
 Atom C3       Shell    26 S   1     bf   66 -    66         -0.507133849581         -9.345116797151          0.000000000000
      0.2297283136D+00  0.1000000000D+01
 Atom C3       Shell    27 S   1     bf   67 -    67         -0.507133849581         -9.345116797151          0.000000000000
      0.9516444003D-01  0.1000000000D+01
 Atom C3       Shell    28 P   4     bf   68 -    70         -0.507133849581         -9.345116797151          0.000000000000
      0.3469723224D+02  0.1132722000D-01
      0.7958262283D+01  0.7616965920D-01
      0.2378082688D+01  0.3019225220D+00
      0.8143320818D+00  0.7278502735D+00
 Atom C3       Shell    29 P   1     bf   71 -    73         -0.507133849581         -9.345116797151          0.000000000000
      0.2888754725D+00  0.1000000000D+01
 Atom C3       Shell    30 P   1     bf   74 -    76         -0.507133849581         -9.345116797151          0.000000000000
      0.1005682367D+00  0.1000000000D+01
 Atom C3       Shell    31 D   1     bf   77 -    81         -0.507133849581         -9.345116797151          0.000000000000
      0.1097000000D+01  0.1000000000D+01
 Atom C3       Shell    32 D   1     bf   82 -    86         -0.507133849581         -9.345116797151          0.000000000000
      0.3180000000D+00  0.1000000000D+01
 Atom C3       Shell    33 F   1     bf   87 -    93         -0.507133849581         -9.345116797151          0.000000000000
      0.7610000000D+00  0.1000000000D+01
 Atom C4       Shell    34 S   6     bf   94 -    94         -0.531208151565         -6.698152127441          0.000000000000
      0.1357534968D+05  0.6064550360D-03
      0.2035233368D+04  0.4697908888D-02
      0.4632256236D+03  0.2433247765D-01
      0.1312001960D+03  0.9739996831D-01
      0.4285301589D+02  0.3019558425D+00
      0.1558418577D+02  0.6623360914D+00
 Atom C4       Shell    35 S   2     bf   95 -    95         -0.531208151565         -6.698152127441          0.000000000000
      0.6206713851D+01  0.6559530854D+00
      0.2576489653D+01  0.3758563329D+00
 Atom C4       Shell    36 S   1     bf   96 -    96         -0.531208151565         -6.698152127441          0.000000000000
      0.5769633942D+00  0.1000000000D+01
 Atom C4       Shell    37 S   1     bf   97 -    97         -0.531208151565         -6.698152127441          0.000000000000
      0.2297283136D+00  0.1000000000D+01
 Atom C4       Shell    38 S   1     bf   98 -    98         -0.531208151565         -6.698152127441          0.000000000000
      0.9516444003D-01  0.1000000000D+01
 Atom C4       Shell    39 P   4     bf   99 -   101         -0.531208151565         -6.698152127441          0.000000000000
      0.3469723224D+02  0.1132722000D-01
      0.7958262283D+01  0.7616965920D-01
      0.2378082688D+01  0.3019225220D+00
      0.8143320818D+00  0.7278502735D+00
 Atom C4       Shell    40 P   1     bf  102 -   104         -0.531208151565         -6.698152127441          0.000000000000
      0.2888754725D+00  0.1000000000D+01
 Atom C4       Shell    41 P   1     bf  105 -   107         -0.531208151565         -6.698152127441          0.000000000000
      0.1005682367D+00  0.1000000000D+01
 Atom C4       Shell    42 D   1     bf  108 -   112         -0.531208151565         -6.698152127441          0.000000000000
      0.1097000000D+01  0.1000000000D+01
 Atom C4       Shell    43 D   1     bf  113 -   117         -0.531208151565         -6.698152127441          0.000000000000
      0.3180000000D+00  0.1000000000D+01
 Atom C4       Shell    44 F   1     bf  118 -   124         -0.531208151565         -6.698152127441          0.000000000000
      0.7610000000D+00  0.1000000000D+01
 Atom C5       Shell    45 S   6     bf  125 -   125         -2.855209384206         -5.309783481039          0.000000000000
      0.1357534968D+05  0.6064550360D-03
      0.2035233368D+04  0.4697908888D-02
      0.4632256236D+03  0.2433247765D-01
      0.1312001960D+03  0.9739996831D-01
      0.4285301589D+02  0.3019558425D+00
      0.1558418577D+02  0.6623360914D+00
 Atom C5       Shell    46 S   2     bf  126 -   126         -2.855209384206         -5.309783481039          0.000000000000
      0.6206713851D+01  0.6559530854D+00
      0.2576489653D+01  0.3758563329D+00
 Atom C5       Shell    47 S   1     bf  127 -   127         -2.855209384206         -5.309783481039          0.000000000000
      0.5769633942D+00  0.1000000000D+01
 Atom C5       Shell    48 S   1     bf  128 -   128         -2.855209384206         -5.309783481039          0.000000000000
      0.2297283136D+00  0.1000000000D+01
 Atom C5       Shell    49 S   1     bf  129 -   129         -2.855209384206         -5.309783481039          0.000000000000
      0.9516444003D-01  0.1000000000D+01
 Atom C5       Shell    50 P   4     bf  130 -   132         -2.855209384206         -5.309783481039          0.000000000000
      0.3469723224D+02  0.1132722000D-01
      0.7958262283D+01  0.7616965920D-01
      0.2378082688D+01  0.3019225220D+00
      0.8143320818D+00  0.7278502735D+00
 Atom C5       Shell    51 P   1     bf  133 -   135         -2.855209384206         -5.309783481039          0.000000000000
      0.2888754725D+00  0.1000000000D+01
 Atom C5       Shell    52 P   1     bf  136 -   138         -2.855209384206         -5.309783481039          0.000000000000
      0.1005682367D+00  0.1000000000D+01
 Atom C5       Shell    53 D   1     bf  139 -   143         -2.855209384206         -5.309783481039          0.000000000000
      0.1097000000D+01  0.1000000000D+01
 Atom C5       Shell    54 D   1     bf  144 -   148         -2.855209384206         -5.309783481039          0.000000000000
      0.3180000000D+00  0.1000000000D+01
 Atom C5       Shell    55 F   1     bf  149 -   155         -2.855209384206         -5.309783481039          0.000000000000
      0.7610000000D+00  0.1000000000D+01
 Atom C6       Shell    56 S   6     bf  156 -   156         -2.890260129958         -2.730387895026          0.000000000000
      0.1357534968D+05  0.6064550360D-03
      0.2035233368D+04  0.4697908888D-02
      0.4632256236D+03  0.2433247765D-01
      0.1312001960D+03  0.9739996831D-01
      0.4285301589D+02  0.3019558425D+00
      0.1558418577D+02  0.6623360914D+00
[...]
 .,0.00003396,-0.00000295,0.,-0.00002207,-0.00006519,0.,0.00008940,0.00
 004644,0.,0.00002487,-0.00058006,0.,0.00135091,0.00067965,0.,-0.000794
 56,0.00106029,0.,0.00017255,-0.00323956,0.,0.00002751,-0.00005063,0.,0
 .00007032,0.00022821,0.,-0.00002323,-0.00002086,0.,0.00001996,0.000051
 27,0.,-0.00002445,-0.00006301,0.,0.00000631,0.00004774,0.,-0.00001854,
 0.00004774,0.,0.00002828,-0.00001219,0.,0.02712939,0.00603436,0.,0.001
 90622,-0.00487931,0.,0.00003905,-0.00135122,0.,-0.00261754,-0.00451706
 ,0.,-0.02971339,0.00444154,0.,0.01130628,-0.05979962,0.,-0.00057177,0.
 00021785,0.,0.00004075,0.00000563,0.,0.00003349,-0.00005076,0.,-0.0000
 5152,0.00002306,0.,0.00007797,0.00009334,0.,-0.00003352,0.00003950,0.,
 0.00001969,-0.00001959,0.,-0.00001719,0.00003507,0.,-0.00003992,-0.000
 02825,0.,-0.00001947,0.00007797,0.,0.00000217,0.00000011,0.,-0.0000009
 9,-0.00000605,0.,-0.00000310,-0.00000005,0.,-0.00000664,0.00002776,0.,
 -0.00329676,-0.00426918,0.,0.00000272,0.00000305,0.,-0.00000475,-0.000
 00382,0.,0.00003438,0.00011574,0.,-0.00134327,0.00003673,0.,0.00024648
 ,0.00082585,0.,-0.00401344,0.06480558,0.,0.,0.00000471,0.,0.,0.0000053
 7,0.,0.,-0.00000585,0.,0.,-0.00006687,0.,0.,-0.00000816,0.,0.,0.000180
 87,0.,0.,-0.00279258,0.,0.,-0.00048168,0.,0.,-0.00017815,0.,0.,-0.0000
 0802,0.,0.,-0.00007256,0.,0.,0.00009928,0.,0.,-0.00003089,0.,0.,0.0000
 0711,0.,0.,-0.00000989,0.,0.,0.00003673,0.,0.,0.00190297,0.,0.,0.00692
 812,0.,0.,-0.00121661,0.,0.,0.00863104,0.,0.,0.00341635,0.,0.,-0.03624
 420,0.,0.,-0.00034638,0.,0.,-0.00002045,0.,0.,-0.00003264,0.,0.,0.0000
 1212,0.,0.,0.00001406,0.,0.,0.00004569,0.,0.,-0.00001217,0.,0.,0.00003
 699,0.,0.,-0.00011191,0.,0.,0.00021198,0.,0.,-0.00000298,0.,0.,0.00000
 255,0.,0.,-0.00000207,0.,0.,0.00000245,0.,0.,0.00215384,0.,0.,0.000003
 89,0.,0.,0.00000193,0.,0.,-0.00096762,0.,0.,-0.00007386,0.,0.,-0.00437
 291,0.,0.,0.02331458,-0.00002773,-0.00003923,0.,-0.00002345,0.00004381
 ,0.,0.00005029,-0.00002550,0.,-0.00006210,0.00004739,0.,0.00004773,-0.
 00003634,0.,-0.00005825,0.00001554,0.,0.00016124,-0.00049044,0.,0.0012
 1671,0.00199446,0.,0.00001449,0.00014501,0.,0.00018541,-0.00015145,0.,
 -0.00000730,0.00012138,0.,-0.00016043,0.00012137,0.,-0.00002551,-0.000
 04606,0.,-0.00004101,-0.00000842,0.,0.00004327,0.00001384,0.,0.0000115
 3,-0.00000957,0.,-0.00001281,-0.00000468,0.,-0.00002827,0.00002283,0.,
 0.00002230,-0.00000970,0.,0.00000258,0.00000712,0.,0.00004824,-0.00003
 411,0.,-0.00010632,0.00003189,0.,-0.01066183,0.02880061,0.,-0.12704210
 ,0.11903397,0.,0.01195378,-0.01557502,0.,-0.00091975,-0.00329806,0.,-0
 .00539379,-0.00162937,0.,-0.00100719,-0.00060145,0.,0.00035944,-0.0000
 8024,0.,-0.00022734,-0.00018442,0.,-0.00028682,-0.00006189,0.,0.000036
 83,0.00168821,0.,-0.00000151,0.00000016,0.,0.00000084,0.00000006,0.,-0
 .00000369,-0.00000193,0.,-0.00001002,-0.00000308,0.,-0.00037630,-0.001
 33761,0.,0.00000594,-0.00000336,0.,-0.00000777,0.00000095,0.,0.0000046
 4,0.00000303,0.,0.00000797,0.00000097,0.,-0.00000492,-0.00000468,0.,0.
 00001073,-0.00004817,0.,0.13115539,-0.00004436,-0.00002016,0.,0.000004
 69,0.00005592,0.,0.00005633,-0.00002849,0.,-0.00004518,0.00004468,0.,0
 .00007616,-0.00002750,0.,-0.00007005,-0.00004064,0.,0.00046747,0.00005
 310,0.,-0.00182318,0.00097073,0.,-0.00022964,0.00021799,0.,0.00016829,
 -0.00000641,0.,0.00003408,0.00012598,0.,-0.00017779,-0.00003926,0.,0.0
 0004352,-0.00001139,0.,-0.00003038,-0.00002331,0.,0.00005422,0.0000035
 0,0.,-0.00003160,0.00001345,0.,-0.00001131,-0.00008194,0.,0.00003080,0
 .00000260,0.,0.00000121,0.00001232,0.,0.00001613,0.00000868,0.,-0.0000
 0498,-0.00000498,0.,0.00001328,0.00004009,0.,-0.00123715,0.00170212,0.
 ,0.11922526,-0.27219988,0.,0.01610022,-0.01829776,0.,-0.00407143,-0.00
 289503,0.,-0.00048764,0.00126514,0.,-0.00070740,0.00034763,0.,0.000160
 92,-0.00004759,0.,-0.00007232,-0.00006089,0.,0.00020912,0.00005360,0.,
 -0.00032827,-0.00003062,0.,0.00000037,-0.00000362,0.,0.00000390,0.0000
 0108,0.,0.00000203,0.00000290,0.,0.00000634,0.00000151,0.,0.00042175,0
 .00023475,0.,-0.00000612,0.00000323,0.,0.00000396,-0.00000244,0.,0.000
 00302,-0.00000014,0.,0.00000260,0.00000313,0.,-0.00000033,0.00000769,0
 .,0.00000523,-0.00000871,0.,-0.12814984,0.28884459,0.,0.,0.00000112,0.
 ,0.,-0.00000259,0.,0.,-0.00000300,0.,0.,0.00000264,0.,0.,-0.00001463,0
 .,0.,0.00002981,0.,0.,-0.00026689,0.,0.,-0.00368624,0.,0.,0.00018463,0
 .,0.,-0.00000199,0.,0.,0.00002275,0.,0.,0.00002984,0.,0.,-0.00013460,0
 .,0.,-0.00001026,0.,0.,-0.00001118,0.,0.,-0.00000456,0.,0.,0.00026937,
 0.,0.,-0.00001852,0.,0.,-0.00000706,0.,0.,-0.00001133,0.,0.,0.00000684
 ,0.,0.,-0.00006837,0.,0.,0.00302752,0.,0.,-0.03553167,0.,0.,0.00288368
 ,0.,0.,0.00750464,0.,0.,0.00638923,0.,0.,-0.00099831,0.,0.,-0.00099206
 ,0.,0.,0.00009741,0.,0.,-0.00003939,0.,0.,0.00011271,0.,0.,0.00000284,
 0.,0.,0.00000076,0.,0.,0.00000312,0.,0.,0.00000562,0.,0.,0.00026507,0.
 ,0.,-0.00000099,0.,0.,0.00002771,0.,0.,-0.00000207,0.,0.,0.00000364,0.
 ,0.,0.00000699,0.,0.,0.00004629,0.,0.,0.02463488,-0.00001762,0.0000061
 3,0.,0.00001907,-0.00000113,0.,-0.00001910,0.00000308,0.,-0.00000060,-
 0.00002897,0.,-0.00001209,-0.00002564,0.,-0.00000902,0.00002510,0.,-0.
 00005635,-0.00028401,0.,-0.00065385,0.00045141,0.,0.00003080,-0.000026
 97,0.,-0.00000648,-0.00001361,0.,0.00002367,0.00000457,0.,0.00000321,0
 .00000183,0.,-0.00000722,-0.00002210,0.,-0.00000016,0.00001822,0.,-0.0
 0001359,0.00001761,0.,0.00000291,-0.00000118,0.,-0.00003296,0.00007813
 ,0.,-0.00000035,-0.00003882,0.,0.00000113,-0.00000540,0.,-0.00001332,-
 0.00002031,0.,-0.00000630,0.00000800,0.,-0.00001704,-0.00002632,0.,0.0
 0072784,-0.00294662,0.,-0.01175487,0.00321705,0.,-0.34193957,0.0037611
 1,0.,-0.01098359,-0.00280102,0.,0.00065670,-0.00002968,0.,0.00084530,0
 .00285096,0.,-0.00060388,-0.00046502,0.,-0.00007104,0.00033353,0.,0.00
 001502,0.00002333,0.,-0.00001023,-0.00000310,0.,0.00000014,0.00000402,
 0.,-0.00000720,0.,0.,0.00000078,-0.00000390,0.,-0.00000429,0.00000014,
 0.,0.00001298,-0.00002537,0.,0.00000862,-0.00000363,0.,-0.00000579,0.0
 0000211,0.,-0.00000439,0.00000096,0.,-0.00000323,-0.00000440,0.,0.0000
 0147,-0.00000969,0.,-0.00000045,0.00001108,0.,0.00080221,-0.00031918,0
 .,0.36238644,0.00008369,0.00005052,0.,0.00000193,-0.00009513,0.,-0.000
 08652,0.00004789,0.,0.00009217,-0.00006575,0.,-0.00010298,0.00006527,0
 .,0.00010660,0.00001542,0.,-0.00042090,-0.00029442,0.,-0.00085860,0.00
 079288,0.,0.00038050,-0.00017702,0.,-0.00025967,0.00008982,0.,-0.00003
 645,-0.00021676,0.,0.00030221,0.00010912,0.,-0.00006263,0.00003784,0.,
 0.00006675,0.00004450,0.,-0.00008643,-0.00002544,0.,0.00003086,-0.0000
 0855,0.,-0.00007935,0.00010509,0.,-0.00001809,-0.00003455,0.,-0.000012
 08,-0.00000494,0.,-0.00001684,-0.00000721,0.,0.00000383,0.00001337,0.,
 -0.00000365,-0.00002621,0.,-0.00251686,-0.00481140,0.,-0.02840574,0.00
 540981,0.,0.00385314,-0.06081741,0.,0.02876886,0.00476949,0.,-0.000080
 28,-0.00115648,0.,0.00238393,-0.00495712,0.,0.00091221,0.00079829,0.,0
 .00041786,-0.00031494,0.,-0.00043374,-0.00017160,0.,0.00004179,0.00008
 371,0.,0.00000081,0.00000077,0.,0.00000009,-0.00000116,0.,-0.00000006,
 0.00000113,0.,0.00000038,0.00000087,0.,0.00002389,-0.00002265,0.,-0.00
 000783,0.00001325,0.,0.00000162,0.00000011,0.,-0.00000416,-0.00000601,
 0.,-0.00000152,-0.00000062,0.,-0.00000108,-0.00000557,0.,-0.00000539,0
 .00000946,0.,0.00044045,0.00082258,0.,-0.00406109,0.05914753,0.,0.,-0.
 00000554,0.,0.,-0.00000068,0.,0.,-0.00000156,0.,0.,0.00000013,0.,0.,-0
 .00000609,0.,0.,-0.00000852,0.,0.,-0.00045965,0.,0.,0.00020127,0.,0.,0
 .00007402,0.,0.,0.00004864,0.,0.,-0.00000829,0.,0.,0.00005709,0.,0.,-0
 .00001034,0.,0.,0.00000725,0.,0.,0.00000195,0.,0.,0.00000490,0.,0.,-0.
 00003191,0.,0.,0.00002409,0.,0.,0.00000023,0.,0.,-0.00000123,0.,0.,-0.
 00000013,0.,0.,-0.00001304,0.,0.,0.00806669,0.,0.,0.00270290,0.,0.,-0.
 03768308,0.,0.,0.00257502,0.,0.,-0.00087848,0.,0.,0.00772048,0.,0.,0.0
 0018462,0.,0.,-0.00039647,0.,0.,0.00007205,0.,0.,-0.00084131,0.,0.,0.0
 0000087,0.,0.,0.00000168,0.,0.,0.00000076,0.,0.,0.00000236,0.,0.,0.000
 11384,0.,0.,-0.00000498,0.,0.,0.00000170,0.,0.,0.00000255,0.,0.,0.0000
 0089,0.,0.,0.00000242,0.,0.,0.00000261,0.,0.,-0.00404693,0.,0.,0.02627
 096,0.00005908,0.00002301,0.,-0.00001891,-0.00005608,0.,-0.00004271,0.
 00003295,0.,0.00004827,-0.00003115,0.,-0.00006488,0.00002934,0.,0.0000
 2176,0.00002938,0.,-0.00023893,0.00016752,0.,0.00038596,0.00009344,0.,
 -0.00031576,0.00007059,0.,-0.00013862,-0.00012599,0.,-0.00004583,-0.00
 012704,0.,0.00020406,0.00016198,0.,-0.00006993,0.00000601,0.,0.0000312
 9,0.00002459,0.,-0.00005912,-0.00002030,0.,0.00004019,0.00000668,0.,0.
 00002968,0.00002443,0.,-0.00002020,0.00001165,0.,0.00000105,-0.0000073
 5,0.,-0.00000915,-0.00000153,0.,0.00000539,0.00000376,0.,-0.00000686,-
 0.00001899,0.,-0.00097459,0.00059744,0.,-0.00074109,0.00325935,0.,0.01
 194665,0.01470134,0.,-0.13379706,-0.12281571,0.,-0.00540174,0.00173978
 ,0.,-0.01148978,-0.02855721,0.,0.00123421,-0.00185603,0.,0.00018938,0.
 00044103,0.,-0.00001218,-0.00014263,0.,0.00007351,-0.00167741,0.,-0.00
 000237,0.00000228,0.,0.00000007,-0.00000080,0.,-0.00000151,-0.00000040
 ,0.,-0.00000795,-0.00000220,0.,-0.00002298,-0.00006898,0.,-0.00000552,
 0.00001211,0.,-0.00000476,0.00000252,0.,-0.00000241,-0.00000213,0.,-0.
 00000085,-0.00000114,0.,-0.00000018,-0.00000246,0.,-0.00000229,0.00000
 362,0.,0.00037738,0.00075376,0.,0.00078225,-0.00046609,0.,0.13841347,-
 0.00005468,-0.00002836,0.,-0.00000382,0.00005390,0.,0.00004242,-0.0000
 1934,0.,-0.00005196,0.00002100,0.,0.00004036,-0.00003090,0.,-0.0000457
 7,-0.00000508,0.,0.00009746,-0.00004805,0.,-0.00019012,-0.00005796,0.,
 -0.00018595,0.00005925,0.,0.00016115,-0.00003192,0.,-0.00000029,0.0001
 3715,0.,-0.00019433,-0.00002933,0.,0.00003355,-0.00004831,0.,-0.000050
 99,-0.00002193,0.,0.00004197,0.00001986,0.,-0.00000600,0.00001374,0.,-
 0.00000405,0.00002168,0.,-0.00000022,-0.00002219,0.,-0.00000033,0.0000
 0294,0.,-0.00000202,-0.00001117,0.,-0.00001126,0.00000477,0.,0.0000070
 7,-0.00001438,0.,0.00076305,0.00032365,0.,0.00400598,-0.00311946,0.,-0
 .01688946,-0.01809971,0.,-0.12313194,-0.26604763,0.,0.00074866,0.00122
 594,0.,0.00159308,0.00264439,0.,0.00166594,0.00103219,0.,-0.00047212,0
 .00002319,0.,0.00027863,0.00020539,0.,0.00027478,0.00002187,0.,-0.0000
 0220,0.00000298,0.,-0.00000401,0.00000084,0.,-0.00000019,-0.00000361,0
 .,-0.00000250,-0.00000238,0.,0.00003829,0.00003992,0.,0.00000485,-0.00
 000191,0.,-0.00000569,0.00000279,0.,-0.00000372,0.00000020,0.,-0.00000
 314,-0.00000320,0.,0.00000217,-0.00000337,0.,-0.00000234,0.00001269,0.
 ,-0.00078728,-0.00102664,0.,0.00031827,0.00082910,0.,0.13252104,0.2818
 1626,0.,0.,-0.00000487,0.,0.,-0.00000195,0.,0.,0.00000284,0.,0.,-0.000
 01726,0.,0.,-0.00001186,0.,0.,-0.00013397,0.,0.,0.00010225,0.,0.,-0.00
 093241,0.,0.,-0.00004799,0.,0.,0.00001305,0.,0.,0.00004138,0.,0.,-0.00
 002707,0.,0.,0.00001802,0.,0.,-0.00001225,0.,0.,-0.00000313,0.,0.,-0.0
 0000847,0.,0.,0.00011061,0.,0.,-0.00002050,0.,0.,-0.00000222,0.,0.,-0.
 00000433,0.,0.,-0.00000187,0.,0.,-0.00001127,0.,0.,-0.00105467,0.,0.,0
 .00720227,0.,0.,0.00269817,0.,0.,-0.03552987,0.,0.,0.00674958,0.,0.,0.
 00307405,0.,0.,-0.00398497,0.,0.,-0.00016432,0.,0.,0.00019364,0.,0.,0.
 00010229,0.,0.,0.00000350,0.,0.,0.00000087,0.,0.,0.00000284,0.,0.,0.00
 004286,0.,0.,0.00004502,0.,0.,0.00000694,0.,0.,0.00000717,0.,0.,-0.000
 00298,0.,0.,0.00000239,0.,0.,0.00000222,0.,0.,0.00000359,0.,0.,0.00014
 391,0.,0.,-0.00380312,0.,0.,0.02472588,0.00004865,0.00001860,0.,-0.000
 00577,-0.00005093,0.,-0.00004998,0.00000561,0.,-0.00001800,-0.00000351
 ,0.,-0.00003667,0.00000691,0.,0.00003511,0.00004742,0.,-0.00002755,-0.
 00001814,0.,-0.00018798,0.00015068,0.,0.00021707,0.00003162,0.,-0.0001
 1934,0.00008948,0.,-0.00047851,0.00005170,0.,0.00012500,-0.00157658,0.
 ,-0.00000442,-0.00002444,0.,0.00003771,0.00008235,0.,-0.00005100,-0.00
 000910,0.,0.00000839,-0.00017641,0.,0.00002189,-0.00001592,0.,-0.00001
 376,0.00000754,0.,0.00000718,-0.00000832,0.,0.00000227,-0.00000026,0.,
 0.00000552,-0.00000853,0.,-0.00001055,-0.00000063,0.,0.00049570,0.0006
 6553,0.,0.00023714,0.00013389,0.,0.00002793,-0.00044620,0.,0.00138521,
 0.00128529,0.,-0.00165368,0.00265827,0.,0.01043710,0.01398870,0.,-0.13
 095636,-0.12167157,0.,-0.01219528,-0.02938263,0.,-0.00505257,0.0021319
 6,0.,-0.00046345,0.00029744,0.,-0.00000471,0.00000580,0.,-0.00000584,-
 0.00000154,0.,-0.00000784,-0.00000389,0.,-0.00000653,-0.00000357,0.,0.
 00004762,0.00006508,0.,-0.00001997,0.00000274,0.,-0.00003060,0.0000051
 0,0.,-0.00000003,0.00000469,0.,-0.00000067,-0.00000319,0.,0.00000109,-
 0.00000306,0.,0.00000543,-0.00000114,0.,-0.00002546,-0.00003235,0.,0.0
 0000779,-0.00001837,0.,-0.00030818,-0.00048154,0.,0.13788947,-0.000014
 11,-0.00001401,0.,-0.00001525,0.00001645,0.,0.00001544,-0.00000123,0.,
 -0.00001566,0.00000590,0.,-0.00000459,0.00001598,0.,-0.00000643,-0.000
 01989,0.,-0.00003539,0.00005877,0.,0.00041442,-0.00024048,0.,-0.000084
 89,-0.00006313,0.,0.00006507,-0.00002228,0.,-0.00003755,0.00009210,0.,
 -0.00004769,0.00005959,0.,-0.00000348,-0.00001744,0.,-0.00003472,-0.00
 002859,0.,0.00000777,0.00000582,0.,0.00001424,0.00001114,0.,0.00000911
 ,0.00003927,0.,0.00000252,-0.00002396,0.,-0.00000029,0.00000041,0.,-0.
 00001186,-0.00001543,0.,-0.00001178,0.00001217,0.,-0.00000264,-0.00002
 816,0.,-0.00144846,-0.00069088,0.,0.00013764,0.00016696,0.,0.00032088,
 -0.00001682,0.,-0.00175321,0.00123201,0.,0.00413281,-0.00274127,0.,-0.
 01630172,-0.01889633,0.,-0.12304014,-0.26790079,0.,0.00284296,0.004109
 60,0.,0.00100758,0.00141784,0.,0.00072209,0.00026108,0.,-0.00000241,0.
 00000274,0.,-0.00000202,0.00000016,0.,-0.00000087,-0.00000237,0.,-0.00
 000195,-0.00000327,0.,-0.00005978,-0.00013279,0.,0.00000389,-0.0000164
 5,0.,-0.00000460,0.00000434,0.,-0.00000553,-0.00000380,0.,-0.00000318,
 -0.00000236,0.,0.00000125,-0.00000459,0.,-0.00000845,0.00001514,0.,0.0
 0006954,0.00002795,0.,0.00003466,-0.00003600,0.,0.00124469,0.00016216,
 0.,0.13212100,0.28210231,0.,0.,0.00000107,0.,0.,-0.00002667,0.,0.,-0.0
 0000450,0.,0.,0.00001790,0.,0.,-0.00002409,0.,0.,0.00015123,0.,0.,0.00
 001764,0.,0.,0.00002134,0.,0.,-0.00064958,0.,0.,0.00006573,0.,0.,-0.00
 092940,0.,0.,0.00015546,0.,0.,0.00038156,0.,0.,-0.00009441,0.,0.,0.000
 08679,0.,0.,-0.00002054,0.,0.,0.00000836,0.,0.,-0.00000609,0.,0.,-0.00
 000426,0.,0.,0.00000141,0.,0.,-0.00000184,0.,0.,0.00000133,0.,0.,0.000
 06787,0.,0.,-0.00000560,0.,0.,-0.00019177,0.,0.,-0.00191009,0.,0.,0.00
 392334,0.,0.,0.00276086,0.,0.,-0.03664039,0.,0.,0.00393089,0.,0.,0.010
 41291,0.,0.,-0.00091093,0.,0.,0.00000717,0.,0.,0.00000170,0.,0.,0.0000
 2771,0.,0.,-0.00002167,0.,0.,-0.00002197,0.,0.,-0.00003088,0.,0.,-0.00
 001386,0.,0.,0.00000193,0.,0.,0.00000037,0.,0.,0.00000102,0.,0.,-0.000
 00054,0.,0.,0.00004256,0.,0.,0.00008067,0.,0.,0.00023082,0.,0.,0.02508
 246,-0.00006413,0.00005568,0.,0.00000689,0.00005659,0.,0.00005479,0.00
 003236,0.,-0.00001100,-0.00005359,0.,0.00000879,-0.00005211,0.,-0.0000
 2963,0.00005165,0.,-0.00023581,-0.00018544,0.,-0.00001789,0.00003038,0
 .,0.00068292,-0.00060132,0.,0.00014285,-0.00000190,0.,0.00010281,0.000
 16865,0.,-0.00017388,0.00111409,0.,-0.00259424,-0.00153420,0.,0.000011
 52,0.00023503,0.,0.00004044,-0.00004644,0.,0.00006198,0.00012522,0.,0.
 00006917,-0.00006005,0.,0.00000900,0.00000299,0.,-0.00000715,0.0000098
 9,0.,0.00000082,0.00000109,0.,0.00000486,-0.00000320,0.,-0.00001923,-0
 .00000983,0.,0.00022845,-0.00001516,0.,-0.00013060,-0.00018504,0.,-0.0
 0050476,0.00010768,0.,0.00018794,0.00139275,0.,-0.00049566,-0.00033955
 ,0.,-0.00546884,-0.00179082,0.,-0.01228993,0.03103674,0.,-0.11849204,0
 .11722447,0.,0.01282308,-0.01392205,0.,-0.00210304,-0.00290386,0.,-0.0
 0000576,-0.00000479,0.,0.00000879,0.00000789,0.,0.00000607,0.00000608,
 0.,-0.00000036,0.00000789,0.,0.00000964,0.00001115,0.,-0.00520500,-0.0
 0034386,0.,-0.00002007,-0.00000384,0.,-0.00000028,-0.00000267,0.,0.000
 00094,0.00000194,0.,-0.00000252,-0.00000072,0.,0.00000090,-0.00000190,
 0.,0.00000274,0.00001582,0.,-0.00007372,0.00013283,0.,-0.00003727,-0.0
 0005079,0.,0.00069146,-0.00020893,0.,0.13282596,-0.00001307,0.00016667
 ,0.,0.00003506,-0.00001624,0.,-0.00001909,0.00007943,0.,0.00000267,-0.
 00014251,0.,-0.00005607,-0.00008255,0.,-0.00002019,0.00014864,0.,-0.00
 041289,-0.00022184,0.,0.00002407,0.00004166,0.,0.00124441,-0.00067552,
 0.,0.00000063,0.00000129,0.,-0.00013528,-0.00005472,0.,0.00162480,-0.0
 0007912,0.,0.00086038,-0.00081635,0.,0.00000370,0.00097267,0.,0.000116
 41,-0.00006208,0.,0.00015562,0.00000613,0.,0.00014351,-0.00006224,0.,0
 .00000470,-0.00000549,0.,-0.00000221,0.00000061,0.,-0.00000583,-0.0000
 1138,0.,0.00000663,-0.00000632,0.,-0.00004721,-0.00003696,0.,0.0000867
 0,-0.00003548,0.,-0.00009366,0.00000055,0.,0.00011490,0.00010093,0.,0.
 00001462,-0.00007319,0.,-0.00065925,0.00032842,0.,-0.00067225,0.001501
 06,0.,-0.00199678,0.00285954,0.,0.11855636,-0.28536766,0.,0.01414942,-
 0.01820632,0.,-0.00406719,-0.00234157,0.,-0.00001206,-0.00000167,0.,0.
 00000369,0.00001308,0.,0.00000332,0.00000309,0.,-0.00001184,0.00001050
 ,0.,0.00002019,-0.00001503,0.,0.00044863,0.00220211,0.,-0.00000269,-0.
 00001636,0.,-0.00000391,0.00000314,0.,-0.00000184,-0.00000377,0.,-0.00
 000071,-0.00000886,0.,0.00000348,0.00000487,0.,0.00001929,-0.00000957,
 0.,-0.00000413,-0.00000089,0.,0.00001730,-0.00000102,0.,0.00008443,0.0
 0110246,0.,-0.12950679,0.29880784,0.,0.,0.00003085,0.,0.,-0.00001537,0
 .,0.,0.00001340,0.,0.,-0.00000352,0.,0.,0.00001543,0.,0.,-0.00003647,0
 .,0.,0.00014245,0.,0.,-0.00002129,0.,0.,0.00000368,0.,0.,0.00002758,0.
 ,0.,-0.00026748,0.,0.,-0.00125075,0.,0.,-0.00061742,0.,0.,-0.00009792,
 0.,0.,0.00005391,0.,0.,0.00007486,0.,0.,-0.00011610,0.,0.,0.00007567,0
 .,0.,-0.00001675,0.,0.,0.00000394,0.,0.,-0.00000435,0.,0.,0.00001865,0
 .,0.,-0.00069258,0.,0.,0.00009756,0.,0.,-0.00082239,0.,0.,0.00002414,0
 .,0.,-0.00096405,0.,0.,0.01087116,0.,0.,0.00432716,0.,0.,-0.03588434,0
 .,0.,0.00162531,0.,0.,0.00415347,0.,0.,0.00000694,0.,0.,-0.00000498,0.
 ,0.,-0.00000099,0.,0.,-0.00000660,0.,0.,0.00003235,0.,0.,0.00189102,0.
 ,0.,-0.00003088,0.,0.,0.00000389,0.,0.,0.00000063,0.,0.,0.00000161,0.,
 0.,-0.00000611,0.,0.,0.00010705,0.,0.,-0.00002126,0.,0.,0.00025520,0.,
 0.,-0.00597300,0.,0.,0.02299669\\-0.00000095,-0.00000134,0.,0.00000010
 ,0.00000146,0.,0.00000122,-0.00000019,0.,-0.00000198,-0.00000053,0.,0.
 00000127,0.00000007,0.,-0.00000142,-0.00000039,0.,0.00000145,-0.000001
 17,0.,-0.00000294,-0.00000078,0.,-0.00000126,-0.00000026,0.,0.00000095
 ,-0.00000012,0.,0.00000168,0.00000248,0.,-0.00000390,-0.00000204,0.,-0
 .00000086,0.00000079,0.,0.00000047,0.00000069,0.,0.00000150,-0.0000009
 1,0.,-0.00000101,0.00000111,0.,0.00000074,0.00000026,0.,-0.00000024,0.
 00000024,0.,0.00000077,0.00000101,0.,-0.00000116,-0.00000069,0.,0.0000
 0110,-0.00000039,0.,-0.00000085,0.00000223,0.,0.00000184,-0.00000039,0
 .,-0.00000122,-0.00000032,0.,-0.00000009,0.00000134,0.,0.00000085,-0.0
 0000134,0.,0.00000113,0.00000125,0.,-0.00000150,-0.00000088,0.,-0.0000
 0037,0.00000070,0.,0.00000082,0.00000070,0.,0.00000380,-0.00000225,0.,
 -0.00000174,0.00000249,0.,0.00000008,0.00000034,0.,-0.00000009,-0.0000
 0011,0.,-0.00000006,-0.00000023,0.,-0.00000036,0.00000013,0.,0.0000002
 9,-0.00000174,0.,-0.00000078,-0.00000079,0.,-0.00000039,-0.00000006,0.
 ,-0.00000001,-0.00000038,0.,0.,0.00000015,0.,0.00000015,0.00000028,0.,
 0.00000178,0.00000057,0.,0.00000009,-0.00000024,0.,0.00000008,-0.00000
 015,0.,-0.00000009,0.00000033,0.,0.00000039,-0.00000007,0.,0.00000074,
 -0.00000084,0.\\\@


 NOTHING WILL BE ATTEMPTED IF ALL POSSIBLE OBJECTIONS
 MUST FIRST BE OVERCOME.

                               -- THE GOLDEN PRINCIPLE,
                    PAUL DICKSON'S "THE OFFICIAL RULES"
 Job cpu time:       4 days  8 hours 59 minutes 19.4 seconds.
 File lengths (MBytes):  RWF=   4428 Int=      0 D2E=      0 Chk=     85 Scr=      1
 Normal termination of Gaussian 09 at Sat Jul 27 23:10:45 2019.
