 Entering Gaussian System, Link 0=g09
 Initial command:
 /home/minenky/programs//g09/l1.exe "/local/scratch/minenky/m1_00_594-11-60_C4H8_wB97XD/Gau-127391.inp" -scrdir="/local/scratch/minenky/m1_00_594-11-60_C4H8_wB97XD/"
 Entering Link 1 = /home/minenky/programs//g09/l1.exe PID=    127403.
  
 Copyright (c) 1988,1990,1992,1993,1995,1998,2003,2009,2013,
            Gaussian, Inc.  All Rights Reserved.
  
 This is part of the Gaussian(R) 09 program.  It is based on
 the Gaussian(R) 03 system (copyright 2003, Gaussian, Inc.),
 the Gaussian(R) 98 system (copyright 1998, Gaussian, Inc.),
 the Gaussian(R) 94 system (copyright 1995, Gaussian, Inc.),
 the Gaussian 92(TM) system (copyright 1992, Gaussian, Inc.),
 the Gaussian 90(TM) system (copyright 1990, Gaussian, Inc.),
 the Gaussian 88(TM) system (copyright 1988, Gaussian, Inc.),
 the Gaussian 86(TM) system (copyright 1986, Carnegie Mellon
 University), and the Gaussian 82(TM) system (copyright 1983,
 Carnegie Mellon University). Gaussian is a federally registered
 trademark of Gaussian, Inc.
  
 This software contains proprietary and confidential information,
 including trade secrets, belonging to Gaussian, Inc.
  
 This software is provided under written license and may be
 used, copied, transmitted, or stored only in accord with that
 written license.
  
 The following legend is applicable only to US Government
 contracts under FAR:
  
                    RESTRICTED RIGHTS LEGEND
  
 Use, reproduction and disclosure by the US Government is
 subject to restrictions as set forth in subparagraphs (a)
 and (c) of the Commercial Computer Software - Restricted
 Rights clause in FAR 52.227-19.
  
 Gaussian, Inc.
 340 Quinnipiac St., Bldg. 40, Wallingford CT 06492
  
  
 ---------------------------------------------------------------
 Warning -- This program may not be used in any manner that
 competes with the business of Gaussian, Inc. or will provide
 assistance to any competitor of Gaussian, Inc.  The licensee
 of this program is prohibited from giving any competitor of
 Gaussian, Inc. access to this program.  By using this program,
 the user acknowledges that Gaussian, Inc. is engaged in the
 business of creating and licensing software in the field of
 computational chemistry and represents and warrants to the
 licensee that it is not a competitor of Gaussian, Inc. and that
 it will not use this program in any manner prohibited above.
 ---------------------------------------------------------------
  

 Cite this work as:
 Gaussian 09, Revision D.01,
 M. J. Frisch, G. W. Trucks, H. B. Schlegel, G. E. Scuseria, 
 M. A. Robb, J. R. Cheeseman, G. Scalmani, V. Barone, B. Mennucci, 
 G. A. Petersson, H. Nakatsuji, M. Caricato, X. Li, H. P. Hratchian, 
 A. F. Izmaylov, J. Bloino, G. Zheng, J. L. Sonnenberg, M. Hada, 
 M. Ehara, K. Toyota, R. Fukuda, J. Hasegawa, M. Ishida, T. Nakajima, 
 Y. Honda, O. Kitao, H. Nakai, T. Vreven, J. A. Montgomery, Jr., 
 J. E. Peralta, F. Ogliaro, M. Bearpark, J. J. Heyd, E. Brothers, 
 K. N. Kudin, V. N. Staroverov, T. Keith, R. Kobayashi, J. Normand, 
 K. Raghavachari, A. Rendell, J. C. Burant, S. S. Iyengar, J. Tomasi, 
 M. Cossi, N. Rega, J. M. Millam, M. Klene, J. E. Knox, J. B. Cross, 
 V. Bakken, C. Adamo, J. Jaramillo, R. Gomperts, R. E. Stratmann, 
 O. Yazyev, A. J. Austin, R. Cammi, C. Pomelli, J. W. Ochterski, 
 R. L. Martin, K. Morokuma, V. G. Zakrzewski, G. A. Voth, 
 P. Salvador, J. J. Dannenberg, S. Dapprich, A. D. Daniels, 
 O. Farkas, J. B. Foresman, J. V. Ortiz, J. Cioslowski, 
 and D. J. Fox, Gaussian, Inc., Wallingford CT, 2013.
 
 ******************************************
 Gaussian 09:  AM64L-G09RevD.01 24-Apr-2013
                 9-Jul-2021 
 ******************************************
 %Mem=32000MB
 %NProcShared=16
 Will use up to   16 processors via shared memory.
 %Chk=m1_00_594-11-60_C4H8_wB97XD
 ----------------------------------------------------------------------
 #P wB97XD/def2tzvp opt=(tight) freq integral(Grid=ultrafine) # SCF(Max
 Cycle=380) 5d 7f GFPrint
 ----------------------------------------------------------------------
 1/7=10,14=-1,18=20,19=15,26=4,38=1/1,3;
 2/9=110,12=2,17=6,18=5,40=1/2;
 3/5=44,7=101,8=11,11=2,16=1,24=100,25=1,30=1,71=1,74=-58,75=-5/1,2,3;
 4//1;
 5/5=2,7=380,38=5/2;
 6/7=2,8=2,9=2,10=2,28=1/1;
 7//1,2,3,16;
 1/7=10,14=-1,18=20,19=15,26=4/3(2);
 2/9=110/2;
 99//99;
 2/9=110/2;
 3/5=44,7=101,8=11,11=2,16=1,25=1,30=1,71=1,74=-58,75=-5/1,2,3;
 4/5=5,16=3,69=1/1;
 5/5=2,7=380,38=5/2;
 7//1,2,3,16;
 1/7=10,14=-1,18=20,19=15,26=4/3(-5);
 2/9=110/2;
 6/7=2,8=2,9=2,10=2,19=2,28=1/1;
 99/9=1/99;
 Leave Link    1 at Fri Jul  9 19:19:35 2021, MaxMem=  4194304000 cpu:         1.0
 (Enter /home/minenky/programs//g09/l101.exe)
 ---------------------------------------
 The PBEPBE optimization and frequencies
 ---------------------------------------
 Symbolic Z-matrix:
 Charge =  0 Multiplicity = 1
 C                    -0.3465    0.40227   0. 
 C                    -0.3465   -0.89776   0.75373 
 C                    -0.3465   -0.89776  -0.75373 
 H                    -1.2499   -1.20199   1.26495 
 H                     0.5679   -1.18395   1.25777 
 H                    -1.2499   -1.20199  -1.26495 
 H                     0.5679   -1.18395  -1.25777 
 H                    -1.28682   0.94244   0. 
 C                     0.87995   1.27893   0. 
 H                     1.78915   0.67304   0. 
 H                     0.9095    1.92117   0.88364 
 H                     0.9095    1.92117  -0.88364 
 
 NAtoms=     12 NQM=       12 NQMF=       0 NMMI=      0 NMMIF=      0
                NMic=       0 NMicF=      0.
                    Isotopes and Nuclear Properties:
 (Nuclear quadrupole moments (NQMom) in fm**2, nuclear magnetic moments (NMagM)
  in nuclear magnetons)

  Atom         1           2           3           4           5           6           7           8           9          10
 IAtWgt=          12          12          12           1           1           1           1           1          12           1
 AtmWgt=  12.0000000  12.0000000  12.0000000   1.0078250   1.0078250   1.0078250   1.0078250   1.0078250  12.0000000   1.0078250
 NucSpn=           0           0           0           1           1           1           1           1           0           1
 AtZEff=   0.0000000   0.0000000   0.0000000   0.0000000   0.0000000   0.0000000   0.0000000   0.0000000   0.0000000   0.0000000
 NQMom=    0.0000000   0.0000000   0.0000000   0.0000000   0.0000000   0.0000000   0.0000000   0.0000000   0.0000000   0.0000000
 NMagM=    0.0000000   0.0000000   0.0000000   2.7928460   2.7928460   2.7928460   2.7928460   2.7928460   0.0000000   2.7928460
 AtZNuc=   6.0000000   6.0000000   6.0000000   1.0000000   1.0000000   1.0000000   1.0000000   1.0000000   6.0000000   1.0000000

  Atom        11          12
 IAtWgt=           1           1
 AtmWgt=   1.0078250   1.0078250
 NucSpn=           1           1
 AtZEff=   0.0000000   0.0000000
 NQMom=    0.0000000   0.0000000
 NMagM=    2.7928460   2.7928460
 AtZNuc=   1.0000000   1.0000000
 Leave Link  101 at Fri Jul  9 19:19:35 2021, MaxMem=  4194304000 cpu:         1.7
 (Enter /home/minenky/programs//g09/l103.exe)

 GradGradGradGradGradGradGradGradGradGradGradGradGradGradGradGradGradGrad
 Berny optimization.
 Initialization pass.
                           ----------------------------
                           !    Initial Parameters    !
                           ! (Angstroms and Degrees)  !
 --------------------------                            --------------------------
 ! Name  Definition              Value          Derivative Info.                !
 --------------------------------------------------------------------------------
 ! R1    R(1,2)                  1.5027         estimate D2E/DX2                !
 ! R2    R(1,3)                  1.5027         estimate D2E/DX2                !
 ! R3    R(1,8)                  1.0844         estimate D2E/DX2                !
 ! R4    R(1,9)                  1.5076         estimate D2E/DX2                !
 ! R5    R(2,3)                  1.5075         estimate D2E/DX2                !
 ! R6    R(2,4)                  1.0817         estimate D2E/DX2                !
 ! R7    R(2,5)                  1.0826         estimate D2E/DX2                !
 ! R8    R(3,6)                  1.0817         estimate D2E/DX2                !
 ! R9    R(3,7)                  1.0826         estimate D2E/DX2                !
 ! R10   R(9,10)                 1.0926         estimate D2E/DX2                !
 ! R11   R(9,11)                 1.0928         estimate D2E/DX2                !
 ! R12   R(9,12)                 1.0928         estimate D2E/DX2                !
 ! A1    A(2,1,8)              115.5268         estimate D2E/DX2                !
 ! A2    A(2,1,9)              120.2037         estimate D2E/DX2                !
 ! A3    A(3,1,8)              115.5268         estimate D2E/DX2                !
 ! A4    A(3,1,9)              120.2037         estimate D2E/DX2                !
 ! A5    A(8,1,9)              114.567          estimate D2E/DX2                !
 ! A6    A(1,2,4)              118.7097         estimate D2E/DX2                !
 ! A7    A(1,2,5)              117.5297         estimate D2E/DX2                !
 ! A8    A(3,2,4)              118.2043         estimate D2E/DX2                !
 ! A9    A(3,2,5)              117.7471         estimate D2E/DX2                !
 ! A10   A(4,2,5)              114.2688         estimate D2E/DX2                !
 ! A11   A(1,3,6)              118.7097         estimate D2E/DX2                !
 ! A12   A(1,3,7)              117.5297         estimate D2E/DX2                !
 ! A13   A(2,3,6)              118.2043         estimate D2E/DX2                !
 ! A14   A(2,3,7)              117.7471         estimate D2E/DX2                !
 ! A15   A(6,3,7)              114.2688         estimate D2E/DX2                !
 ! A16   A(1,9,10)             110.7636         estimate D2E/DX2                !
 ! A17   A(1,9,11)             111.3314         estimate D2E/DX2                !
 ! A18   A(1,9,12)             111.3314         estimate D2E/DX2                !
 ! A19   A(10,9,11)            107.6626         estimate D2E/DX2                !
 ! A20   A(10,9,12)            107.6626         estimate D2E/DX2                !
 ! A21   A(11,9,12)            107.9222         estimate D2E/DX2                !
 ! D1    D(8,1,2,4)             -1.7043         estimate D2E/DX2                !
 ! D2    D(8,1,2,5)           -146.1874         estimate D2E/DX2                !
 ! D3    D(9,1,2,4)            142.4979         estimate D2E/DX2                !
 ! D4    D(9,1,2,5)             -1.9852         estimate D2E/DX2                !
 ! D5    D(8,1,3,6)              1.7043         estimate D2E/DX2                !
 ! D6    D(8,1,3,7)            146.1874         estimate D2E/DX2                !
 ! D7    D(9,1,3,6)           -142.4979         estimate D2E/DX2                !
 ! D8    D(9,1,3,7)              1.9852         estimate D2E/DX2                !
 ! D9    D(2,1,9,10)            35.4763         estimate D2E/DX2                !
 ! D10   D(2,1,9,11)           -84.2864         estimate D2E/DX2                !
 ! D11   D(2,1,9,12)           155.239          estimate D2E/DX2                !
 ! D12   D(3,1,9,10)           -35.4763         estimate D2E/DX2                !
 ! D13   D(3,1,9,11)          -155.239          estimate D2E/DX2                !
 ! D14   D(3,1,9,12)            84.2864         estimate D2E/DX2                !
 ! D15   D(8,1,9,10)           180.0            estimate D2E/DX2                !
 ! D16   D(8,1,9,11)            60.2373         estimate D2E/DX2                !
 ! D17   D(8,1,9,12)           -60.2373         estimate D2E/DX2                !
 ! D18   D(4,2,3,6)              0.0            estimate D2E/DX2                !
 ! D19   D(4,2,3,7)           -144.0094         estimate D2E/DX2                !
 ! D20   D(5,2,3,6)            144.0094         estimate D2E/DX2                !
 ! D21   D(5,2,3,7)              0.0            estimate D2E/DX2                !
 --------------------------------------------------------------------------------
 Trust Radius=3.00D-01 FncErr=1.00D-07 GrdErr=1.00D-06
 Number of steps in this run=     64 maximum allowed number of steps=    100.
 GradGradGradGradGradGradGradGradGradGradGradGradGradGradGradGradGradGrad

 Leave Link  103 at Fri Jul  9 19:19:35 2021, MaxMem=  4194304000 cpu:         0.0
 (Enter /home/minenky/programs//g09/l202.exe)
                          Input orientation:                          
 ---------------------------------------------------------------------
 Center     Atomic      Atomic             Coordinates (Angstroms)
 Number     Number       Type             X           Y           Z
 ---------------------------------------------------------------------
      1          6           0       -0.346502    0.402265    0.000000
      2          6           0       -0.346502   -0.897760    0.753731
      3          6           0       -0.346502   -0.897760   -0.753731
      4          1           0       -1.249898   -1.201989    1.264949
      5          1           0        0.567899   -1.183949    1.257771
      6          1           0       -1.249898   -1.201989   -1.264949
      7          1           0        0.567899   -1.183949   -1.257771
      8          1           0       -1.286817    0.942444    0.000000
      9          6           0        0.879951    1.278930    0.000000
     10          1           0        1.789152    0.673043    0.000000
     11          1           0        0.909500    1.921168    0.883638
     12          1           0        0.909500    1.921168   -0.883638
 ---------------------------------------------------------------------
                    Distance matrix (angstroms):
                    1          2          3          4          5
     1  C    0.000000
     2  C    1.502723   0.000000
     3  C    1.502723   1.507462   0.000000
     4  H    2.233797   1.081676   2.232431   0.000000
     5  H    2.221304   1.082631   2.228043   1.817901   0.000000
     6  H    2.233797   2.232431   1.081676   2.529898   3.109474
     7  H    2.221304   2.228043   1.082631   3.109474   2.515542
     8  H    1.084429   2.199694   2.199694   2.489990   3.089257
     9  C    1.507557   2.609651   2.609651   3.505897   2.783009
    10  H    2.152751   2.756184   2.756184   3.788359   2.553794
    11  H    2.159959   3.088814   3.493547   3.816085   3.146175
    12  H    2.159959   3.493547   3.088814   4.362744   3.787357
                    6          7          8          9         10
     6  H    0.000000
     7  H    1.817901   0.000000
     8  H    2.489990   3.089257   0.000000
     9  C    3.505897   2.783009   2.192739   0.000000
    10  H    3.788359   2.553794   3.087744   1.092587   0.000000
    11  H    4.362744   3.787357   2.561743   1.092776   1.764205
    12  H    3.816085   3.146175   2.561743   1.092776   1.764205
                   11         12
    11  H    0.000000
    12  H    1.767276   0.000000
 Stoichiometry    C4H8
 Framework group  CS[SG(C2H2),X(C2H6)]
 Deg. of freedom    17
 Full point group                 CS      NOp   2
 Largest Abelian subgroup         CS      NOp   2
 Largest concise Abelian subgroup CS      NOp   2
                         Standard orientation:                         
 ---------------------------------------------------------------------
 Center     Atomic      Atomic             Coordinates (Angstroms)
 Number     Number       Type             X           Y           Z
 ---------------------------------------------------------------------
      1          6           0       -0.346502    0.402265    0.000000
      2          6           0       -0.346502   -0.897760    0.753731
      3          6           0       -0.346502   -0.897760   -0.753731
      4          1           0       -1.249898   -1.201989    1.264949
      5          1           0        0.567899   -1.183949    1.257771
      6          1           0       -1.249898   -1.201989   -1.264949
      7          1           0        0.567899   -1.183949   -1.257771
      8          1           0       -1.286817    0.942444    0.000000
      9          6           0        0.879951    1.278930    0.000000
     10          1           0        1.789152    0.673043    0.000000
     11          1           0        0.909500    1.921168    0.883638
     12          1           0        0.909500    1.921168   -0.883638
 ---------------------------------------------------------------------
 Rotational constants (GHZ):     15.6837949      6.3655445      5.5895588
 Leave Link  202 at Fri Jul  9 19:19:35 2021, MaxMem=  4194304000 cpu:         0.0
 (Enter /home/minenky/programs//g09/l301.exe)
 Standard basis: def2TZVP (5D, 7F)
 ======================================================================================================
                                       Pseudopotential Parameters
 ======================================================================================================
  Center     Atomic      Valence      Angular      Power
  Number     Number     Electrons     Momentum     of R      Exponent        Coefficient   SO-Coeffient
 ======================================================================================================
    1          6
                                   No pseudopotential on this center.
    2          6
                                   No pseudopotential on this center.
    3          6
                                   No pseudopotential on this center.
    4          1
                                   No pseudopotential on this center.
    5          1
                                   No pseudopotential on this center.
    6          1
                                   No pseudopotential on this center.
    7          1
                                   No pseudopotential on this center.
    8          1
                                   No pseudopotential on this center.
    9          6
                                   No pseudopotential on this center.
   10          1
                                   No pseudopotential on this center.
   11          1
                                   No pseudopotential on this center.
   12          1
                                   No pseudopotential on this center.
 ======================================================================================================
 Ernie: Thresh=  0.10000D-02 Tol=  0.10000D-05 Strict=F.
 AO basis set (Overlap normalization):
 Atom C1       Shell     1 S   6     bf    1 -     1         -0.654794297875          0.760170860007          0.000000000000
      0.1357534968D+05  0.6064550360D-03
      0.2035233368D+04  0.4697908888D-02
      0.4632256236D+03  0.2433247765D-01
      0.1312001960D+03  0.9739996831D-01
      0.4285301589D+02  0.3019558425D+00
      0.1558418577D+02  0.6623360914D+00
 Atom C1       Shell     2 S   2     bf    2 -     2         -0.654794297875          0.760170860007          0.000000000000
      0.6206713851D+01  0.6559530854D+00
      0.2576489653D+01  0.3758563329D+00
 Atom C1       Shell     3 S   1     bf    3 -     3         -0.654794297875          0.760170860007          0.000000000000
      0.5769633942D+00  0.1000000000D+01
 Atom C1       Shell     4 S   1     bf    4 -     4         -0.654794297875          0.760170860007          0.000000000000
      0.2297283136D+00  0.1000000000D+01
 Atom C1       Shell     5 S   1     bf    5 -     5         -0.654794297875          0.760170860007          0.000000000000
      0.9516444003D-01  0.1000000000D+01
 Atom C1       Shell     6 P   4     bf    6 -     8         -0.654794297875          0.760170860007          0.000000000000
      0.3469723224D+02  0.1132722000D-01
      0.7958262283D+01  0.7616965920D-01
      0.2378082688D+01  0.3019225220D+00
      0.8143320818D+00  0.7278502735D+00
 Atom C1       Shell     7 P   1     bf    9 -    11         -0.654794297875          0.760170860007          0.000000000000
      0.2888754725D+00  0.1000000000D+01
 Atom C1       Shell     8 P   1     bf   12 -    14         -0.654794297875          0.760170860007          0.000000000000
      0.1005682367D+00  0.1000000000D+01
 Atom C1       Shell     9 D   1     bf   15 -    19         -0.654794297875          0.760170860007          0.000000000000
      0.1097000000D+01  0.1000000000D+01
 Atom C1       Shell    10 D   1     bf   20 -    24         -0.654794297875          0.760170860007          0.000000000000
      0.3180000000D+00  0.1000000000D+01
 Atom C1       Shell    11 F   1     bf   25 -    31         -0.654794297875          0.760170860007          0.000000000000
      0.7610000000D+00  0.1000000000D+01
 Atom C2       Shell    12 S   6     bf   32 -    32         -0.654794297875         -1.696520355898          1.424345167866
      0.1357534968D+05  0.6064550360D-03
      0.2035233368D+04  0.4697908888D-02
      0.4632256236D+03  0.2433247765D-01
      0.1312001960D+03  0.9739996831D-01
      0.4285301589D+02  0.3019558425D+00
      0.1558418577D+02  0.6623360914D+00
 Atom C2       Shell    13 S   2     bf   33 -    33         -0.654794297875         -1.696520355898          1.424345167866
      0.6206713851D+01  0.6559530854D+00
      0.2576489653D+01  0.3758563329D+00
 Atom C2       Shell    14 S   1     bf   34 -    34         -0.654794297875         -1.696520355898          1.424345167866
      0.5769633942D+00  0.1000000000D+01
 Atom C2       Shell    15 S   1     bf   35 -    35         -0.654794297875         -1.696520355898          1.424345167866
      0.2297283136D+00  0.1000000000D+01
 Atom C2       Shell    16 S   1     bf   36 -    36         -0.654794297875         -1.696520355898          1.424345167866
      0.9516444003D-01  0.1000000000D+01
 Atom C2       Shell    17 P   4     bf   37 -    39         -0.654794297875         -1.696520355898          1.424345167866
      0.3469723224D+02  0.1132722000D-01
      0.7958262283D+01  0.7616965920D-01
      0.2378082688D+01  0.3019225220D+00
      0.8143320818D+00  0.7278502735D+00
 Atom C2       Shell    18 P   1     bf   40 -    42         -0.654794297875         -1.696520355898          1.424345167866
      0.2888754725D+00  0.1000000000D+01
 Atom C2       Shell    19 P   1     bf   43 -    45         -0.654794297875         -1.696520355898          1.424345167866
      0.1005682367D+00  0.1000000000D+01
 Atom C2       Shell    20 D   1     bf   46 -    50         -0.654794297875         -1.696520355898          1.424345167866
      0.1097000000D+01  0.1000000000D+01
 Atom C2       Shell    21 D   1     bf   51 -    55         -0.654794297875         -1.696520355898          1.424345167866
      0.3180000000D+00  0.1000000000D+01
 Atom C2       Shell    22 F   1     bf   56 -    62         -0.654794297875         -1.696520355898          1.424345167866
      0.7610000000D+00  0.1000000000D+01
 Atom C3       Shell    23 S   6     bf   63 -    63         -0.654794297875         -1.696520355898         -1.424345167866
      0.1357534968D+05  0.6064550360D-03
      0.2035233368D+04  0.4697908888D-02
      0.4632256236D+03  0.2433247765D-01
      0.1312001960D+03  0.9739996831D-01
      0.4285301589D+02  0.3019558425D+00
      0.1558418577D+02  0.6623360914D+00
 Atom C3       Shell    24 S   2     bf   64 -    64         -0.654794297875         -1.696520355898         -1.424345167866
      0.6206713851D+01  0.6559530854D+00
      0.2576489653D+01  0.3758563329D+00
 Atom C3       Shell    25 S   1     bf   65 -    65         -0.654794297875         -1.696520355898         -1.424345167866
      0.5769633942D+00  0.1000000000D+01
 Atom C3       Shell    26 S   1     bf   66 -    66         -0.654794297875         -1.696520355898         -1.424345167866
      0.2297283136D+00  0.1000000000D+01
 Atom C3       Shell    27 S   1     bf   67 -    67         -0.654794297875         -1.696520355898         -1.424345167866
      0.9516444003D-01  0.1000000000D+01
 Atom C3       Shell    28 P   4     bf   68 -    70         -0.654794297875         -1.696520355898         -1.424345167866
      0.3469723224D+02  0.1132722000D-01
      0.7958262283D+01  0.7616965920D-01
      0.2378082688D+01  0.3019225220D+00
      0.8143320818D+00  0.7278502735D+00
 Atom C3       Shell    29 P   1     bf   71 -    73         -0.654794297875         -1.696520355898         -1.424345167866
      0.2888754725D+00  0.1000000000D+01
 Atom C3       Shell    30 P   1     bf   74 -    76         -0.654794297875         -1.696520355898         -1.424345167866
      0.1005682367D+00  0.1000000000D+01
 Atom C3       Shell    31 D   1     bf   77 -    81         -0.654794297875         -1.696520355898         -1.424345167866
      0.1097000000D+01  0.1000000000D+01
 Atom C3       Shell    32 D   1     bf   82 -    86         -0.654794297875         -1.696520355898         -1.424345167866
      0.3180000000D+00  0.1000000000D+01
 Atom C3       Shell    33 F   1     bf   87 -    93         -0.654794297875         -1.696520355898         -1.424345167866
      0.7610000000D+00  0.1000000000D+01
 Atom H4       Shell    34 S   3     bf   94 -    94         -2.361965327419         -2.271429847579          2.390407182068
      0.3406134100D+02  0.2543930721D-01
      0.5123574600D+01  0.1900859489D+00
      0.1164662600D+01  0.8524411301D+00
 Atom H4       Shell    35 S   1     bf   95 -    95         -2.361965327419         -2.271429847579          2.390407182068
      0.3272304100D+00  0.1000000000D+01
 Atom H4       Shell    36 S   1     bf   96 -    96         -2.361965327419         -2.271429847579          2.390407182068
      0.1030724100D+00  0.1000000000D+01
 Atom H4       Shell    37 P   1     bf   97 -    99         -2.361965327419         -2.271429847579          2.390407182068
      0.8000000000D+00  0.1000000000D+01
 Atom H5       Shell    38 S   3     bf  100 -   100          1.073173167762         -2.237339188142          2.376842727886
      0.3406134100D+02  0.2543930721D-01
      0.5123574600D+01  0.1900859489D+00
      0.1164662600D+01  0.8524411301D+00
 Atom H5       Shell    39 S   1     bf  101 -   101          1.073173167762         -2.237339188142          2.376842727886
      0.3272304100D+00  0.1000000000D+01
 Atom H5       Shell    40 S   1     bf  102 -   102          1.073173167762         -2.237339188142          2.376842727886
      0.1030724100D+00  0.1000000000D+01
 Atom H5       Shell    41 P   1     bf  103 -   105          1.073173167762         -2.237339188142          2.376842727886
      0.8000000000D+00  0.1000000000D+01
 Atom H6       Shell    42 S   3     bf  106 -   106         -2.361965327419         -2.271429847579         -2.390407182068
      0.3406134100D+02  0.2543930721D-01
      0.5123574600D+01  0.1900859489D+00
      0.1164662600D+01  0.8524411301D+00
 Atom H6       Shell    43 S   1     bf  107 -   107         -2.361965327419         -2.271429847579         -2.390407182068
      0.3272304100D+00  0.1000000000D+01
 Atom H6       Shell    44 S   1     bf  108 -   108         -2.361965327419         -2.271429847579         -2.390407182068
      0.1030724100D+00  0.1000000000D+01
 Atom H6       Shell    45 P   1     bf  109 -   111         -2.361965327419         -2.271429847579         -2.390407182068
      0.8000000000D+00  0.1000000000D+01
 Atom H7       Shell    46 S   3     bf  112 -   112          1.073173167762         -2.237339188142         -2.376842727886
      0.3406134100D+02  0.2543930721D-01
      0.5123574600D+01  0.1900859489D+00
      0.1164662600D+01  0.8524411301D+00
 Atom H7       Shell    47 S   1     bf  113 -   113          1.073173167762         -2.237339188142         -2.376842727886
      0.3272304100D+00  0.1000000000D+01
 Atom H7       Shell    48 S   1     bf  114 -   114          1.073173167762         -2.237339188142         -2.376842727886
      0.1030724100D+00  0.1000000000D+01
 Atom H7       Shell    49 P   1     bf  115 -   117          1.073173167762         -2.237339188142         -2.376842727886
      0.8000000000D+00  0.1000000000D+01
 Atom H8       Shell    50 S   3     bf  118 -   118         -2.431732126519          1.780961232743          0.000000000000
      0.3406134100D+02  0.2543930721D-01
      0.5123574600D+01  0.1900859489D+00
      0.1164662600D+01  0.8524411301D+00
 Atom H8       Shell    51 S   1     bf  119 -   119         -2.431732126519          1.780961232743          0.000000000000
      0.3272304100D+00  0.1000000000D+01
 Atom H8       Shell    52 S   1     bf  120 -   120         -2.431732126519          1.780961232743          0.000000000000
      0.1030724100D+00  0.1000000000D+01
 Atom H8       Shell    53 P   1     bf  121 -   123         -2.431732126519          1.780961232743          0.000000000000
      0.8000000000D+00  0.1000000000D+01
 Atom C9       Shell    54 S   6     bf  124 -   124          1.662865986981          2.416827620293          0.000000000000
      0.1357534968D+05  0.6064550360D-03
      0.2035233368D+04  0.4697908888D-02
      0.4632256236D+03  0.2433247765D-01
      0.1312001960D+03  0.9739996831D-01
      0.4285301589D+02  0.3019558425D+00
      0.1558418577D+02  0.6623360914D+00
 Atom C9       Shell    55 S   2     bf  125 -   125          1.662865986981          2.416827620293          0.000000000000
      0.6206713851D+01  0.6559530854D+00
      0.2576489653D+01  0.3758563329D+00
 Atom C9       Shell    56 S   1     bf  126 -   126          1.662865986981          2.416827620293          0.000000000000
      0.5769633942D+00  0.1000000000D+01
 Atom C9       Shell    57 S   1     bf  127 -   127          1.662865986981          2.416827620293          0.000000000000
      0.2297283136D+00  0.1000000000D+01
 Atom C9       Shell    58 S   1     bf  128 -   128          1.662865986981          2.416827620293          0.000000000000
      0.9516444003D-01  0.1000000000D+01
 Atom C9       Shell    59 P   4     bf  129 -   131          1.662865986981          2.416827620293          0.000000000000
      0.3469723224D+02  0.1132722000D-01
      0.7958262283D+01  0.7616965920D-01
      0.2378082688D+01  0.3019225220D+00
      0.8143320818D+00  0.7278502735D+00
 Atom C9       Shell    60 P   1     bf  132 -   134          1.662865986981          2.416827620293          0.000000000000
      0.2888754725D+00  0.1000000000D+01
 Atom C9       Shell    61 P   1     bf  135 -   137          1.662865986981          2.416827620293          0.000000000000
      0.1005682367D+00  0.1000000000D+01
 Atom C9       Shell    62 D   1     bf  138 -   142          1.662865986981          2.416827620293          0.000000000000
      0.1097000000D+01  0.1000000000D+01
 Atom C9       Shell    63 D   1     bf  143 -   147          1.662865986981          2.416827620293          0.000000000000
      0.3180000000D+00  0.1000000000D+01
 Atom C9       Shell    64 F   1     bf  148 -   154          1.662865986981          2.416827620293          0.000000000000
      0.7610000000D+00  0.1000000000D+01
 Atom H10      Shell    65 S   3     bf  155 -   155          3.381006876727          1.271867122818          0.000000000000
      0.3406134100D+02  0.2543930721D-01
      0.5123574600D+01  0.1900859489D+00
      0.1164662600D+01  0.8524411301D+00
 Atom H10      Shell    66 S   1     bf  156 -   156          3.381006876727          1.271867122818          0.000000000000
      0.3272304100D+00  0.1000000000D+01
 Atom H10      Shell    67 S   1     bf  157 -   157          3.381006876727          1.271867122818          0.000000000000
      0.1030724100D+00  0.1000000000D+01
 Atom H10      Shell    68 P   1     bf  158 -   160          3.381006876727          1.271867122818          0.000000000000
      0.8000000000D+00  0.1000000000D+01
 Atom H11      Shell    69 S   3     bf  161 -   161          1.718705504482          3.630481552425          1.669833820611
      0.3406134100D+02  0.2543930721D-01
      0.5123574600D+01  0.1900859489D+00
      0.1164662600D+01  0.8524411301D+00
 Atom H11      Shell    70 S   1     bf  162 -   162          1.718705504482          3.630481552425          1.669833820611
      0.3272304100D+00  0.1000000000D+01
 Atom H11      Shell    71 S   1     bf  163 -   163          1.718705504482          3.630481552425          1.669833820611
      0.1030724100D+00  0.1000000000D+01
 Atom H11      Shell    72 P   1     bf  164 -   166          1.718705504482          3.630481552425          1.669833820611
      0.8000000000D+00  0.1000000000D+01
 Atom H12      Shell    73 S   3     bf  167 -   167          1.718705504482          3.630481552425         -1.669833820611
      0.3406134100D+02  0.2543930721D-01
      0.5123574600D+01  0.1900859489D+00
      0.1164662600D+01  0.8524411301D+00
 Atom H12      Shell    74 S   1     bf  168 -   168          1.718705504482          3.630481552425         -1.669833820611
      0.3272304100D+00  0.1000000000D+01
 Atom H12      Shell    75 S   1     bf  169 -   169          1.718705504482          3.630481552425         -1.669833820611
      0.1030724100D+00  0.1000000000D+01
 Atom H12      Shell    76 P   1     bf  170 -   172          1.718705504482          3.630481552425         -1.669833820611
      0.8000000000D+00  0.1000000000D+01
 There are   114 symmetry adapted cartesian basis functions of A'  symmetry.
 There are    78 symmetry adapted cartesian basis functions of A"  symmetry.
 There are   101 symmetry adapted basis functions of A'  symmetry.
 There are    71 symmetry adapted basis functions of A"  symmetry.
   172 basis functions,   268 primitive gaussians,   192 cartesian basis functions
    16 alpha electrons       16 beta electrons
       nuclear repulsion energy       124.4487015944 Hartrees.
 IExCor= 4639 DFT=T Ex+Corr=wB97XD ExCW=0 ScaHFX=  1.000000
 ScaDFX=  1.000000  1.000000  1.000000  1.000000 ScalE2=  1.000000  1.000000
 IRadAn=      5 IRanWt=     -1 IRanGd=            0 ICorTp=0 IEmpDi=121
  HFx wShort=  0.000000 wLong=  0.200000 cFull=  0.222036 cShort=  0.000000 cLong=  0.777964
  DFx wShort=  0.000000 wLong=  0.200000 cFull=  0.000000 cShort=  0.000000 cLong=  1.000000
 NAtoms=   12 NActive=   12 NUniq=    8 SFac= 2.25D+00 NAtFMM=   60 NAOKFM=F Big=F
 Integral buffers will be    131072 words long.
 Raffenetti 2 integral format.
 Two-electron integral symmetry is turned on.
 R6Disp:  Grimme-D2 Dispersion energy=       -0.0046710571 Hartrees.
 Nuclear repulsion after empirical dispersion term =      124.4440305373 Hartrees.
 Leave Link  301 at Fri Jul  9 19:19:36 2021, MaxMem=  4194304000 cpu:         0.9
 (Enter /home/minenky/programs//g09/l302.exe)
 NPDir=0 NMtPBC=     1 NCelOv=     1 NCel=       1 NClECP=     1 NCelD=      1
         NCelK=      1 NCelE2=     1 NClLst=     1 CellRange=     0.0.
 One-electron integrals computed using PRISM.
 One-electron integral symmetry used in STVInt
   2 Symmetry operations used in ECPInt.
 ECPInt:  NShTT=    2926 NPrTT=    8368 LenC2=    2921 LenP2D=    7315.
 LDataN:  DoStor=T MaxTD1= 6 Len=  172
 NBasis=   172 RedAO= T EigKep=  2.49D-04  NBF=   101    71
 NBsUse=   172 1.00D-06 EigRej= -1.00D+00 NBFU=   101    71
 Precomputing XC quadrature grid using
 IXCGrd= 4 IRadAn=           5 IRanWt=          -1 IRanGd=           0 AccXCQ= 0.00D+00.
 Generated NRdTot=       0 NPtTot=           0 NUsed=           0 NTot=          32
 NSgBfM=   192   192   192   192   192 MxSgAt=    12 MxSgA2=    12.
 Leave Link  302 at Fri Jul  9 19:19:36 2021, MaxMem=  4194304000 cpu:         5.3
 (Enter /home/minenky/programs//g09/l303.exe)
 DipDrv:  MaxL=1.
 Leave Link  303 at Fri Jul  9 19:19:37 2021, MaxMem=  4194304000 cpu:         0.7
 (Enter /home/minenky/programs//g09/l401.exe)
 ExpMin= 9.52D-02 ExpMax= 1.36D+04 ExpMxC= 4.63D+02 IAcc=3 IRadAn=         5 AccDes= 0.00D+00
 Harris functional with IExCor= 4639 and IRadAn=       5 diagonalized for initial guess.
 HarFok:  IExCor= 4639 AccDes= 0.00D+00 IRadAn=         5 IDoV= 1 UseB2=F ITyADJ=14
 ICtDFT=  3500011 ScaDFX=  1.000000  1.000000  1.000000  1.000000
 FoFCou: FMM=F IPFlag=           0 FMFlag=      100000 FMFlg1=           0
         NFxFlg=           0 DoJE=T BraDBF=F KetDBF=T FulRan=T
         wScrn=  0.000000 ICntrl=     500 IOpCl=  0 I1Cent=   200000004 NGrid=           0
         NMat0=    1 NMatS0=      1 NMatT0=    0 NMatD0=    1 NMtDS0=    0 NMtDT0=    0
 Petite list used in FoFCou.
 Harris En= -149.402877492529    
 JPrj=0 DoOrth=F DoCkMO=F.
 Initial guess orbital symmetries:
       Occupied  (A') (A') (A") (A') (A') (A') (A") (A') (A') (A')
                 (A") (A') (A") (A') (A') (A")
       Virtual   (A') (A') (A') (A") (A") (A') (A") (A') (A") (A')
                 (A') (A") (A') (A") (A') (A") (A') (A') (A') (A')
                 (A") (A') (A") (A') (A") (A') (A') (A') (A") (A")
                 (A') (A") (A') (A') (A') (A") (A') (A") (A') (A')
                 (A") (A') (A') (A") (A") (A') (A') (A') (A") (A")
                 (A") (A') (A') (A") (A') (A") (A') (A') (A') (A")
                 (A') (A") (A") (A') (A") (A') (A") (A') (A') (A")
                 (A') (A") (A') (A') (A") (A') (A") (A') (A') (A')
                 (A') (A") (A') (A") (A') (A') (A') (A") (A") (A")
                 (A") (A') (A') (A") (A') (A") (A') (A") (A') (A')
                 (A") (A') (A") (A') (A') (A") (A') (A") (A') (A")
                 (A') (A') (A") (A') (A") (A') (A") (A") (A') (A")
                 (A') (A') (A') (A") (A") (A') (A") (A') (A") (A')
                 (A') (A') (A") (A") (A') (A') (A") (A") (A') (A")
                 (A') (A') (A") (A') (A") (A') (A") (A') (A') (A")
                 (A') (A") (A') (A') (A") (A')
 The electronic state of the initial guess is 1-A'.
 Leave Link  401 at Fri Jul  9 19:19:37 2021, MaxMem=  4194304000 cpu:        10.4
 (Enter /home/minenky/programs//g09/l502.exe)
 Closed shell SCF:
 Using DIIS extrapolation, IDIIS=  1040.
 Integral symmetry usage will be decided dynamically.
 Keep R1 ints in memory in symmetry-blocked form, NReq=332500472.
 IVT=      263166 IEndB=      263166 NGot=  4194304000 MDV=  4138591447
 LenX=  4138591447 LenY=  4138554142
 Requested convergence on RMS density matrix=1.00D-08 within 380 cycles.
 Requested convergence on MAX density matrix=1.00D-06.
 Requested convergence on             energy=1.00D-06.
 No special actions if energy rises.
 FoFCou: FMM=F IPFlag=           0 FMFlag=           0 FMFlg1=           0
         NFxFlg=           0 DoJE=F BraDBF=F KetDBF=F FulRan=T
         wScrn=  0.000000 ICntrl=     600 IOpCl=  0 I1Cent=           0 NGrid=           0
         NMat0=    1 NMatS0=  14878 NMatT0=    0 NMatD0=    1 NMtDS0=    0 NMtDT0=    0
 Petite list used in FoFCou.
 Integral accuracy reduced to 1.0D-05 until final iterations.

 Cycle   1  Pass 0  IDiag  1:
 E= -157.169479162379    
 DIIS: error= 6.47D-02 at cycle   1 NSaved=   1.
 NSaved= 1 IEnMin= 1 EnMin= -157.169479162379     IErMin= 1 ErrMin= 6.47D-02
 ErrMax= 6.47D-02  0.00D+00 EMaxC= 1.00D-01 BMatC= 3.35D-01 BMatP= 3.35D-01
 IDIUse=3 WtCom= 3.53D-01 WtEn= 6.47D-01
 Coeff-Com:  0.100D+01
 Coeff-En:   0.100D+01
 Coeff:      0.100D+01
 Gap=     0.453 Goal=   None    Shift=    0.000
 GapD=    0.453 DampG=2.000 DampE=0.500 DampFc=1.0000 IDamp=-1.
 RMSDP=1.49D-03 MaxDP=4.49D-02              OVMax= 5.64D-02

 Cycle   2  Pass 0  IDiag  1:
 E= -157.208916795034     Delta-E=       -0.039437632655 Rises=F Damp=F
 DIIS: error= 9.42D-03 at cycle   2 NSaved=   2.
 NSaved= 2 IEnMin= 2 EnMin= -157.208916795034     IErMin= 2 ErrMin= 9.42D-03
 ErrMax= 9.42D-03  0.00D+00 EMaxC= 1.00D-01 BMatC= 1.14D-02 BMatP= 3.35D-01
 IDIUse=3 WtCom= 9.06D-01 WtEn= 9.42D-02
 Coeff-Com:  0.854D-01 0.915D+00
 Coeff-En:   0.000D+00 0.100D+01
 Coeff:      0.773D-01 0.923D+00
 Gap=     0.504 Goal=   None    Shift=    0.000
 RMSDP=6.60D-04 MaxDP=1.92D-02 DE=-3.94D-02 OVMax= 3.35D-02

 Cycle   3  Pass 0  IDiag  1:
 E= -157.214973055840     Delta-E=       -0.006056260806 Rises=F Damp=F
 DIIS: error= 5.88D-03 at cycle   3 NSaved=   3.
 NSaved= 3 IEnMin= 3 EnMin= -157.214973055840     IErMin= 3 ErrMin= 5.88D-03
 ErrMax= 5.88D-03  0.00D+00 EMaxC= 1.00D-01 BMatC= 5.17D-03 BMatP= 1.14D-02
 IDIUse=3 WtCom= 9.41D-01 WtEn= 5.88D-02
 Coeff-Com:  0.243D-01 0.408D+00 0.567D+00
 Coeff-En:   0.000D+00 0.272D+00 0.728D+00
 Coeff:      0.229D-01 0.400D+00 0.577D+00
 Gap=     0.483 Goal=   None    Shift=    0.000
 RMSDP=2.67D-04 MaxDP=6.67D-03 DE=-6.06D-03 OVMax= 1.39D-02

 Cycle   4  Pass 0  IDiag  1:
 E= -157.219800271392     Delta-E=       -0.004827215552 Rises=F Damp=F
 DIIS: error= 3.29D-04 at cycle   4 NSaved=   4.
 NSaved= 4 IEnMin= 4 EnMin= -157.219800271392     IErMin= 4 ErrMin= 3.29D-04
 ErrMax= 3.29D-04  0.00D+00 EMaxC= 1.00D-01 BMatC= 1.19D-05 BMatP= 5.17D-03
 IDIUse=3 WtCom= 9.97D-01 WtEn= 3.29D-03
 Coeff-Com:  0.184D-02 0.346D-01 0.696D-01 0.894D+00
 Coeff-En:   0.000D+00 0.000D+00 0.000D+00 0.100D+01
 Coeff:      0.183D-02 0.345D-01 0.694D-01 0.894D+00
 Gap=     0.484 Goal=   None    Shift=    0.000
 RMSDP=3.00D-05 MaxDP=5.59D-04 DE=-4.83D-03 OVMax= 1.42D-03

 Cycle   5  Pass 0  IDiag  1:
 E= -157.219812354258     Delta-E=       -0.000012082866 Rises=F Damp=F
 DIIS: error= 1.11D-04 at cycle   5 NSaved=   5.
 NSaved= 5 IEnMin= 5 EnMin= -157.219812354258     IErMin= 5 ErrMin= 1.11D-04
 ErrMax= 1.11D-04  0.00D+00 EMaxC= 1.00D-01 BMatC= 3.53D-06 BMatP= 1.19D-05
 IDIUse=3 WtCom= 9.99D-01 WtEn= 1.11D-03
 Coeff-Com: -0.209D-02-0.350D-01-0.399D-01 0.356D+00 0.721D+00
 Coeff-En:   0.000D+00 0.000D+00 0.000D+00 0.000D+00 0.100D+01
 Coeff:     -0.209D-02-0.350D-01-0.399D-01 0.356D+00 0.721D+00
 Gap=     0.484 Goal=   None    Shift=    0.000
 RMSDP=1.22D-05 MaxDP=2.28D-04 DE=-1.21D-05 OVMax= 4.20D-04

 Cycle   6  Pass 0  IDiag  1:
 E= -157.219815751174     Delta-E=       -0.000003396916 Rises=F Damp=F
 DIIS: error= 1.93D-05 at cycle   6 NSaved=   6.
 NSaved= 6 IEnMin= 6 EnMin= -157.219815751174     IErMin= 6 ErrMin= 1.93D-05
 ErrMax= 1.93D-05  0.00D+00 EMaxC= 1.00D-01 BMatC= 5.29D-08 BMatP= 3.53D-06
 IDIUse=1 WtCom= 1.00D+00 WtEn= 0.00D+00
 Coeff-Com: -0.424D-03-0.710D-02-0.903D-02 0.128D-01 0.991D-01 0.905D+00
 Coeff:     -0.424D-03-0.710D-02-0.903D-02 0.128D-01 0.991D-01 0.905D+00
 Gap=     0.484 Goal=   None    Shift=    0.000
 RMSDP=3.97D-06 MaxDP=7.55D-05 DE=-3.40D-06 OVMax= 1.15D-04

 Initial convergence to 1.0D-05 achieved.  Increase integral accuracy.
 Cycle   7  Pass 1  IDiag  1:
 E= -157.219793510016     Delta-E=        0.000022241158 Rises=F Damp=F
 DIIS: error= 3.16D-05 at cycle   1 NSaved=   1.
 NSaved= 1 IEnMin= 1 EnMin= -157.219793510016     IErMin= 1 ErrMin= 3.16D-05
 ErrMax= 3.16D-05  0.00D+00 EMaxC= 1.00D-01 BMatC= 2.29D-07 BMatP= 2.29D-07
 IDIUse=1 WtCom= 1.00D+00 WtEn= 0.00D+00
 Coeff-Com:  0.100D+01
 Coeff:      0.100D+01
 Gap=     0.484 Goal=   None    Shift=    0.000
 RMSDP=3.97D-06 MaxDP=7.55D-05 DE= 2.22D-05 OVMax= 6.28D-05

 Cycle   8  Pass 1  IDiag  1:
 E= -157.219793646423     Delta-E=       -0.000000136407 Rises=F Damp=F
 DIIS: error= 6.23D-06 at cycle   2 NSaved=   2.
 NSaved= 2 IEnMin= 2 EnMin= -157.219793646423     IErMin= 2 ErrMin= 6.23D-06
 ErrMax= 6.23D-06  0.00D+00 EMaxC= 1.00D-01 BMatC= 6.16D-09 BMatP= 2.29D-07
 IDIUse=1 WtCom= 1.00D+00 WtEn= 0.00D+00
 Coeff-Com: -0.208D-01 0.102D+01
 Coeff:     -0.208D-01 0.102D+01
 Gap=     0.484 Goal=   None    Shift=    0.000
 RMSDP=8.31D-07 MaxDP=1.87D-05 DE=-1.36D-07 OVMax= 3.49D-05

 Cycle   9  Pass 1  IDiag  1:
 E= -157.219793648918     Delta-E=       -0.000000002495 Rises=F Damp=F
 DIIS: error= 3.98D-06 at cycle   3 NSaved=   3.
 NSaved= 3 IEnMin= 3 EnMin= -157.219793648918     IErMin= 3 ErrMin= 3.98D-06
 ErrMax= 3.98D-06  0.00D+00 EMaxC= 1.00D-01 BMatC= 3.75D-09 BMatP= 6.16D-09
 IDIUse=1 WtCom= 1.00D+00 WtEn= 0.00D+00
 Coeff-Com: -0.374D-01 0.455D+00 0.582D+00
 Coeff:     -0.374D-01 0.455D+00 0.582D+00
 Gap=     0.484 Goal=   None    Shift=    0.000
 RMSDP=2.40D-07 MaxDP=5.65D-06 DE=-2.49D-09 OVMax= 1.74D-05

 Cycle  10  Pass 1  IDiag  1:
 E= -157.219793652394     Delta-E=       -0.000000003476 Rises=F Damp=F
 DIIS: error= 4.67D-07 at cycle   4 NSaved=   4.
 NSaved= 4 IEnMin= 4 EnMin= -157.219793652394     IErMin= 4 ErrMin= 4.67D-07
 ErrMax= 4.67D-07  0.00D+00 EMaxC= 1.00D-01 BMatC= 3.45D-11 BMatP= 3.75D-09
 IDIUse=1 WtCom= 1.00D+00 WtEn= 0.00D+00
 Coeff-Com: -0.610D-02 0.491D-01 0.112D+00 0.845D+00
 Coeff:     -0.610D-02 0.491D-01 0.112D+00 0.845D+00
 Gap=     0.484 Goal=   None    Shift=    0.000
 RMSDP=7.22D-08 MaxDP=1.32D-06 DE=-3.48D-09 OVMax= 2.41D-06

 Cycle  11  Pass 1  IDiag  1:
 E= -157.219793652432     Delta-E=       -0.000000000038 Rises=F Damp=F
 DIIS: error= 1.00D-07 at cycle   5 NSaved=   5.
 NSaved= 5 IEnMin= 5 EnMin= -157.219793652432     IErMin= 5 ErrMin= 1.00D-07
 ErrMax= 1.00D-07  0.00D+00 EMaxC= 1.00D-01 BMatC= 2.81D-12 BMatP= 3.45D-11
 IDIUse=1 WtCom= 1.00D+00 WtEn= 0.00D+00
 Coeff-Com:  0.192D-02-0.278D-01-0.271D-01 0.133D+00 0.920D+00
 Coeff:      0.192D-02-0.278D-01-0.271D-01 0.133D+00 0.920D+00
 Gap=     0.484 Goal=   None    Shift=    0.000
 RMSDP=3.64D-08 MaxDP=7.67D-07 DE=-3.82D-11 OVMax= 8.10D-07

 Cycle  12  Pass 1  IDiag  1:
 E= -157.219793652436     Delta-E=       -0.000000000004 Rises=F Damp=F
 DIIS: error= 4.57D-08 at cycle   6 NSaved=   6.
 NSaved= 6 IEnMin= 6 EnMin= -157.219793652436     IErMin= 6 ErrMin= 4.57D-08
 ErrMax= 4.57D-08  0.00D+00 EMaxC= 1.00D-01 BMatC= 2.92D-13 BMatP= 2.81D-12
 IDIUse=1 WtCom= 1.00D+00 WtEn= 0.00D+00
 Coeff-Com:  0.958D-03-0.111D-01-0.151D-01-0.137D-01 0.258D+00 0.781D+00
 Coeff:      0.958D-03-0.111D-01-0.151D-01-0.137D-01 0.258D+00 0.781D+00
 Gap=     0.484 Goal=   None    Shift=    0.000
 RMSDP=9.96D-09 MaxDP=2.10D-07 DE=-3.64D-12 OVMax= 2.82D-07

 SCF Done:  E(RwB97XD) =  -157.219793652     A.U. after   12 cycles
            NFock= 12  Conv=0.10D-07     -V/T= 2.0058
 KE= 1.563106324965D+02 PE=-6.125021901977D+02 EE= 1.745277335114D+02
 Leave Link  502 at Fri Jul  9 19:19:44 2021, MaxMem=  4194304000 cpu:        96.3
 (Enter /home/minenky/programs//g09/l601.exe)
 Copying SCF densities to generalized density rwf, IOpCl= 0 IROHF=0.

 **********************************************************************

            Population analysis using the SCF density.

 **********************************************************************

 Orbital symmetries:
       Occupied  (A') (A') (A") (A') (A') (A') (A") (A') (A') (A')
                 (A") (A') (A") (A') (A') (A")
       Virtual   (A') (A') (A') (A") (A') (A") (A') (A") (A") (A')
                 (A') (A") (A') (A') (A") (A") (A') (A') (A') (A')
                 (A') (A") (A") (A') (A') (A") (A') (A') (A") (A")
                 (A') (A") (A') (A') (A') (A") (A') (A") (A') (A')
                 (A") (A') (A') (A") (A") (A') (A') (A') (A") (A")
                 (A") (A') (A') (A") (A') (A") (A') (A') (A') (A")
                 (A") (A') (A") (A') (A") (A') (A") (A') (A') (A")
                 (A') (A") (A') (A') (A") (A') (A") (A') (A') (A')
                 (A') (A") (A") (A') (A') (A') (A') (A") (A") (A")
                 (A") (A') (A') (A") (A") (A') (A') (A") (A') (A')
                 (A") (A') (A") (A') (A') (A") (A') (A") (A') (A")
                 (A') (A') (A") (A') (A") (A') (A") (A") (A') (A")
                 (A') (A') (A') (A") (A") (A') (A") (A') (A") (A')
                 (A') (A') (A") (A") (A') (A') (A") (A") (A') (A")
                 (A') (A') (A") (A') (A") (A') (A") (A') (A') (A")
                 (A') (A") (A') (A') (A") (A')
 The electronic state is 1-A'.
 Alpha  occ. eigenvalues --  -10.28672 -10.27727 -10.27702 -10.27124  -0.95665
 Alpha  occ. eigenvalues --   -0.80667  -0.69152  -0.65914  -0.58146  -0.53868
 Alpha  occ. eigenvalues --   -0.49466  -0.47338  -0.44288  -0.43139  -0.36920
 Alpha  occ. eigenvalues --   -0.35912
 Alpha virt. eigenvalues --    0.12472   0.13986   0.15485   0.16124   0.18427
 Alpha virt. eigenvalues --    0.19115   0.20391   0.20978   0.23004   0.24122
 Alpha virt. eigenvalues --    0.26101   0.27377   0.28854   0.32714   0.32845
 Alpha virt. eigenvalues --    0.33992   0.36441   0.38148   0.39178   0.44267
 Alpha virt. eigenvalues --    0.47494   0.47968   0.48841   0.49461   0.51166
 Alpha virt. eigenvalues --    0.52133   0.52279   0.53368   0.54846   0.56503
 Alpha virt. eigenvalues --    0.58706   0.59621   0.60001   0.61464   0.67175
 Alpha virt. eigenvalues --    0.68460   0.84961   0.89609   0.94556   0.96027
 Alpha virt. eigenvalues --    0.98025   0.99113   1.02690   1.03044   1.06783
 Alpha virt. eigenvalues --    1.07192   1.14277   1.14423   1.14775   1.18395
 Alpha virt. eigenvalues --    1.21139   1.23794   1.26267   1.29489   1.35657
 Alpha virt. eigenvalues --    1.37813   1.50726   1.57221   1.60223   1.61767
 Alpha virt. eigenvalues --    1.63749   1.64066   1.67654   1.70963   1.72324
 Alpha virt. eigenvalues --    1.73056   1.75529   1.83074   1.84520   1.85101
 Alpha virt. eigenvalues --    1.90494   1.93713   1.95695   2.01150   2.02212
 Alpha virt. eigenvalues --    2.05876   2.10309   2.14615   2.19524   2.23985
 Alpha virt. eigenvalues --    2.34093   2.38517   2.41616   2.43567   2.43898
 Alpha virt. eigenvalues --    2.46753   2.48898   2.51082   2.57596   2.60429
 Alpha virt. eigenvalues --    2.63097   2.64583   2.65791   2.66256   2.69042
 Alpha virt. eigenvalues --    2.69538   2.71312   2.71785   2.75217   2.84905
 Alpha virt. eigenvalues --    2.86919   2.87696   2.89155   2.94668   3.04038
 Alpha virt. eigenvalues --    3.07872   3.08966   3.11138   3.13219   3.14964
 Alpha virt. eigenvalues --    3.17010   3.19973   3.21881   3.23214   3.24860
 Alpha virt. eigenvalues --    3.26685   3.35695   3.43517   3.45940   3.46917
 Alpha virt. eigenvalues --    3.50365   3.54148   3.58161   3.61757   3.65953
 Alpha virt. eigenvalues --    3.67208   3.75258   3.80963   3.87083   3.90953
 Alpha virt. eigenvalues --    3.95327   4.05262   4.07393   4.11646   4.12173
 Alpha virt. eigenvalues --    4.16512   4.17489   4.24586   4.26175   4.33847
 Alpha virt. eigenvalues --    4.35268   4.50530   4.50547   4.50885   4.61996
 Alpha virt. eigenvalues --    4.65081   4.74791   4.75593   4.82375   4.90806
 Alpha virt. eigenvalues --    5.04737   5.05586  22.42120  22.54263  22.55128
 Alpha virt. eigenvalues --   22.64479
          Condensed to atoms (all electrons):
               1          2          3          4          5          6
     1  C    5.011218   0.250103   0.250103  -0.029283  -0.023240  -0.029283
     2  C    0.250103   5.033904   0.225844   0.415881   0.417315  -0.019488
     3  C    0.250103   0.225844   5.033904  -0.019488  -0.029501   0.415881
     4  H   -0.029283   0.415881  -0.019488   0.550689  -0.022015  -0.005869
     5  H   -0.023240   0.417315  -0.029501  -0.022015   0.552998   0.001756
     6  H   -0.029283  -0.019488   0.415881  -0.005869   0.001756   0.550689
     7  H   -0.023240  -0.029501   0.417315   0.001756  -0.005916  -0.022015
     8  H    0.433213  -0.037193  -0.037193  -0.006188   0.003322  -0.006188
     9  C    0.322090  -0.020055  -0.020055   0.003659  -0.003993   0.003659
    10  H   -0.031323  -0.003469  -0.003469   0.000077   0.001284   0.000077
    11  H   -0.042986  -0.009708   0.010996   0.000230   0.001313  -0.000282
    12  H   -0.042986   0.010996  -0.009708  -0.000282  -0.000201   0.000230
               7          8          9         10         11         12
     1  C   -0.023240   0.433213   0.322090  -0.031323  -0.042986  -0.042986
     2  C   -0.029501  -0.037193  -0.020055  -0.003469  -0.009708   0.010996
     3  C    0.417315  -0.037193  -0.020055  -0.003469   0.010996  -0.009708
     4  H    0.001756  -0.006188   0.003659   0.000077   0.000230  -0.000282
     5  H   -0.005916   0.003322  -0.003993   0.001284   0.001313  -0.000201
     6  H   -0.022015  -0.006188   0.003659   0.000077  -0.000282   0.000230
     7  H    0.552998   0.003322  -0.003993   0.001284  -0.000201   0.001313
     8  H    0.003322   0.596449  -0.044285   0.007163  -0.004242  -0.004242
     9  C   -0.003993  -0.044285   4.874031   0.399683   0.419556   0.419556
    10  H    0.001284   0.007163   0.399683   0.579425  -0.026851  -0.026851
    11  H   -0.000201  -0.004242   0.419556  -0.026851   0.564185  -0.026533
    12  H    0.001313  -0.004242   0.419556  -0.026851  -0.026533   0.564185
 Mulliken charges:
               1
     1  C   -0.044388
     2  C   -0.234629
     3  C   -0.234629
     4  H    0.110832
     5  H    0.106877
     6  H    0.110832
     7  H    0.106877
     8  H    0.096061
     9  C   -0.349854
    10  H    0.102970
    11  H    0.114525
    12  H    0.114525
 Sum of Mulliken charges =   0.00000
 Mulliken charges with hydrogens summed into heavy atoms:
               1
     1  C    0.051674
     2  C   -0.016919
     3  C   -0.016919
     9  C   -0.017835
 Electronic spatial extent (au):  <R**2>=            297.4467
 Charge=              0.0000 electrons
 Dipole moment (field-independent basis, Debye):
    X=             -0.0394    Y=              0.1353    Z=              0.0000  Tot=              0.1409
 Quadrupole moment (field-independent basis, Debye-Ang):
   XX=            -25.3408   YY=            -27.3086   ZZ=            -27.0358
   XY=             -0.2354   XZ=              0.0000   YZ=              0.0000
 Traceless Quadrupole moment (field-independent basis, Debye-Ang):
   XX=              1.2210   YY=             -0.7469   ZZ=             -0.4741
   XY=             -0.2354   XZ=              0.0000   YZ=              0.0000
 Octapole moment (field-independent basis, Debye-Ang**2):
  XXX=             -2.1492  YYY=              3.5937  ZZZ=              0.0000  XYY=             -0.3020
  XXY=             -1.7211  XXZ=              0.0000  XZZ=              0.1930  YZZ=             -0.8335
  YYZ=              0.0000  XYZ=              0.0000
 Hexadecapole moment (field-independent basis, Debye-Ang**3):
 XXXX=           -107.2493 YYYY=           -210.1205 ZZZZ=           -102.7154 XXXY=            -38.2639
 XXXZ=              0.0000 YYYX=            -38.8423 YYYZ=              0.0000 ZZZX=              0.0000
 ZZZY=              0.0000 XXYY=            -51.2539 XXZZ=            -33.4285 YYZZ=            -46.9830
 XXYZ=              0.0000 YYXZ=              0.0000 ZZXY=            -11.1829
 N-N= 1.244440305373D+02 E-N=-6.125021952261D+02  KE= 1.563106324965D+02
 Symmetry A'   KE= 1.151107380132D+02
 Symmetry A"   KE= 4.119989448328D+01
 No NMR shielding tensors so no spin-rotation constants.
 Leave Link  601 at Fri Jul  9 19:19:45 2021, MaxMem=  4194304000 cpu:         3.6
 (Enter /home/minenky/programs//g09/l701.exe)
 Compute integral first derivatives.
 ... and contract with generalized density number  0.
 R6Disp: Adding Grimme-D2 dispersion energy 1st derivatives to the gradient.
   2 Symmetry operations used in ECPInt.
 ECPInt:  NShTT=    2926 NPrTT=    8368 LenC2=    2921 LenP2D=    7315.
 LDataN:  DoStor=T MaxTD1= 7 Len=  274
 Leave Link  701 at Fri Jul  9 19:19:45 2021, MaxMem=  4194304000 cpu:         3.0
 (Enter /home/minenky/programs//g09/l702.exe)
 L702 exits ... SP integral derivatives will be done elsewhere.
 Leave Link  702 at Fri Jul  9 19:19:45 2021, MaxMem=  4194304000 cpu:         0.1
 (Enter /home/minenky/programs//g09/l703.exe)
 Compute integral first derivatives, UseDBF=F ICtDFT=           0.
 Integral derivatives from FoFJK, PRISM(SPDF).
 Calling FoFJK, ICntrl=      2127 FMM=F ISym2X=1 I1Cent= 0 IOpClX= 0 NMat=1 NMatS=1 NMatT=0.
 FoFJK:  IHMeth= 1 ICntrl=    2127 DoSepK=T KAlg= 0 I1Cent=   0 FoldK=F
 IRaf=         1 NMat=   1 IRICut=       1 DoRegI=T DoRafI=F ISym2E= 1.
 FoFCou: FMM=F IPFlag=           0 FMFlag=      100000 FMFlg1=         800
         NFxFlg=           0 DoJE=F BraDBF=F KetDBF=F FulRan=T
         wScrn=  0.000000 ICntrl=    2527 IOpCl=  0 I1Cent=           0 NGrid=           0
         NMat0=    1 NMatS0=      1 NMatT0=    0 NMatD0=    1 NMtDS0=    0 NMtDT0=    0
 Petite list used in FoFCou.
 Leave Link  703 at Fri Jul  9 19:19:49 2021, MaxMem=  4194304000 cpu:        51.1
 (Enter /home/minenky/programs//g09/l716.exe)
 Dipole        =-1.55056493D-02 5.32288158D-02-3.77475828D-15
 ***** Axes restored to original set *****
 -------------------------------------------------------------------
 Center     Atomic                   Forces (Hartrees/Bohr)
 Number     Number              X              Y              Z
 -------------------------------------------------------------------
      1        6           0.000521581   -0.001692334    0.000000000
      2        6           0.000048268    0.001272762   -0.002295373
      3        6           0.000048268    0.001272762    0.002295373
      4        1          -0.000175101    0.000167856   -0.000259912
      5        1           0.000260603    0.000075678   -0.000206186
      6        1          -0.000175101    0.000167856    0.000259912
      7        1           0.000260603    0.000075678    0.000206186
      8        1           0.000132076   -0.000263501    0.000000000
      9        6          -0.000348137   -0.000224901    0.000000000
     10        1          -0.000077472   -0.000149282    0.000000000
     11        1          -0.000247794   -0.000351287   -0.000203271
     12        1          -0.000247794   -0.000351287    0.000203271
 -------------------------------------------------------------------
 Cartesian Forces:  Max     0.002295373 RMS     0.000709896
 Leave Link  716 at Fri Jul  9 19:19:49 2021, MaxMem=  4194304000 cpu:         0.1
 (Enter /home/minenky/programs//g09/l103.exe)

 GradGradGradGradGradGradGradGradGradGradGradGradGradGradGradGradGradGrad
 Berny optimization.
 FormGI is forming the generalized inverse of G from B-inverse, IUseBI=4.
 Internal  Forces:  Max     0.001808621 RMS     0.000488637
 Search for a local minimum.
 Step number   1 out of a maximum of   64
 All quantities printed in internal units (Hartrees-Bohrs-Radians)
 RMS Force = .48864D-03 SwitMx=.10000D-02 MixMth= 2
 Mixed Optimization -- En-DIIS/RFO-DIIS
 Second derivative matrix not updated -- first step.
 ITU=  0
     Eigenvalues ---    0.00666   0.01910   0.02279   0.03068   0.03068
     Eigenvalues ---    0.03609   0.03931   0.05660   0.05737   0.10011
     Eigenvalues ---    0.10526   0.11046   0.15119   0.16000   0.16000
     Eigenvalues ---    0.16000   0.16000   0.17324   0.26224   0.28301
     Eigenvalues ---    0.31597   0.31936   0.34494   0.34494   0.34515
     Eigenvalues ---    0.35464   0.35678   0.35678   0.35793   0.35793
 RFO step:  Lambda=-4.47387913D-05 EMin= 6.65981170D-03
 Linear search not attempted -- first point.
 Iteration  1 RMS(Cart)=  0.00309000 RMS(Int)=  0.00000118
 Iteration  2 RMS(Cart)=  0.00000106 RMS(Int)=  0.00000053
 Iteration  3 RMS(Cart)=  0.00000000 RMS(Int)=  0.00000053
 ITry= 1 IFail=0 DXMaxC= 7.17D-03 DCOld= 1.00D+10 DXMaxT= 3.00D-01 DXLimC= 3.00D+00 Rises=F
 ClnCor:  largest displacement from symmetrization is 1.54D-08 for atom     7.
 Variable       Old X    -DE/DX   Delta X   Delta X   Delta X     New X
                                 (Linear)    (Quad)   (Total)
    R1        2.83973  -0.00179   0.00000  -0.00546  -0.00546   2.83428
    R2        2.83973  -0.00179   0.00000  -0.00546  -0.00546   2.83428
    R3        2.04927  -0.00025   0.00000  -0.00069  -0.00069   2.04858
    R4        2.84887  -0.00138   0.00000  -0.00435  -0.00435   2.84452
    R5        2.84869  -0.00181   0.00000  -0.00596  -0.00596   2.84273
    R6        2.04407  -0.00002   0.00000  -0.00007  -0.00007   2.04401
    R7        2.04588   0.00010   0.00000   0.00029   0.00029   2.04617
    R8        2.04407  -0.00002   0.00000  -0.00007  -0.00007   2.04401
    R9        2.04588   0.00010   0.00000   0.00029   0.00029   2.04617
   R10        2.06469   0.00002   0.00000   0.00005   0.00005   2.06474
   R11        2.06505  -0.00038   0.00000  -0.00109  -0.00109   2.06395
   R12        2.06505  -0.00038   0.00000  -0.00109  -0.00109   2.06395
    A1        2.01632   0.00001   0.00000  -0.00019  -0.00019   2.01613
    A2        2.09795  -0.00016   0.00000  -0.00114  -0.00114   2.09681
    A3        2.01632   0.00001   0.00000  -0.00019  -0.00019   2.01613
    A4        2.09795  -0.00016   0.00000  -0.00114  -0.00114   2.09681
    A5        1.99957   0.00019   0.00000   0.00170   0.00170   2.00127
    A6        2.07188  -0.00018   0.00000  -0.00139  -0.00139   2.07049
    A7        2.05128  -0.00004   0.00000  -0.00051  -0.00051   2.05077
    A8        2.06305  -0.00009   0.00000  -0.00096  -0.00096   2.06209
    A9        2.05507  -0.00015   0.00000  -0.00134  -0.00134   2.05374
   A10        1.99437   0.00028   0.00000   0.00250   0.00251   1.99687
   A11        2.07188  -0.00018   0.00000  -0.00139  -0.00139   2.07049
   A12        2.05128  -0.00004   0.00000  -0.00051  -0.00051   2.05077
   A13        2.06305  -0.00009   0.00000  -0.00096  -0.00096   2.06209
   A14        2.05507  -0.00015   0.00000  -0.00134  -0.00134   2.05374
   A15        1.99437   0.00028   0.00000   0.00250   0.00251   1.99687
   A16        1.93319  -0.00011   0.00000  -0.00060  -0.00060   1.93259
   A17        1.94310  -0.00031   0.00000  -0.00196  -0.00196   1.94114
   A18        1.94310  -0.00031   0.00000  -0.00196  -0.00196   1.94114
   A19        1.87907   0.00023   0.00000   0.00147   0.00147   1.88054
   A20        1.87907   0.00023   0.00000   0.00147   0.00147   1.88054
   A21        1.88360   0.00032   0.00000   0.00185   0.00185   1.88545
    D1       -0.02975   0.00003   0.00000   0.00033   0.00033  -0.02942
    D2       -2.55145  -0.00016   0.00000  -0.00157  -0.00157  -2.55302
    D3        2.48706   0.00016   0.00000   0.00156   0.00155   2.48861
    D4       -0.03465  -0.00003   0.00000  -0.00034  -0.00034  -0.03499
    D5        0.02975  -0.00003   0.00000  -0.00033  -0.00033   0.02942
    D6        2.55145   0.00016   0.00000   0.00157   0.00157   2.55302
    D7       -2.48706  -0.00016   0.00000  -0.00156  -0.00155  -2.48861
    D8        0.03465   0.00003   0.00000   0.00034   0.00034   0.03499
    D9        0.61918  -0.00007   0.00000  -0.00059  -0.00059   0.61858
   D10       -1.47108  -0.00008   0.00000  -0.00075  -0.00075  -1.47183
   D11        2.70943  -0.00006   0.00000  -0.00044  -0.00044   2.70900
   D12       -0.61918   0.00007   0.00000   0.00059   0.00059  -0.61858
   D13       -2.70943   0.00006   0.00000   0.00044   0.00044  -2.70900
   D14        1.47108   0.00008   0.00000   0.00075   0.00075   1.47183
   D15        3.14159   0.00000   0.00000   0.00000   0.00000   3.14159
   D16        1.05134  -0.00001   0.00000  -0.00016  -0.00016   1.05118
   D17       -1.05134   0.00001   0.00000   0.00016   0.00016  -1.05118
   D18        0.00000   0.00000   0.00000   0.00000   0.00000   0.00000
   D19       -2.51344  -0.00017   0.00000  -0.00122  -0.00122  -2.51466
   D20        2.51344   0.00017   0.00000   0.00122   0.00122   2.51466
   D21        0.00000   0.00000   0.00000   0.00000   0.00000   0.00000
         Item               Value     Threshold  Converged?
 Maximum Force            0.001809     0.000015     NO 
 RMS     Force            0.000489     0.000010     NO 
 Maximum Displacement     0.007169     0.000060     NO 
 RMS     Displacement     0.003090     0.000040     NO 
 Predicted change in Energy=-2.236830D-05
 Lowest energy point so far.  Saving SCF results.
 GradGradGradGradGradGradGradGradGradGradGradGradGradGradGradGradGradGrad

 Leave Link  103 at Fri Jul  9 19:19:49 2021, MaxMem=  4194304000 cpu:         1.6
 (Enter /home/minenky/programs//g09/l202.exe)
                          Input orientation:                          
 ---------------------------------------------------------------------
 Center     Atomic      Atomic             Coordinates (Angstroms)
 Number     Number       Type             X           Y           Z
 ---------------------------------------------------------------------
      1          6           0       -0.346262    0.402081    0.000000
      2          6           0       -0.345430   -0.895519    0.752154
      3          6           0       -0.345430   -0.895519   -0.752154
      4          1           0       -1.249442   -1.199361    1.262437
      5          1           0        0.569924   -1.181376    1.254982
      6          1           0       -1.249442   -1.199361   -1.262437
      7          1           0        0.569924   -1.181376   -1.254982
      8          1           0       -1.286744    0.941232    0.000000
      9          6           0        0.879017    1.276428    0.000000
     10          1           0        1.787390    0.669249    0.000000
     11          1           0        0.907138    1.917572    0.883763
     12          1           0        0.907138    1.917572   -0.883763
 ---------------------------------------------------------------------
                    Distance matrix (angstroms):
                    1          2          3          4          5
     1  C    0.000000
     2  C    1.499834   0.000000
     3  C    1.499834   1.504308   0.000000
     4  H    2.230270   1.081641   2.228932   0.000000
     5  H    2.218494   1.082785   2.224451   1.819471   0.000000
     6  H    2.230270   2.228932   1.081641   2.524875   3.106094
     7  H    2.218494   2.224451   1.082785   3.106094   2.509964
     8  H    1.084062   2.196693   2.196693   2.485413   3.086691
     9  C    1.505254   2.604296   2.604296   3.500517   2.776926
    10  H    2.150314   2.750119   2.750119   3.782566   2.545981
    11  H    2.156098   3.082163   3.486923   3.809135   3.139267
    12  H    2.156098   3.486923   3.082163   4.355719   3.780400
                    6          7          8          9         10
     6  H    0.000000
     7  H    1.819471   0.000000
     8  H    2.485413   3.086691   0.000000
     9  C    3.500517   2.776926   2.191547   0.000000
    10  H    3.782566   2.545981   3.086142   1.092615   0.000000
    11  H    4.355719   3.780400   2.558788   1.092197   1.764707
    12  H    3.809135   3.139267   2.558788   1.092197   1.764707
                   11         12
    11  H    0.000000
    12  H    1.767526   0.000000
 Stoichiometry    C4H8
 Framework group  CS[SG(C2H2),X(C2H6)]
 Deg. of freedom    17
 Full point group                 CS      NOp   2
 RotChk:  IX=0 Diff= 9.06D-04
 Largest Abelian subgroup         CS      NOp   2
 Largest concise Abelian subgroup CS      NOp   2
                         Standard orientation:                         
 ---------------------------------------------------------------------
 Center     Atomic      Atomic             Coordinates (Angstroms)
 Number     Number       Type             X           Y           Z
 ---------------------------------------------------------------------
      1          6           0       -0.346231    0.402023    0.000000
      2          6           0       -0.346231   -0.895578    0.752154
      3          6           0       -0.346231   -0.895578   -0.752154
      4          1           0       -1.250438   -1.198841    1.262437
      5          1           0        0.568940   -1.182022    1.254982
      6          1           0       -1.250438   -1.198841   -1.262437
      7          1           0        0.568940   -1.182022   -1.254982
      8          1           0       -1.286367    0.941776    0.000000
      9          6           0        0.879608    1.275584    0.000000
     10          1           0        1.787592    0.667823    0.000000
     11          1           0        0.908140    1.916710    0.883763
     12          1           0        0.908140    1.916710   -0.883763
 ---------------------------------------------------------------------
 Rotational constants (GHZ):     15.7244718      6.3886015      5.6125338
 Leave Link  202 at Fri Jul  9 19:19:49 2021, MaxMem=  4194304000 cpu:         0.1
 (Enter /home/minenky/programs//g09/l301.exe)
 Standard basis: def2TZVP (5D, 7F)
 Ernie: Thresh=  0.10000D-02 Tol=  0.10000D-05 Strict=F.
 There are   114 symmetry adapted cartesian basis functions of A'  symmetry.
 There are    78 symmetry adapted cartesian basis functions of A"  symmetry.
 There are   101 symmetry adapted basis functions of A'  symmetry.
 There are    71 symmetry adapted basis functions of A"  symmetry.
   172 basis functions,   268 primitive gaussians,   192 cartesian basis functions
    16 alpha electrons       16 beta electrons
       nuclear repulsion energy       124.6323554825 Hartrees.
 IExCor= 4639 DFT=T Ex+Corr=wB97XD ExCW=0 ScaHFX=  1.000000
 ScaDFX=  1.000000  1.000000  1.000000  1.000000 ScalE2=  1.000000  1.000000
 IRadAn=      5 IRanWt=     -1 IRanGd=            0 ICorTp=0 IEmpDi=121
  HFx wShort=  0.000000 wLong=  0.200000 cFull=  0.222036 cShort=  0.000000 cLong=  0.777964
  DFx wShort=  0.000000 wLong=  0.200000 cFull=  0.000000 cShort=  0.000000 cLong=  1.000000
 NAtoms=   12 NActive=   12 NUniq=    8 SFac= 2.25D+00 NAtFMM=   60 NAOKFM=F Big=F
 Integral buffers will be    131072 words long.
 Raffenetti 2 integral format.
 Two-electron integral symmetry is turned on.
 R6Disp:  Grimme-D2 Dispersion energy=       -0.0046761375 Hartrees.
 Nuclear repulsion after empirical dispersion term =      124.6276793450 Hartrees.
 Leave Link  301 at Fri Jul  9 19:19:49 2021, MaxMem=  4194304000 cpu:         0.3
 (Enter /home/minenky/programs//g09/l302.exe)
 NPDir=0 NMtPBC=     1 NCelOv=     1 NCel=       1 NClECP=     1 NCelD=      1
         NCelK=      1 NCelE2=     1 NClLst=     1 CellRange=     0.0.
 One-electron integrals computed using PRISM.
 One-electron integral symmetry used in STVInt
   2 Symmetry operations used in ECPInt.
 ECPInt:  NShTT=    2926 NPrTT=    8368 LenC2=    2921 LenP2D=    7315.
 LDataN:  DoStor=T MaxTD1= 6 Len=  172
 NBasis=   172 RedAO= T EigKep=  2.44D-04  NBF=   101    71
 NBsUse=   172 1.00D-06 EigRej= -1.00D+00 NBFU=   101    71
 Precomputing XC quadrature grid using
 IXCGrd= 4 IRadAn=           5 IRanWt=          -1 IRanGd=           0 AccXCQ= 0.00D+00.
 Generated NRdTot=       0 NPtTot=           0 NUsed=           0 NTot=          32
 NSgBfM=   192   192   192   192   192 MxSgAt=    12 MxSgA2=    12.
 Leave Link  302 at Fri Jul  9 19:19:49 2021, MaxMem=  4194304000 cpu:         2.7
 (Enter /home/minenky/programs//g09/l303.exe)
 DipDrv:  MaxL=1.
 Leave Link  303 at Fri Jul  9 19:19:49 2021, MaxMem=  4194304000 cpu:         0.6
 (Enter /home/minenky/programs//g09/l401.exe)
 Initial guess from the checkpoint file:  "m1_00_594-11-60_C4H8_wB97XD.chk"
 B after Tr=     0.000000    0.000000    0.000000
         Rot=    1.000000    0.000000    0.000000    0.000353 Ang=   0.04 deg.
 Guess basis will be translated and rotated to current coordinates.
 JPrj=2 DoOrth=T DoCkMO=T.
 Initial guess orbital symmetries:
       Occupied  (A') (A') (A") (A') (A') (A') (A") (A') (A') (A')
                 (A") (A') (A") (A') (A') (A")
       Virtual   (A') (A') (A') (A') (A') (A') (A') (A') (A') (A')
                 (A') (A') (A') (A') (A') (A') (A') (A') (A') (A')
                 (A') (A') (A') (A') (A') (A') (A') (A') (A') (A')
                 (A') (A') (A') (A') (A') (A') (A') (A') (A') (A')
                 (A') (A') (A') (A') (A') (A') (A') (A') (A') (A')
                 (A') (A') (A') (A') (A') (A') (A') (A') (A') (A')
                 (A') (A') (A') (A') (A') (A') (A') (A') (A') (A')
                 (A') (A') (A') (A') (A') (A') (A') (A') (A') (A')
                 (A') (A') (A') (A') (A') (A') (A') (A') (A') (A')
                 (A") (A") (A") (A") (A") (A") (A") (A") (A") (A")
                 (A") (A") (A") (A") (A") (A") (A") (A") (A") (A")
                 (A") (A") (A") (A") (A") (A") (A") (A") (A") (A")
                 (A") (A") (A") (A") (A") (A") (A") (A") (A") (A")
                 (A") (A") (A") (A") (A") (A") (A") (A") (A") (A")
                 (A") (A") (A") (A") (A") (A") (A") (A") (A") (A")
                 (A") (A") (A") (A") (A") (A")
 The electronic state of the initial guess is 1-A'.
 Leave Link  401 at Fri Jul  9 19:19:50 2021, MaxMem=  4194304000 cpu:         1.5
 (Enter /home/minenky/programs//g09/l502.exe)
 Closed shell SCF:
 Using DIIS extrapolation, IDIIS=  1040.
 Integral symmetry usage will be decided dynamically.
 Keep R1 ints in memory in symmetry-blocked form, NReq=332500472.
 IVT=      263166 IEndB=      263166 NGot=  4194304000 MDV=  4138591447
 LenX=  4138591447 LenY=  4138554142
 Requested convergence on RMS density matrix=1.00D-08 within 380 cycles.
 Requested convergence on MAX density matrix=1.00D-06.
 Requested convergence on             energy=1.00D-06.
 No special actions if energy rises.
 FoFCou: FMM=F IPFlag=           0 FMFlag=           0 FMFlg1=           0
         NFxFlg=           0 DoJE=F BraDBF=F KetDBF=F FulRan=T
         wScrn=  0.000000 ICntrl=     600 IOpCl=  0 I1Cent=           0 NGrid=           0
         NMat0=    1 NMatS0=  14878 NMatT0=    0 NMatD0=    1 NMtDS0=    0 NMtDT0=    0
 Petite list used in FoFCou.

 Cycle   1  Pass 1  IDiag  1:
 E= -157.219811221700    
 DIIS: error= 1.65D-04 at cycle   1 NSaved=   1.
 NSaved= 1 IEnMin= 1 EnMin= -157.219811221700     IErMin= 1 ErrMin= 1.65D-04
 ErrMax= 1.65D-04  0.00D+00 EMaxC= 1.00D-01 BMatC= 6.71D-06 BMatP= 6.71D-06
 IDIUse=3 WtCom= 9.98D-01 WtEn= 1.65D-03
 Coeff-Com:  0.100D+01
 Coeff-En:   0.100D+01
 Coeff:      0.100D+01
 Gap=     0.850 Goal=   None    Shift=    0.000
 RMSDP=1.69D-05 MaxDP=4.74D-04              OVMax= 6.51D-04

 Cycle   2  Pass 1  IDiag  1:
 E= -157.219816009035     Delta-E=       -0.000004787335 Rises=F Damp=F
 DIIS: error= 6.09D-05 at cycle   2 NSaved=   2.
 NSaved= 2 IEnMin= 2 EnMin= -157.219816009035     IErMin= 2 ErrMin= 6.09D-05
 ErrMax= 6.09D-05  0.00D+00 EMaxC= 1.00D-01 BMatC= 9.00D-07 BMatP= 6.71D-06
 IDIUse=1 WtCom= 1.00D+00 WtEn= 0.00D+00
 Coeff-Com:  0.175D+00 0.825D+00
 Coeff:      0.175D+00 0.825D+00
 Gap=     0.484 Goal=   None    Shift=    0.000
 RMSDP=6.10D-06 MaxDP=1.25D-04 DE=-4.79D-06 OVMax= 3.16D-04

 Cycle   3  Pass 1  IDiag  1:
 E= -157.219816644150     Delta-E=       -0.000000635114 Rises=F Damp=F
 DIIS: error= 3.65D-05 at cycle   3 NSaved=   3.
 NSaved= 3 IEnMin= 3 EnMin= -157.219816644150     IErMin= 3 ErrMin= 3.65D-05
 ErrMax= 3.65D-05  0.00D+00 EMaxC= 1.00D-01 BMatC= 2.56D-07 BMatP= 9.00D-07
 IDIUse=1 WtCom= 1.00D+00 WtEn= 0.00D+00
 Coeff-Com: -0.355D-01 0.327D+00 0.708D+00
 Coeff:     -0.355D-01 0.327D+00 0.708D+00
 Gap=     0.484 Goal=   None    Shift=    0.000
 RMSDP=2.03D-06 MaxDP=5.03D-05 DE=-6.35D-07 OVMax= 1.12D-04

 Cycle   4  Pass 1  IDiag  1:
 E= -157.219816895471     Delta-E=       -0.000000251321 Rises=F Damp=F
 DIIS: error= 3.33D-06 at cycle   4 NSaved=   4.
 NSaved= 4 IEnMin= 4 EnMin= -157.219816895471     IErMin= 4 ErrMin= 3.33D-06
 ErrMax= 3.33D-06  0.00D+00 EMaxC= 1.00D-01 BMatC= 2.08D-09 BMatP= 2.56D-07
 IDIUse=1 WtCom= 1.00D+00 WtEn= 0.00D+00
 Coeff-Com: -0.623D-02-0.229D-02 0.610D-01 0.948D+00
 Coeff:     -0.623D-02-0.229D-02 0.610D-01 0.948D+00
 Gap=     0.484 Goal=   None    Shift=    0.000
 RMSDP=3.93D-07 MaxDP=8.33D-06 DE=-2.51D-07 OVMax= 1.95D-05

 Cycle   5  Pass 1  IDiag  1:
 E= -157.219816898305     Delta-E=       -0.000000002835 Rises=F Damp=F
 DIIS: error= 1.33D-06 at cycle   5 NSaved=   5.
 NSaved= 5 IEnMin= 5 EnMin= -157.219816898305     IErMin= 5 ErrMin= 1.33D-06
 ErrMax= 1.33D-06  0.00D+00 EMaxC= 1.00D-01 BMatC= 3.66D-10 BMatP= 2.08D-09
 IDIUse=1 WtCom= 1.00D+00 WtEn= 0.00D+00
 Coeff-Com:  0.484D-03-0.220D-01-0.266D-01 0.299D+00 0.749D+00
 Coeff:      0.484D-03-0.220D-01-0.266D-01 0.299D+00 0.749D+00
 Gap=     0.484 Goal=   None    Shift=    0.000
 RMSDP=1.41D-07 MaxDP=2.52D-06 DE=-2.83D-09 OVMax= 7.24D-06

 Cycle   6  Pass 1  IDiag  1:
 E= -157.219816898689     Delta-E=       -0.000000000383 Rises=F Damp=F
 DIIS: error= 4.80D-07 at cycle   6 NSaved=   6.
 NSaved= 6 IEnMin= 6 EnMin= -157.219816898689     IErMin= 6 ErrMin= 4.80D-07
 ErrMax= 4.80D-07  0.00D+00 EMaxC= 1.00D-01 BMatC= 2.82D-11 BMatP= 3.66D-10
 IDIUse=1 WtCom= 1.00D+00 WtEn= 0.00D+00
 Coeff-Com:  0.732D-03-0.569D-02-0.144D-01-0.166D-01 0.206D+00 0.830D+00
 Coeff:      0.732D-03-0.569D-02-0.144D-01-0.166D-01 0.206D+00 0.830D+00
 Gap=     0.484 Goal=   None    Shift=    0.000
 RMSDP=5.80D-08 MaxDP=9.44D-07 DE=-3.83D-10 OVMax= 2.31D-06

 Cycle   7  Pass 1  IDiag  1:
 E= -157.219816898727     Delta-E=       -0.000000000038 Rises=F Damp=F
 DIIS: error= 9.14D-08 at cycle   7 NSaved=   7.
 NSaved= 7 IEnMin= 7 EnMin= -157.219816898727     IErMin= 7 ErrMin= 9.14D-08
 ErrMax= 9.14D-08  0.00D+00 EMaxC= 1.00D-01 BMatC= 1.07D-12 BMatP= 2.82D-11
 IDIUse=1 WtCom= 1.00D+00 WtEn= 0.00D+00
 Coeff-Com:  0.907D-04 0.328D-03-0.109D-02-0.179D-01-0.708D-02 0.137D+00
 Coeff-Com:  0.889D+00
 Coeff:      0.907D-04 0.328D-03-0.109D-02-0.179D-01-0.708D-02 0.137D+00
 Coeff:      0.889D+00
 Gap=     0.484 Goal=   None    Shift=    0.000
 RMSDP=1.91D-08 MaxDP=4.04D-07 DE=-3.84D-11 OVMax= 5.32D-07

 Cycle   8  Pass 1  IDiag  1:
 E= -157.219816898726     Delta-E=        0.000000000001 Rises=F Damp=F
 DIIS: error= 3.90D-08 at cycle   8 NSaved=   8.
 NSaved= 8 IEnMin= 7 EnMin= -157.219816898727     IErMin= 8 ErrMin= 3.90D-08
 ErrMax= 3.90D-08  0.00D+00 EMaxC= 1.00D-01 BMatC= 1.78D-13 BMatP= 1.07D-12
 IDIUse=1 WtCom= 1.00D+00 WtEn= 0.00D+00
 Coeff-Com: -0.386D-04 0.690D-03 0.101D-02-0.470D-02-0.226D-01-0.275D-01
 Coeff-Com:  0.306D+00 0.747D+00
 Coeff:     -0.386D-04 0.690D-03 0.101D-02-0.470D-02-0.226D-01-0.275D-01
 Coeff:      0.306D+00 0.747D+00
 Gap=     0.484 Goal=   None    Shift=    0.000
 RMSDP=5.65D-09 MaxDP=1.28D-07 DE= 5.12D-13 OVMax= 1.76D-07

 SCF Done:  E(RwB97XD) =  -157.219816899     A.U. after    8 cycles
            NFock=  8  Conv=0.56D-08     -V/T= 2.0057
 KE= 1.563302385138D+02 PE=-6.128841992960D+02 EE= 1.747064645384D+02
 Leave Link  502 at Fri Jul  9 19:19:56 2021, MaxMem=  4194304000 cpu:        89.1
 (Enter /home/minenky/programs//g09/l701.exe)
 Compute integral first derivatives.
 ... and contract with generalized density number  0.
 R6Disp: Adding Grimme-D2 dispersion energy 1st derivatives to the gradient.
   2 Symmetry operations used in ECPInt.
 ECPInt:  NShTT=    2926 NPrTT=    8368 LenC2=    2921 LenP2D=    7315.
 LDataN:  DoStor=T MaxTD1= 7 Len=  274
 Leave Link  701 at Fri Jul  9 19:19:56 2021, MaxMem=  4194304000 cpu:         4.1
 (Enter /home/minenky/programs//g09/l702.exe)
 L702 exits ... SP integral derivatives will be done elsewhere.
 Leave Link  702 at Fri Jul  9 19:19:56 2021, MaxMem=  4194304000 cpu:         0.1
 (Enter /home/minenky/programs//g09/l703.exe)
 Compute integral first derivatives, UseDBF=F ICtDFT=           0.
 Integral derivatives from FoFJK, PRISM(SPDF).
 Calling FoFJK, ICntrl=      2127 FMM=F ISym2X=1 I1Cent= 0 IOpClX= 0 NMat=1 NMatS=1 NMatT=0.
 FoFJK:  IHMeth= 1 ICntrl=    2127 DoSepK=T KAlg= 0 I1Cent=   0 FoldK=F
 IRaf=         1 NMat=   1 IRICut=       1 DoRegI=T DoRafI=F ISym2E= 1.
 FoFCou: FMM=F IPFlag=           0 FMFlag=      100000 FMFlg1=         800
         NFxFlg=           0 DoJE=F BraDBF=F KetDBF=F FulRan=T
         wScrn=  0.000000 ICntrl=    2527 IOpCl=  0 I1Cent=           0 NGrid=           0
         NMat0=    1 NMatS0=      1 NMatT0=    0 NMatD0=    1 NMtDS0=    0 NMtDT0=    0
 Petite list used in FoFCou.
 Leave Link  703 at Fri Jul  9 19:19:59 2021, MaxMem=  4194304000 cpu:        49.5
 (Enter /home/minenky/programs//g09/l716.exe)
 Dipole        =-1.66924021D-02 5.31537282D-02 1.77635684D-15
 ***** Axes restored to original set *****
 -------------------------------------------------------------------
 Center     Atomic                   Forces (Hartrees/Bohr)
 Number     Number              X              Y              Z
 -------------------------------------------------------------------
      1        6          -0.000028123   -0.000486918    0.000000000
      2        6          -0.000039640    0.000109340   -0.000244285
      3        6          -0.000039640    0.000109340    0.000244285
[...]
     20 -0.741995D-02  0.231669D-02  0.556251D-02 -0.677741D-01  0.610928D-01
     21 -0.124347D-01  0.534339D-02  0.852954D-02 -0.119180D+00  0.438254D-01
     22  0.119079D-02  0.904008D-04 -0.395557D-03  0.490438D-03 -0.453751D-03
     23  0.240217D-03  0.138565D-02 -0.114691D-02 -0.316629D-03 -0.244716D-02
     24 -0.351845D-03  0.283244D-02  0.457513D-03  0.237321D-03 -0.490409D-02
     25  0.870486D-04  0.123952D-02  0.459002D-03  0.954001D-03  0.135894D-02
     26 -0.198903D-03 -0.221183D-02  0.111268D-02 -0.113181D-02  0.222128D-02
     27 -0.488371D-04 -0.548739D-02  0.282203D-03 -0.471854D-03  0.294106D-02
     28  0.410156D-03  0.622611D-04 -0.287662D-03  0.419802D-03 -0.966676D-03
     29  0.158130D-03  0.582170D-04 -0.387252D-04  0.315360D-03  0.466103D-04
     30  0.151706D-03 -0.316564D-04 -0.925884D-04 -0.161706D-03 -0.238063D-03
     31  0.189012D-03 -0.149451D-02 -0.123593D-04 -0.213225D-04  0.100656D-03
     32 -0.130775D-03 -0.137919D-02  0.380159D-03 -0.983685D-04  0.713124D-03
     33  0.449371D-04  0.572669D-04  0.219492D-03 -0.314315D-04  0.257775D-03
     34 -0.667237D-04  0.494213D-04 -0.171223D-04  0.172962D-03 -0.257945D-03
     35 -0.692780D-05  0.653522D-04 -0.149018D-04  0.537811D-04 -0.470374D-03
     36 -0.587427D-04  0.248376D-03  0.116384D-03  0.217797D-03  0.204356D-03
               21            22            23            24            25 
     21  0.112878D+00
     22 -0.516954D-04  0.281942D+00
     23  0.108916D-02 -0.126629D+00  0.130673D+00
     24  0.128648D-04  0.000000D+00  0.000000D+00  0.389240D-01
     25  0.101516D-02 -0.196643D-01 -0.178963D-01  0.000000D+00  0.518962D+00
     26 -0.954119D-03  0.129301D-01  0.113508D-01  0.000000D+00 -0.387501D-01
     27  0.756292D-03  0.000000D+00  0.000000D+00  0.245809D-03  0.000000D+00
     28 -0.366649D-03 -0.308019D-02 -0.409819D-02  0.000000D+00 -0.225674D+00
     29 -0.222692D-03 -0.351732D-02 -0.185551D-02  0.000000D+00  0.125016D+00
     30 -0.253993D-03  0.000000D+00  0.000000D+00  0.601525D-03  0.000000D+00
     31 -0.174504D-03  0.593157D-03  0.898334D-03 -0.917730D-05 -0.475771D-01
     32  0.113666D-03 -0.111612D-03  0.632823D-03  0.359444D-03 -0.116910D-02
     33 -0.415349D-04 -0.515978D-03 -0.165833D-03 -0.114719D-04 -0.251545D-02
     34 -0.430629D-03  0.593157D-03  0.898334D-03  0.917669D-05 -0.475771D-01
     35 -0.217702D-03 -0.111613D-03  0.632823D-03 -0.359445D-03 -0.116910D-02
     36  0.165579D-04  0.515979D-03  0.165833D-03 -0.114717D-04  0.251545D-02
               26            27            28            29            30 
     26  0.549659D+00
     27  0.000000D+00  0.566922D+00
     28  0.122311D+00  0.000000D+00  0.248817D+00
     29 -0.132497D+00  0.000000D+00 -0.132566D+00  0.142325D+00
     30  0.000000D+00 -0.468191D-01  0.000000D+00  0.000000D+00  0.458911D-01
     31 -0.814166D-03 -0.206417D-02  0.105069D-02  0.146526D-01  0.227185D-01
     32 -0.136528D+00 -0.124089D+00 -0.117553D-02 -0.104971D-01 -0.146268D-01
     33 -0.124909D+00 -0.223264D+00  0.314770D-03  0.147539D-02  0.781404D-03
     34 -0.814166D-03  0.206417D-02  0.105069D-02  0.146526D-01 -0.227185D-01
     35 -0.136528D+00  0.124089D+00 -0.117552D-02 -0.104971D-01  0.146268D-01
     36  0.124909D+00 -0.223264D+00 -0.314770D-03 -0.147539D-02  0.781403D-03
               31            32            33            34            35 
     31  0.501797D-01
     32  0.534243D-02  0.147378D+00
     33  0.310159D-02  0.137866D+00  0.239132D+00
     34 -0.957488D-03  0.162559D-03  0.337841D-03  0.501797D-01
     35  0.162559D-03  0.123592D-01 -0.158492D-01  0.534243D-02  0.147378D+00
     36 -0.337841D-03  0.158492D-01 -0.205838D-01 -0.310159D-02 -0.137866D+00
               36 
     36  0.239132D+00
 FormGI is forming the generalized inverse of G from B-inverse, IUseBI=4.
 Leave Link  716 at Fri Jul  9 19:21:58 2021, MaxMem=  4194304000 cpu:         2.1
 (Enter /home/minenky/programs//g09/l103.exe)

 GradGradGradGradGradGradGradGradGradGradGradGradGradGradGradGradGradGrad
 Berny optimization.
 Red2BG is reusing G-inverse.
 Internal  Forces:  Max     0.000001427 RMS     0.000000603
 Search for a local minimum.
 Step number   1 out of a maximum of    2
 All quantities printed in internal units (Hartrees-Bohrs-Radians)
 Second derivative matrix not updated -- analytic derivatives used.
 ITU=  0
     Eigenvalues ---    0.00213   0.01694   0.01699   0.02104   0.03013
     Eigenvalues ---    0.03260   0.03399   0.04525   0.04572   0.05909
     Eigenvalues ---    0.05985   0.06745   0.08481   0.12332   0.14099
     Eigenvalues ---    0.14919   0.15569   0.18173   0.23614   0.26434
     Eigenvalues ---    0.27248   0.32132   0.33682   0.33750   0.34644
     Eigenvalues ---    0.35530   0.35745   0.35922   0.36259   0.36276
 Angle between quadratic step and forces=  36.78 degrees.
 Linear search not attempted -- first point.
 Iteration  1 RMS(Cart)=  0.00002437 RMS(Int)=  0.00000000
 Iteration  2 RMS(Cart)=  0.00000000 RMS(Int)=  0.00000000
 ITry= 1 IFail=0 DXMaxC= 6.18D-05 DCOld= 1.00D+10 DXMaxT= 3.00D-01 DXLimC= 3.00D+00 Rises=F
 ClnCor:  largest displacement from symmetrization is 4.47D-11 for atom     7.
 Variable       Old X    -DE/DX   Delta X   Delta X   Delta X     New X
                                 (Linear)    (Quad)   (Total)
    R1        2.83361   0.00000   0.00000   0.00000   0.00000   2.83361
    R2        2.83361   0.00000   0.00000   0.00000   0.00000   2.83361
    R3        2.04866   0.00000   0.00000   0.00000   0.00000   2.04866
    R4        2.84521   0.00000   0.00000   0.00001   0.00001   2.84522
    R5        2.84204   0.00000   0.00000   0.00000   0.00000   2.84204
    R6        2.04400   0.00000   0.00000   0.00000   0.00000   2.04400
    R7        2.04615   0.00000   0.00000   0.00000   0.00000   2.04615
    R8        2.04400   0.00000   0.00000   0.00000   0.00000   2.04400
    R9        2.04615   0.00000   0.00000   0.00000   0.00000   2.04615
   R10        2.06472   0.00000   0.00000   0.00000   0.00000   2.06472
   R11        2.06394   0.00000   0.00000   0.00000   0.00000   2.06394
   R12        2.06394   0.00000   0.00000   0.00000   0.00000   2.06394
    A1        2.01625   0.00000   0.00000   0.00003   0.00003   2.01628
    A2        2.09691   0.00000   0.00000  -0.00003  -0.00003   2.09688
    A3        2.01625   0.00000   0.00000   0.00003   0.00003   2.01628
    A4        2.09691   0.00000   0.00000  -0.00003  -0.00003   2.09688
    A5        2.00102   0.00000   0.00000  -0.00001  -0.00001   2.00101
    A6        2.07051   0.00000   0.00000   0.00000   0.00000   2.07052
    A7        2.05046   0.00000   0.00000   0.00001   0.00001   2.05047
    A8        2.06180   0.00000   0.00000  -0.00003  -0.00003   2.06178
    A9        2.05402   0.00000   0.00000   0.00003   0.00003   2.05405
   A10        1.99705   0.00000   0.00000  -0.00001  -0.00001   1.99704
   A11        2.07051   0.00000   0.00000   0.00000   0.00000   2.07052
   A12        2.05046   0.00000   0.00000   0.00001   0.00001   2.05047
   A13        2.06180   0.00000   0.00000  -0.00003  -0.00003   2.06178
   A14        2.05402   0.00000   0.00000   0.00003   0.00003   2.05405
   A15        1.99705   0.00000   0.00000  -0.00001  -0.00001   1.99704
   A16        1.93221   0.00000   0.00000   0.00001   0.00001   1.93222
   A17        1.94151   0.00000   0.00000   0.00000   0.00000   1.94151
   A18        1.94151   0.00000   0.00000   0.00000   0.00000   1.94151
   A19        1.88033   0.00000   0.00000   0.00000   0.00000   1.88033
   A20        1.88033   0.00000   0.00000   0.00000   0.00000   1.88033
   A21        1.88547   0.00000   0.00000   0.00000   0.00000   1.88546
    D1       -0.02898   0.00000   0.00000   0.00006   0.00006  -0.02892
    D2       -2.55245   0.00000   0.00000   0.00006   0.00006  -2.55239
    D3        2.48890   0.00000   0.00000   0.00006   0.00006   2.48895
    D4       -0.03458   0.00000   0.00000   0.00006   0.00006  -0.03452
    D5        0.02898   0.00000   0.00000  -0.00006  -0.00006   0.02892
    D6        2.55245   0.00000   0.00000  -0.00006  -0.00006   2.55239
    D7       -2.48890   0.00000   0.00000  -0.00006  -0.00006  -2.48895
    D8        0.03458   0.00000   0.00000  -0.00006  -0.00006   0.03452
    D9        0.61862   0.00000   0.00000  -0.00001  -0.00001   0.61861
   D10       -1.47153   0.00000   0.00000  -0.00001  -0.00001  -1.47155
   D11        2.70877   0.00000   0.00000  -0.00001  -0.00001   2.70876
   D12       -0.61862   0.00000   0.00000   0.00001   0.00001  -0.61861
   D13       -2.70877   0.00000   0.00000   0.00001   0.00001  -2.70876
   D14        1.47153   0.00000   0.00000   0.00001   0.00001   1.47155
   D15        3.14159   0.00000   0.00000   0.00000   0.00000   3.14159
   D16        1.05144   0.00000   0.00000   0.00000   0.00000   1.05144
   D17       -1.05144   0.00000   0.00000   0.00000   0.00000  -1.05144
   D18        0.00000   0.00000   0.00000   0.00000   0.00000   0.00000
   D19       -2.51500   0.00000   0.00000   0.00001   0.00001  -2.51499
   D20        2.51500   0.00000   0.00000  -0.00001  -0.00001   2.51499
   D21        0.00000   0.00000   0.00000   0.00000   0.00000   0.00000
         Item               Value     Threshold  Converged?
 Maximum Force            0.000001     0.000015     YES
 RMS     Force            0.000001     0.000010     YES
 Maximum Displacement     0.000062     0.000060     NO 
 RMS     Displacement     0.000024     0.000040     YES
 Predicted change in Energy=-3.420476D-10
 GradGradGradGradGradGradGradGradGradGradGradGradGradGradGradGradGradGrad

 Leave Link  103 at Fri Jul  9 19:21:58 2021, MaxMem=  4194304000 cpu:         0.1
 (Enter /home/minenky/programs//g09/l9999.exe)
 1\1\GINC-CN513-11-R\Freq\RwB97XD\def2TZVP\C4H8\MINENKY\09-Jul-2021\0\\
 #P Geom=AllCheck Guess=TCheck SCRF=Check GenChk RwB97XD/def2TZVP Freq\
 \The PBEPBE optimization and frequencies\\0,1\C,-0.3463899827,0.401749
 1373,0.\C,-0.3454841728,-0.8955523728,0.7519706595\C,-0.3454841728,-0.
 8955523728,-0.7519706595\H,-1.2495669932,-1.1996325675,1.2619791494\H,
 0.5698869376,-1.1808514315,1.2550680659\H,-1.2495669932,-1.1996325675,
 -1.2619791494\H,0.5698869376,-1.1808514315,-1.2550680659\H,-1.28686782
 64,0.9409933138,0.\C,0.8790360476,1.2765200395,0.\H,1.7872766059,0.669
 1609608,0.\H,0.907527808,1.9176356469,0.8837656029\H,0.907527808,1.917
 6356469,-0.8837656029\\Version=AM64L-G09RevD.01\State=1-A'\HF=-157.219
 8173\RMSD=1.540e-09\RMSF=1.511e-06\ZeroPoint=0.1101458\Thermal=0.11474
 54\Dipole=-0.0167402,0.0530595,0.\DipoleDeriv=0.1166124,0.0328517,0.,0
 .0261477,-0.0675411,0.,0.,0.,0.1668735,0.0816028,-0.0277434,-0.0040775
 ,-0.0153051,-0.0165299,0.1230579,0.0139577,0.1422786,-0.1117323,0.0816
 028,-0.0277434,0.0040775,-0.0153051,-0.0165299,-0.1230578,-0.0139577,-
 0.1422786,-0.1117323,-0.0494369,-0.0533404,0.0818921,-0.0342416,0.0404
 371,0.0557092,0.0399482,0.0563999,-0.0103221,-0.0594805,0.0462831,-0.0
 795732,0.0062827,0.0633165,0.0395902,-0.0324688,0.0495728,-0.0148294,-
 0.0494369,-0.0533404,-0.0818921,-0.0342416,0.0404371,-0.0557092,-0.039
 9482,-0.0563999,-0.0103221,-0.0594805,0.0462831,0.0795732,0.0062827,0.
 0633165,-0.0395903,0.0324688,-0.0495728,-0.0148294,-0.1053347,0.054326
 7,0.,0.0317629,-0.0642379,0.,0.,0.,0.0736839,0.0457857,0.0244366,0.,-0
 .011801,0.0803315,0.,0.,0.,0.1277888,-0.0838767,0.0430532,0.,0.1268023
 ,-0.0307418,0.,0.,0.,0.0636396,0.0407212,-0.0425334,0.0136726,-0.04319
 2,-0.046129,-0.0874067,-0.0244766,-0.1347568,-0.0791091,0.0407212,-0.0
 425334,-0.0136726,-0.043192,-0.046129,0.0874067,0.0244766,0.1347568,-0
 .0791091\Polar=44.3270832,3.1533435,49.3557636,0.,0.,45.9579812\PG=CS 
 [SG(C2H2),X(C2H6)]\NImag=0\\0.61939335,-0.04361853,0.62730806,0.,0.,0.
 26572938,-0.07511851,0.00348662,-0.00382769,0.67067337,0.00117788,-0.1
 7163771,0.06376718,0.00643535,0.32730884,-0.00234613,0.10961089,-0.068
 83935,-0.00074145,-0.17596373,0.52304170,-0.07511851,0.00348662,0.0038
 2770,-0.07421475,-0.00049901,-0.00090648,0.67067337,0.00117788,-0.1716
 3771,-0.06376718,-0.00049901,-0.01439501,-0.02473337,0.00643535,0.3273
 0884,0.00234612,-0.10961089,-0.06883935,0.00090648,0.02473337,-0.21932
 997,0.00074145,0.17596373,0.52304170,0.00225976,0.00252250,-0.00282091
 ,-0.26230154,-0.06808640,0.11413680,0.00228874,0.00117599,-0.00287550,
 0.27044598,-0.02708172,-0.00490448,0.01139095,-0.06610553,-0.06104662,
 0.04317528,0.01460203,0.00058891,-0.00397374,0.07209269,0.06378213,-0.
 00110444,0.00033199,-0.00510698,0.11067305,0.04234595,-0.10618654,0.02
 329529,0.00872477,-0.01203087,-0.12061544,-0.04659930,0.11495010,0.000
 70193,-0.00063671,0.00167019,-0.26367948,0.06314539,-0.11252890,0.0024
 3630,-0.00099890,0.00292596,-0.01621334,0.00715878,-0.01207524,0.27316
 501,0.02810765,-0.00727209,0.01334291,0.06123871,-0.05759824,0.0399124
 5,-0.01448352,0.00020052,-0.00454021,-0.00741995,0.00231669,-0.0055625
 1,-0.06777411,0.06109279,0.00034764,-0.00043132,-0.00480508,-0.1087742
 2,0.03973300,-0.10380169,-0.02352682,0.00862995,-0.01203753,0.01243474
 ,-0.00534339,0.00852954,0.11917952,-0.04382544,0.11287775,0.00225976,0
 .00252249,0.00282091,0.00228874,0.00117599,0.00287550,-0.26230154,-0.0
 6808640,-0.11413680,0.00121131,-0.00047062,0.00012085,0.00049881,0.000
 12405,0.00040164,0.27044598,-0.02708172,-0.00490447,-0.01139095,0.0146
 0203,0.00058891,0.00397374,-0.06610553,-0.06104662,-0.04317528,-0.0004
 7062,0.00010817,-0.00214033,-0.00014272,0.00123698,0.00317109,0.072092
 69,0.06378213,0.00110444,-0.00033199,-0.00510698,-0.02329529,-0.008724
 77,-0.01203087,-0.11067305,-0.04234595,-0.10618654,-0.00012085,0.00214
 033,0.00228705,0.00054778,-0.00319173,-0.00342530,0.12061544,0.0465993
 0,0.11495010,0.00070193,-0.00063671,-0.00167019,0.00243630,-0.00099890
 ,-0.00292596,-0.26367948,0.06314539,0.11252890,0.00049881,-0.00014272,
 -0.00054778,0.00107490,0.00042592,-0.00007083,-0.01621334,0.00715878,0
 .01207524,0.27316501,0.02810765,-0.00727210,-0.01334291,-0.01448352,0.
 00020052,0.00454021,0.06123871,-0.05759824,-0.03991245,0.00012405,0.00
 123698,0.00319173,0.00042592,-0.00004014,-0.00212557,-0.00741995,0.002
 31669,0.00556251,-0.06777411,0.06109279,-0.00034764,0.00043132,-0.0048
 0508,0.02352682,-0.00862995,-0.01203753,0.10877422,-0.03973300,-0.1038
 0169,-0.00040164,-0.00317109,-0.00342530,0.00007083,0.00212557,0.00217
 213,-0.01243474,0.00534339,0.00852954,-0.11917952,0.04382544,0.1128777
 5,-0.26707603,0.12266381,0.,0.00166473,-0.00224878,0.00083384,0.001664
 72,-0.00224878,-0.00083384,0.00119079,0.00009040,0.00039556,0.00049044
 ,-0.00045375,0.00005169,0.00119079,0.00009040,-0.00039556,0.00049044,-
 0.00045375,-0.00005170,0.28194229,0.11904177,-0.11712910,0.,0.01396898
 ,-0.01109112,-0.00126502,0.01396898,-0.01109112,0.00126502,0.00024022,
 0.00138565,0.00114691,-0.00031663,-0.00244716,-0.00108916,0.00024022,0
 .00138565,-0.00114691,-0.00031663,-0.00244716,0.00108916,-0.12662909,0
 .13067339,0.,0.,-0.03830630,-0.02402941,0.01136976,-0.00119142,0.02402
 941,-0.01136976,-0.00119142,0.00035184,-0.00283244,0.00045751,-0.00023
 732,0.00490409,0.00001286,-0.00035184,0.00283244,0.00045751,0.00023732
 ,-0.00490409,0.00001286,0.,0.,0.03892400,-0.18222467,-0.06767044,0.,0.
 00083644,-0.00177877,0.00066595,0.00083643,-0.00177877,-0.00066595,0.0
 0008705,0.00123952,-0.00045900,0.00095400,0.00135895,-0.00101516,0.000
 08705,0.00123952,0.00045900,0.00095400,0.00135894,0.00101516,-0.019664
 29,-0.01789629,0.,0.51896223,-0.06272183,-0.12652058,0.,-0.01473969,-0
 .01447703,-0.00016658,-0.01473969,-0.01447702,0.00016658,-0.00019890,-
 0.00221183,-0.00111268,-0.00113181,0.00222129,0.00095412,-0.00019890,-
 0.00221183,0.00111268,-0.00113181,0.00222128,-0.00095412,0.01293008,0.
 01135083,0.,-0.03875009,0.54965867,0.,0.,-0.07156809,0.02519934,0.0144
 0444,-0.00216458,-0.02519934,-0.01440444,-0.00216458,0.00004884,0.0054
 8739,0.00028220,0.00047186,-0.00294106,0.00075629,-0.00004884,-0.00548
 739,0.00028220,-0.00047185,0.00294106,0.00075629,0.,0.,0.00024581,0.,0
 .,0.56692241,-0.02533849,0.01556988,0.,0.00075733,0.00147186,-0.000025
 10,0.00075733,0.00147186,0.00002509,0.00041016,0.00006226,0.00028766,0
 .00041980,-0.00096668,0.00036665,0.00041016,0.00006226,-0.00028766,0.0
 0041980,-0.00096668,-0.00036665,-0.00308019,-0.00409819,0.,-0.22567408
 ,0.12231096,0.,0.24881681,-0.01781664,0.00973207,0.,-0.00068369,0.0015
 4019,-0.00012471,-0.00068369,0.00154019,0.00012471,0.00015813,0.000058
 22,0.00003872,0.00031536,0.00004661,0.00022269,0.00015813,0.00005822,-
 0.00003873,0.00031536,0.00004661,-0.00022269,-0.00351732,-0.00185551,0
 .,0.12501562,-0.13249746,0.,-0.13256649,0.14232506,0.,0.,-0.00121519,0
 .00092526,-0.00038724,0.00033603,-0.00092526,0.00038724,0.00033603,-0.
 00015171,0.00003166,-0.00009259,0.00016171,0.00023806,-0.00025399,0.00
 015171,-0.00003166,-0.00009259,-0.00016171,-0.00023806,-0.00025399,0.,
 0.,0.00060152,0.,0.,-0.04681911,0.,0.,0.04589107,-0.00022026,-0.018844
 78,-0.02354017,0.00136978,0.00151610,0.00041618,-0.00471239,-0.0013107
 1,-0.00054575,-0.00006672,0.00004942,0.00001712,0.00017296,-0.00025795
 ,0.00043063,0.00018901,-0.00149451,-0.00001236,-0.00002132,0.00010066,
 -0.00017450,0.00059316,0.00089833,-0.00000918,-0.04757707,-0.00081417,
 -0.00206417,0.00105069,0.01465261,0.02271846,0.05017965,0.00035379,-0.
 01288095,-0.01538674,0.00115290,0.00088587,0.00017084,-0.00437316,-0.0
 0027862,-0.00087001,-0.00000693,0.00006535,0.00001490,0.00005378,-0.00
 047037,0.00021770,-0.00013077,-0.00137919,0.00038016,-0.00009837,0.000
 71312,0.00011367,-0.00011161,0.00063282,0.00035944,-0.00116910,-0.1365
 2817,-0.12408868,-0.00117553,-0.01049711,-0.01462685,0.00534243,0.1473
 7801,-0.00026377,0.00131129,0.00143151,-0.00043816,-0.00111990,0.00102
 738,0.00012472,0.00152811,0.00117684,0.00005874,-0.00024838,0.00011638
 ,-0.00021780,-0.00020436,0.00001656,0.00004494,0.00005727,0.00021949,-
 0.00003143,0.00025777,-0.00004153,-0.00051598,-0.00016583,-0.00001147,
 -0.00251545,-0.12490860,-0.22326443,0.00031477,0.00147539,0.00078140,0
 .00310159,0.13786640,0.23913171,-0.00022026,-0.01884478,0.02354017,-0.
 00471239,-0.00131071,0.00054575,0.00136978,0.00151610,-0.00041618,0.00
 018901,-0.00149451,0.00001236,-0.00002132,0.00010066,0.00017450,-0.000
 06672,0.00004942,-0.00001712,0.00017296,-0.00025795,-0.00043063,0.0005
 9316,0.00089833,0.00000918,-0.04757707,-0.00081417,0.00206417,0.001050
 69,0.01465261,-0.02271846,-0.00095749,0.00016256,0.00033784,0.05017965
 ,0.00035379,-0.01288095,0.01538674,-0.00437316,-0.00027862,0.00087001,
 0.00115290,0.00088587,-0.00017084,-0.00013077,-0.00137919,-0.00038016,
 -0.00009837,0.00071312,-0.00011367,-0.00000693,0.00006535,-0.00001490,
 0.00005378,-0.00047037,-0.00021770,-0.00011161,0.00063282,-0.00035944,
 -0.00116910,-0.13652817,0.12408868,-0.00117552,-0.01049711,0.01462685,
 0.00016256,0.01235922,-0.01584917,0.00534243,0.14737801,0.00026377,-0.
 00131129,0.00143151,-0.00012472,-0.00152811,0.00117684,0.00043816,0.00
 111990,0.00102738,-0.00004494,-0.00005727,0.00021949,0.00003143,-0.000
 25777,-0.00004153,-0.00005874,0.00024838,0.00011638,0.00021780,0.00020
 436,0.00001656,0.00051598,0.00016583,-0.00001147,0.00251545,0.12490860
 ,-0.22326443,-0.00031477,-0.00147539,0.00078140,-0.00033784,0.01584917
 ,-0.02058384,-0.00310159,-0.13786640,0.23913171\\0.00000581,0.00000152
 ,0.,-0.00000233,-0.00000118,0.00000028,-0.00000233,-0.00000118,-0.0000
 0028,0.00000036,0.00000131,0.00000061,0.00000055,-0.00000029,-0.000001
 34,0.00000036,0.00000131,-0.00000061,0.00000055,-0.00000029,0.00000134
 ,-0.00000162,-0.00000117,0.,-0.00000350,0.00000181,0.,0.00000097,-0.00
 000150,0.,0.00000059,-0.00000016,0.00000004,0.00000059,-0.00000016,-0.
 00000004\\\@


 MANHOOD BEGINS BY TRYING TO SHAVE FACE,
 AND ENDS BY TRYING TO SAVE FACE.
 Job cpu time:       0 days  0 hours 24 minutes 19.6 seconds.
 File lengths (MBytes):  RWF=     27 Int=      0 D2E=      0 Chk=      3 Scr=      1
 Normal termination of Gaussian 09 at Fri Jul  9 19:21:58 2021.
