 Entering Gaussian System, Link 0=g09
 Initial command:
 /home/minenky/programs//g09/l1.exe "/local/scratch/minenky/m1_00_192-54-1-C32H18_wB97XD/Gau-29334.inp" -scrdir="/local/scratch/minenky/m1_00_192-54-1-C32H18_wB97XD/"
 Entering Link 1 = /home/minenky/programs//g09/l1.exe PID=     29335.
  
 Copyright (c) 1988,1990,1992,1993,1995,1998,2003,2009,2013,
            Gaussian, Inc.  All Rights Reserved.
  
 This is part of the Gaussian(R) 09 program.  It is based on
 the Gaussian(R) 03 system (copyright 2003, Gaussian, Inc.),
 the Gaussian(R) 98 system (copyright 1998, Gaussian, Inc.),
 the Gaussian(R) 94 system (copyright 1995, Gaussian, Inc.),
 the Gaussian 92(TM) system (copyright 1992, Gaussian, Inc.),
 the Gaussian 90(TM) system (copyright 1990, Gaussian, Inc.),
 the Gaussian 88(TM) system (copyright 1988, Gaussian, Inc.),
 the Gaussian 86(TM) system (copyright 1986, Carnegie Mellon
 University), and the Gaussian 82(TM) system (copyright 1983,
 Carnegie Mellon University). Gaussian is a federally registered
 trademark of Gaussian, Inc.
  
 This software contains proprietary and confidential information,
 including trade secrets, belonging to Gaussian, Inc.
  
 This software is provided under written license and may be
 used, copied, transmitted, or stored only in accord with that
 written license.
  
 The following legend is applicable only to US Government
 contracts under FAR:
  
                    RESTRICTED RIGHTS LEGEND
  
 Use, reproduction and disclosure by the US Government is
 subject to restrictions as set forth in subparagraphs (a)
 and (c) of the Commercial Computer Software - Restricted
 Rights clause in FAR 52.227-19.
  
 Gaussian, Inc.
 340 Quinnipiac St., Bldg. 40, Wallingford CT 06492
  
  
 ---------------------------------------------------------------
 Warning -- This program may not be used in any manner that
 competes with the business of Gaussian, Inc. or will provide
 assistance to any competitor of Gaussian, Inc.  The licensee
 of this program is prohibited from giving any competitor of
 Gaussian, Inc. access to this program.  By using this program,
 the user acknowledges that Gaussian, Inc. is engaged in the
 business of creating and licensing software in the field of
 computational chemistry and represents and warrants to the
 licensee that it is not a competitor of Gaussian, Inc. and that
 it will not use this program in any manner prohibited above.
 ---------------------------------------------------------------
  

 Cite this work as:
 Gaussian 09, Revision D.01,
 M. J. Frisch, G. W. Trucks, H. B. Schlegel, G. E. Scuseria, 
 M. A. Robb, J. R. Cheeseman, G. Scalmani, V. Barone, B. Mennucci, 
 G. A. Petersson, H. Nakatsuji, M. Caricato, X. Li, H. P. Hratchian, 
 A. F. Izmaylov, J. Bloino, G. Zheng, J. L. Sonnenberg, M. Hada, 
 M. Ehara, K. Toyota, R. Fukuda, J. Hasegawa, M. Ishida, T. Nakajima, 
 Y. Honda, O. Kitao, H. Nakai, T. Vreven, J. A. Montgomery, Jr., 
 J. E. Peralta, F. Ogliaro, M. Bearpark, J. J. Heyd, E. Brothers, 
 K. N. Kudin, V. N. Staroverov, T. Keith, R. Kobayashi, J. Normand, 
 K. Raghavachari, A. Rendell, J. C. Burant, S. S. Iyengar, J. Tomasi, 
 M. Cossi, N. Rega, J. M. Millam, M. Klene, J. E. Knox, J. B. Cross, 
 V. Bakken, C. Adamo, J. Jaramillo, R. Gomperts, R. E. Stratmann, 
 O. Yazyev, A. J. Austin, R. Cammi, C. Pomelli, J. W. Ochterski, 
 R. L. Martin, K. Morokuma, V. G. Zakrzewski, G. A. Voth, 
 P. Salvador, J. J. Dannenberg, S. Dapprich, A. D. Daniels, 
 O. Farkas, J. B. Foresman, J. V. Ortiz, J. Cioslowski, 
 and D. J. Fox, Gaussian, Inc., Wallingford CT, 2013.
 
 ******************************************
 Gaussian 09:  AM64L-G09RevD.01 24-Apr-2013
                27-Jul-2019 
 ******************************************
 %Mem=32000MB
 %NProcShared=16
 Will use up to   16 processors via shared memory.
 %Chk=m1_00_192-54-1-C32H18_wB97XD
 ----------------------------------------------------------------------
 #P wB97XD/def2tzvp opt=(tight) freq integral(Grid=ultrafine) # SCF(Max
 Cycle=380) 5d 7f GFPrint
 ----------------------------------------------------------------------
 1/7=10,14=-1,18=20,19=15,26=4,38=1/1,3;
 2/9=110,12=2,17=6,18=5,40=1/2;
 3/5=44,7=101,8=11,11=2,16=1,24=100,25=1,30=1,71=1,74=-58,75=-5/1,2,3;
 4//1;
 5/5=2,7=380,38=5/2;
 6/7=2,8=2,9=2,10=2,28=1/1;
 7//1,2,3,16;
 1/7=10,14=-1,18=20,19=15,26=4/3(2);
 2/9=110/2;
 99//99;
 2/9=110/2;
 3/5=44,7=101,8=11,11=2,16=1,25=1,30=1,71=1,74=-58,75=-5/1,2,3;
 4/5=5,16=3,69=1/1;
 5/5=2,7=380,38=5/2;
 7//1,2,3,16;
 1/7=10,14=-1,18=20,19=15,26=4/3(-5);
 2/9=110/2;
 6/7=2,8=2,9=2,10=2,19=2,28=1/1;
 99/9=1/99;
 Leave Link    1 at Sat Jul 27 14:31:51 2019, MaxMem=  4194304000 cpu:         2.3
 (Enter /home/minenky/programs//g09/l101.exe)
 ---------------------------------------
 The PBEPBE optimization and frequencies
 ---------------------------------------
 Symbolic Z-matrix:
 Charge =  0 Multiplicity = 1
 C                     3.0188    2.3102    5.8462 
 C                     3.7634    3.2611    5.0683 
 C                     3.1861    2.2797    7.3066 
 C                     2.1698    1.4253    5.1877 
 C                     4.6849    4.1867    5.7437 
 C                     3.6048    3.2637    3.6853 
 C                     4.9333    4.0542    7.141 
 C                     4.1768    3.0934    7.9292 
 C                     4.3805    3.005     9.3371 
 C                     5.8823    4.909     7.7736 
 C                     5.3363    5.2054    5.0333 
 C                     2.3846    1.4545    8.109 
 C                     6.199     4.7315    9.1984 
 C                     5.4504    3.7844    9.9771 
 C                     5.7768    3.6161    11.3198 
 C                     7.2237    5.4436    9.8153 
 C                     6.5048    5.9102    7.0139 
 C                     3.5498    2.1626    10.0904 
 C                     7.5493    5.2869    11.1756 
 C                     6.8022    4.3439    11.9522 
 C                     7.1299    4.1703    13.3277 
 C                     8.5968    6.0208    11.803 
 C                     6.2281    6.063     5.6623 
 C                     2.5576    1.4037    9.4853 
 C                     8.144     4.8963    13.9038 
 C                     8.8858    5.8321    13.1328 
 C                     1.9961    1.432     3.791 
 C                     2.7363    2.3815    3.0157 
 C                     1.1228    0.5267    3.1224 
 C                     2.5749    2.391     1.6003 
 C                     0.9874    0.5637    1.7557 
 C                     1.7217    1.5065    0.986 
 H                     1.6208    0.676     5.7472 
 H                     4.1754    3.951     3.0706 
 H                     5.134     5.3519    3.9792 
 H                     1.5981    0.857     7.6645 
 H                     5.2484    2.8869    11.9239 
 H                     7.8257    6.1413    9.2438 
 H                     7.1996    6.5978    7.4805 
 H                     3.6577    2.1091    11.1669 
 H                     6.5611    3.4529    13.9147 
 H                     9.1632    6.7351    11.2099 
 H                     6.7097    6.8555    5.0961 
 H                     1.9148    0.7699    10.0899 
 H                     8.3852    4.7578    14.9543 
 H                     9.6855    6.3983    13.6027 
 H                     0.5634   -0.1942    3.7142 
 H                     3.1387    3.113     1.0141 
 H                     0.3171   -0.1297    1.2551 
 H                     1.6042    1.5229   -0.0941 
 
 NAtoms=     50 NQM=       50 NQMF=       0 NMMI=      0 NMMIF=      0
                NMic=       0 NMicF=      0.
                    Isotopes and Nuclear Properties:
 (Nuclear quadrupole moments (NQMom) in fm**2, nuclear magnetic moments (NMagM)
  in nuclear magnetons)

  Atom         1           2           3           4           5           6           7           8           9          10
 IAtWgt=          12          12          12          12          12          12          12          12          12          12
 AtmWgt=  12.0000000  12.0000000  12.0000000  12.0000000  12.0000000  12.0000000  12.0000000  12.0000000  12.0000000  12.0000000
 NucSpn=           0           0           0           0           0           0           0           0           0           0
 AtZEff=   0.0000000   0.0000000   0.0000000   0.0000000   0.0000000   0.0000000   0.0000000   0.0000000   0.0000000   0.0000000
 NQMom=    0.0000000   0.0000000   0.0000000   0.0000000   0.0000000   0.0000000   0.0000000   0.0000000   0.0000000   0.0000000
 NMagM=    0.0000000   0.0000000   0.0000000   0.0000000   0.0000000   0.0000000   0.0000000   0.0000000   0.0000000   0.0000000
 AtZNuc=   6.0000000   6.0000000   6.0000000   6.0000000   6.0000000   6.0000000   6.0000000   6.0000000   6.0000000   6.0000000

  Atom        11          12          13          14          15          16          17          18          19          20
 IAtWgt=          12          12          12          12          12          12          12          12          12          12
 AtmWgt=  12.0000000  12.0000000  12.0000000  12.0000000  12.0000000  12.0000000  12.0000000  12.0000000  12.0000000  12.0000000
 NucSpn=           0           0           0           0           0           0           0           0           0           0
 AtZEff=   0.0000000   0.0000000   0.0000000   0.0000000   0.0000000   0.0000000   0.0000000   0.0000000   0.0000000   0.0000000
 NQMom=    0.0000000   0.0000000   0.0000000   0.0000000   0.0000000   0.0000000   0.0000000   0.0000000   0.0000000   0.0000000
 NMagM=    0.0000000   0.0000000   0.0000000   0.0000000   0.0000000   0.0000000   0.0000000   0.0000000   0.0000000   0.0000000
 AtZNuc=   6.0000000   6.0000000   6.0000000   6.0000000   6.0000000   6.0000000   6.0000000   6.0000000   6.0000000   6.0000000

  Atom        21          22          23          24          25          26          27          28          29          30
 IAtWgt=          12          12          12          12          12          12          12          12          12          12
 AtmWgt=  12.0000000  12.0000000  12.0000000  12.0000000  12.0000000  12.0000000  12.0000000  12.0000000  12.0000000  12.0000000
 NucSpn=           0           0           0           0           0           0           0           0           0           0
 AtZEff=   0.0000000   0.0000000   0.0000000   0.0000000   0.0000000   0.0000000   0.0000000   0.0000000   0.0000000   0.0000000
 NQMom=    0.0000000   0.0000000   0.0000000   0.0000000   0.0000000   0.0000000   0.0000000   0.0000000   0.0000000   0.0000000
 NMagM=    0.0000000   0.0000000   0.0000000   0.0000000   0.0000000   0.0000000   0.0000000   0.0000000   0.0000000   0.0000000
 AtZNuc=   6.0000000   6.0000000   6.0000000   6.0000000   6.0000000   6.0000000   6.0000000   6.0000000   6.0000000   6.0000000

  Atom        31          32          33          34          35          36          37          38          39          40
 IAtWgt=          12          12           1           1           1           1           1           1           1           1
 AtmWgt=  12.0000000  12.0000000   1.0078250   1.0078250   1.0078250   1.0078250   1.0078250   1.0078250   1.0078250   1.0078250
 NucSpn=           0           0           1           1           1           1           1           1           1           1
 AtZEff=   0.0000000   0.0000000   0.0000000   0.0000000   0.0000000   0.0000000   0.0000000   0.0000000   0.0000000   0.0000000
 NQMom=    0.0000000   0.0000000   0.0000000   0.0000000   0.0000000   0.0000000   0.0000000   0.0000000   0.0000000   0.0000000
 NMagM=    0.0000000   0.0000000   2.7928460   2.7928460   2.7928460   2.7928460   2.7928460   2.7928460   2.7928460   2.7928460
 AtZNuc=   6.0000000   6.0000000   1.0000000   1.0000000   1.0000000   1.0000000   1.0000000   1.0000000   1.0000000   1.0000000

  Atom        41          42          43          44          45          46          47          48          49          50
 IAtWgt=           1           1           1           1           1           1           1           1           1           1
 AtmWgt=   1.0078250   1.0078250   1.0078250   1.0078250   1.0078250   1.0078250   1.0078250   1.0078250   1.0078250   1.0078250
 NucSpn=           1           1           1           1           1           1           1           1           1           1
 AtZEff=   0.0000000   0.0000000   0.0000000   0.0000000   0.0000000   0.0000000   0.0000000   0.0000000   0.0000000   0.0000000
 NQMom=    0.0000000   0.0000000   0.0000000   0.0000000   0.0000000   0.0000000   0.0000000   0.0000000   0.0000000   0.0000000
 NMagM=    2.7928460   2.7928460   2.7928460   2.7928460   2.7928460   2.7928460   2.7928460   2.7928460   2.7928460   2.7928460
 AtZNuc=   1.0000000   1.0000000   1.0000000   1.0000000   1.0000000   1.0000000   1.0000000   1.0000000   1.0000000   1.0000000
 Leave Link  101 at Sat Jul 27 14:31:53 2019, MaxMem=  4194304000 cpu:        12.7
 (Enter /home/minenky/programs//g09/l103.exe)

 GradGradGradGradGradGradGradGradGradGradGradGradGradGradGradGradGradGrad
 Berny optimization.
 Initialization pass.
                           ----------------------------
                           !    Initial Parameters    !
                           ! (Angstroms and Degrees)  !
 --------------------------                            --------------------------
 ! Name  Definition              Value          Derivative Info.                !
 --------------------------------------------------------------------------------
 ! R1    R(1,2)                  1.4366         estimate D2E/DX2                !
 ! R2    R(1,3)                  1.4703         estimate D2E/DX2                !
 ! R3    R(1,4)                  1.3919         estimate D2E/DX2                !
 ! R4    R(2,5)                  1.4704         estimate D2E/DX2                !
 ! R5    R(2,6)                  1.3921         estimate D2E/DX2                !
 ! R6    R(3,8)                  1.4252         estimate D2E/DX2                !
 ! R7    R(3,12)                 1.4026         estimate D2E/DX2                !
 ! R8    R(4,27)                 1.4075         estimate D2E/DX2                !
 ! R9    R(4,33)                 1.0844         estimate D2E/DX2                !
 ! R10   R(5,7)                  1.4254         estimate D2E/DX2                !
 ! R11   R(5,11)                 1.4024         estimate D2E/DX2                !
 ! R12   R(6,28)                 1.4075         estimate D2E/DX2                !
 ! R13   R(6,34)                 1.0844         estimate D2E/DX2                !
 ! R14   R(7,8)                  1.4549         estimate D2E/DX2                !
 ! R15   R(7,10)                 1.4253         estimate D2E/DX2                !
 ! R16   R(8,9)                  1.4253         estimate D2E/DX2                !
 ! R17   R(9,14)                 1.4703         estimate D2E/DX2                !
 ! R18   R(9,18)                 1.4026         estimate D2E/DX2                !
 ! R19   R(10,13)                1.4703         estimate D2E/DX2                !
 ! R20   R(10,17)                1.4025         estimate D2E/DX2                !
 ! R21   R(11,23)                1.388          estimate D2E/DX2                !
 ! R22   R(11,35)                1.0833         estimate D2E/DX2                !
 ! R23   R(12,24)                1.3881         estimate D2E/DX2                !
 ! R24   R(12,36)                1.0831         estimate D2E/DX2                !
 ! R25   R(13,14)                1.4366         estimate D2E/DX2                !
 ! R26   R(13,16)                1.392          estimate D2E/DX2                !
 ! R27   R(14,15)                1.392          estimate D2E/DX2                !
 ! R28   R(15,20)                1.4075         estimate D2E/DX2                !
 ! R29   R(15,37)                1.0844         estimate D2E/DX2                !
 ! R30   R(16,19)                1.4075         estimate D2E/DX2                !
 ! R31   R(16,38)                1.0843         estimate D2E/DX2                !
 ! R32   R(17,23)                1.3881         estimate D2E/DX2                !
 ! R33   R(17,39)                1.0832         estimate D2E/DX2                !
 ! R34   R(18,24)                1.388          estimate D2E/DX2                !
 ! R35   R(18,40)                1.0832         estimate D2E/DX2                !
 ! R36   R(19,20)                1.432          estimate D2E/DX2                !
 ! R37   R(19,22)                1.4246         estimate D2E/DX2                !
 ! R38   R(20,21)                1.4246         estimate D2E/DX2                !
 ! R39   R(21,25)                1.3738         estimate D2E/DX2                !
 ! R40   R(21,41)                1.0876         estimate D2E/DX2                !
 ! R41   R(22,26)                1.3739         estimate D2E/DX2                !
 ! R42   R(22,42)                1.0876         estimate D2E/DX2                !
 ! R43   R(23,43)                1.0865         estimate D2E/DX2                !
 ! R44   R(24,44)                1.0865         estimate D2E/DX2                !
 ! R45   R(25,26)                1.4214         estimate D2E/DX2                !
 ! R46   R(25,45)                1.0867         estimate D2E/DX2                !
 ! R47   R(26,46)                1.0867         estimate D2E/DX2                !
 ! R48   R(27,28)                1.432          estimate D2E/DX2                !
 ! R49   R(27,29)                1.4245         estimate D2E/DX2                !
 ! R50   R(28,30)                1.4246         estimate D2E/DX2                !
 ! R51   R(29,31)                1.3739         estimate D2E/DX2                !
 ! R52   R(29,47)                1.0876         estimate D2E/DX2                !
 ! R53   R(30,32)                1.3739         estimate D2E/DX2                !
 ! R54   R(30,48)                1.0876         estimate D2E/DX2                !
 ! R55   R(31,32)                1.4214         estimate D2E/DX2                !
 ! R56   R(31,49)                1.0866         estimate D2E/DX2                !
 ! R57   R(32,50)                1.0866         estimate D2E/DX2                !
 ! A1    A(2,1,3)              119.5124         estimate D2E/DX2                !
 ! A2    A(2,1,4)              118.7361         estimate D2E/DX2                !
 ! A3    A(3,1,4)              121.744          estimate D2E/DX2                !
 ! A4    A(1,2,5)              119.5231         estimate D2E/DX2                !
 ! A5    A(1,2,6)              118.6953         estimate D2E/DX2                !
 ! A6    A(5,2,6)              121.7737         estimate D2E/DX2                !
 ! A7    A(1,3,8)              120.0774         estimate D2E/DX2                !
 ! A8    A(1,3,12)             121.0264         estimate D2E/DX2                !
 ! A9    A(8,3,12)             118.8959         estimate D2E/DX2                !
 ! A10   A(1,4,27)             122.8001         estimate D2E/DX2                !
 ! A11   A(1,4,33)             120.2647         estimate D2E/DX2                !
 ! A12   A(27,4,33)            116.9247         estimate D2E/DX2                !
 ! A13   A(2,5,7)              120.065          estimate D2E/DX2                !
 ! A14   A(2,5,11)             121.0426         estimate D2E/DX2                !
 ! A15   A(7,5,11)             118.8918         estimate D2E/DX2                !
 ! A16   A(2,6,28)             122.8053         estimate D2E/DX2                !
 ! A17   A(2,6,34)             120.2929         estimate D2E/DX2                !
 ! A18   A(28,6,34)            116.8917         estimate D2E/DX2                !
 ! A19   A(5,7,8)              120.1233         estimate D2E/DX2                !
 ! A20   A(5,7,10)             119.6947         estimate D2E/DX2                !
 ! A21   A(8,7,10)             120.1205         estimate D2E/DX2                !
 ! A22   A(3,8,7)              120.1206         estimate D2E/DX2                !
 ! A23   A(3,8,9)              119.6993         estimate D2E/DX2                !
 ! A24   A(7,8,9)              120.1186         estimate D2E/DX2                !
 ! A25   A(8,9,14)             120.0724         estimate D2E/DX2                !
 ! A26   A(8,9,18)             118.8906         estimate D2E/DX2                !
 ! A27   A(14,9,18)            121.0366         estimate D2E/DX2                !
 ! A28   A(7,10,13)            120.0734         estimate D2E/DX2                !
 ! A29   A(7,10,17)            118.8971         estimate D2E/DX2                !
 ! A30   A(13,10,17)           121.0291         estimate D2E/DX2                !
 ! A31   A(5,11,23)            121.1789         estimate D2E/DX2                !
 ! A32   A(5,11,35)            120.2917         estimate D2E/DX2                !
 ! A33   A(23,11,35)           118.5158         estimate D2E/DX2                !
 ! A34   A(3,12,24)            121.1684         estimate D2E/DX2                !
 ! A35   A(3,12,36)            120.3135         estimate D2E/DX2                !
 ! A36   A(24,12,36)           118.504          estimate D2E/DX2                !
 ! A37   A(10,13,14)           119.5125         estimate D2E/DX2                !
 ! A38   A(10,13,16)           121.7528         estimate D2E/DX2                !
 ! A39   A(14,13,16)           118.727          estimate D2E/DX2                !
 ! A40   A(9,14,13)            119.5198         estimate D2E/DX2                !
 ! A41   A(9,14,15)            121.7627         estimate D2E/DX2                !
 ! A42   A(13,14,15)           118.7094         estimate D2E/DX2                !
 ! A43   A(14,15,20)           122.7991         estimate D2E/DX2                !
 ! A44   A(14,15,37)           120.2917         estimate D2E/DX2                !
 ! A45   A(20,15,37)           116.8985         estimate D2E/DX2                !
 ! A46   A(13,16,19)           122.7968         estimate D2E/DX2                !
 ! A47   A(13,16,38)           120.2827         estimate D2E/DX2                !
 ! A48   A(19,16,38)           116.9097         estimate D2E/DX2                !
 ! A49   A(10,17,23)           121.1676         estimate D2E/DX2                !
 ! A50   A(10,17,39)           120.3001         estimate D2E/DX2                !
 ! A51   A(23,17,39)           118.5186         estimate D2E/DX2                !
 ! A52   A(9,18,24)            121.1735         estimate D2E/DX2                !
 ! A53   A(9,18,40)            120.2934         estimate D2E/DX2                !
 ! A54   A(24,18,40)           118.519          estimate D2E/DX2                !
 ! A55   A(16,19,20)           118.4751         estimate D2E/DX2                !
 ! A56   A(16,19,22)           122.5739         estimate D2E/DX2                !
 ! A57   A(20,19,22)           118.9491         estimate D2E/DX2                !
 ! A58   A(15,20,19)           118.4858         estimate D2E/DX2                !
 ! A59   A(15,20,21)           122.5738         estimate D2E/DX2                !
 ! A60   A(19,20,21)           118.9385         estimate D2E/DX2                !
 ! A61   A(20,21,25)           120.683          estimate D2E/DX2                !
 ! A62   A(20,21,41)           118.7647         estimate D2E/DX2                !
 ! A63   A(25,21,41)           120.5522         estimate D2E/DX2                !
 ! A64   A(19,22,26)           120.6768         estimate D2E/DX2                !
 ! A65   A(19,22,42)           118.7583         estimate D2E/DX2                !
 ! A66   A(26,22,42)           120.5648         estimate D2E/DX2                !
 ! A67   A(11,23,17)           120.0889         estimate D2E/DX2                !
 ! A68   A(11,23,43)           119.9544         estimate D2E/DX2                !
 ! A69   A(17,23,43)           119.9567         estimate D2E/DX2                !
 ! A70   A(12,24,18)           120.0888         estimate D2E/DX2                !
 ! A71   A(12,24,44)           119.9585         estimate D2E/DX2                !
 ! A72   A(18,24,44)           119.9526         estimate D2E/DX2                !
 ! A73   A(21,25,26)           120.3766         estimate D2E/DX2                !
 ! A74   A(21,25,45)           120.1234         estimate D2E/DX2                !
 ! A75   A(26,25,45)           119.5            estimate D2E/DX2                !
 ! A76   A(22,26,25)           120.3756         estimate D2E/DX2                !
 ! A77   A(22,26,46)           120.1179         estimate D2E/DX2                !
 ! A78   A(25,26,46)           119.5065         estimate D2E/DX2                !
 ! A79   A(4,27,28)            118.4662         estimate D2E/DX2                !
 ! A80   A(4,27,29)            122.5742         estimate D2E/DX2                !
 ! A81   A(28,27,29)           118.9579         estimate D2E/DX2                !
 ! A82   A(6,28,27)            118.49           estimate D2E/DX2                !
 ! A83   A(6,28,30)            122.5754         estimate D2E/DX2                !
 ! A84   A(27,28,30)           118.9327         estimate D2E/DX2                !
 ! A85   A(27,29,31)           120.6771         estimate D2E/DX2                !
 ! A86   A(27,29,47)           118.7621         estimate D2E/DX2                !
 ! A87   A(31,29,47)           120.5608         estimate D2E/DX2                !
 ! A88   A(28,30,32)           120.6831         estimate D2E/DX2                !
 ! A89   A(28,30,48)           118.7649         estimate D2E/DX2                !
 ! A90   A(32,30,48)           120.552          estimate D2E/DX2                !
 ! A91   A(29,31,32)           120.3718         estimate D2E/DX2                !
 ! A92   A(29,31,49)           120.1258         estimate D2E/DX2                !
 ! A93   A(32,31,49)           119.5024         estimate D2E/DX2                !
 ! A94   A(30,32,31)           120.3771         estimate D2E/DX2                !
 ! A95   A(30,32,50)           120.1243         estimate D2E/DX2                !
 ! A96   A(31,32,50)           119.4986         estimate D2E/DX2                !
 ! D1    D(3,1,2,5)              0.1964         estimate D2E/DX2                !
 ! D2    D(3,1,2,6)            179.1889         estimate D2E/DX2                !
 ! D3    D(4,1,2,5)           -178.8261         estimate D2E/DX2                !
 ! D4    D(4,1,2,6)              0.1663         estimate D2E/DX2                !
 ! D5    D(2,1,3,8)             -6.2898         estimate D2E/DX2                !
 ! D6    D(2,1,3,12)           173.8894         estimate D2E/DX2                !
 ! D7    D(4,1,3,8)            172.7023         estimate D2E/DX2                !
 ! D8    D(4,1,3,12)            -7.1184         estimate D2E/DX2                !
 ! D9    D(2,1,4,27)            -0.7941         estimate D2E/DX2                !
 ! D10   D(2,1,4,33)           177.9919         estimate D2E/DX2                !
 ! D11   D(3,1,4,27)          -179.7939         estimate D2E/DX2                !
 ! D12   D(3,1,4,33)            -1.0079         estimate D2E/DX2                !
 ! D13   D(1,2,5,7)              6.0411         estimate D2E/DX2                !
 ! D14   D(1,2,5,11)          -174.2235         estimate D2E/DX2                !
 ! D15   D(6,2,5,7)           -172.9192         estimate D2E/DX2                !
 ! D16   D(6,2,5,11)             6.8161         estimate D2E/DX2                !
 ! D17   D(1,2,6,28)             0.5745         estimate D2E/DX2                !
 ! D18   D(1,2,6,34)          -178.2357         estimate D2E/DX2                !
 ! D19   D(5,2,6,28)           179.5432         estimate D2E/DX2                !
 ! D20   D(5,2,6,34)             0.733          estimate D2E/DX2                !
 ! D21   D(1,3,8,7)              6.178          estimate D2E/DX2                !
 ! D22   D(1,3,8,9)           -176.6696         estimate D2E/DX2                !
 ! D23   D(12,3,8,7)          -173.9974         estimate D2E/DX2                !
 ! D24   D(12,3,8,9)             3.1549         estimate D2E/DX2                !
 ! D25   D(1,3,12,24)          178.72           estimate D2E/DX2                !
 ! D26   D(1,3,12,36)           -2.6626         estimate D2E/DX2                !
 ! D27   D(8,3,12,24)           -1.1028         estimate D2E/DX2                !
 ! D28   D(8,3,12,36)          177.5145         estimate D2E/DX2                !
 ! D29   D(1,4,27,28)            0.6738         estimate D2E/DX2                !
 ! D30   D(1,4,27,29)         -179.8066         estimate D2E/DX2                !
 ! D31   D(33,4,27,28)        -178.1502         estimate D2E/DX2                !
 ! D32   D(33,4,27,29)           1.3695         estimate D2E/DX2                !
 ! D33   D(2,5,7,8)             -6.228          estimate D2E/DX2                !
 ! D34   D(2,5,7,10)           176.6208         estimate D2E/DX2                !
 ! D35   D(11,5,7,8)           174.031          estimate D2E/DX2                !
 ! D36   D(11,5,7,10)           -3.1203         estimate D2E/DX2                !
 ! D37   D(2,5,11,23)         -178.633          estimate D2E/DX2                !
 ! D38   D(2,5,11,35)            2.7262         estimate D2E/DX2                !
 ! D39   D(7,5,11,23)            1.1054         estimate D2E/DX2                !
 ! D40   D(7,5,11,35)         -177.5353         estimate D2E/DX2                !
 ! D41   D(2,6,28,27)           -0.6917         estimate D2E/DX2                !
 ! D42   D(2,6,28,30)          179.8154         estimate D2E/DX2                !
 ! D43   D(34,6,28,27)         178.1564         estimate D2E/DX2                !
 ! D44   D(34,6,28,30)          -1.3365         estimate D2E/DX2                !
 ! D45   D(5,7,8,3)              0.1001         estimate D2E/DX2                !
 ! D46   D(5,7,8,9)           -177.0402         estimate D2E/DX2                !
 ! D47   D(10,7,8,3)           177.2392         estimate D2E/DX2                !
 ! D48   D(10,7,8,9)             0.0988         estimate D2E/DX2                !
 ! D49   D(5,7,10,13)         -176.6656         estimate D2E/DX2                !
 ! D50   D(5,7,10,17)            3.1154         estimate D2E/DX2                !
 ! D51   D(8,7,10,13)            6.1831         estimate D2E/DX2                !
 ! D52   D(8,7,10,17)         -174.0359         estimate D2E/DX2                !
 ! D53   D(3,8,9,14)           176.5738         estimate D2E/DX2                !
 ! D54   D(3,8,9,18)            -3.1763         estimate D2E/DX2                !
 ! D55   D(7,8,9,14)            -6.2738         estimate D2E/DX2                !
 ! D56   D(7,8,9,18)           173.9761         estimate D2E/DX2                !
 ! D57   D(8,9,14,13)            6.1296         estimate D2E/DX2                !
 ! D58   D(8,9,14,15)         -172.8262         estimate D2E/DX2                !
 ! D59   D(18,9,14,13)        -174.1257         estimate D2E/DX2                !
 ! D60   D(18,9,14,15)           6.9184         estimate D2E/DX2                !
 ! D61   D(8,9,18,24)            1.1466         estimate D2E/DX2                !
 ! D62   D(8,9,18,40)         -177.4719         estimate D2E/DX2                !
 ! D63   D(14,9,18,24)        -178.601          estimate D2E/DX2                !
 ! D64   D(14,9,18,40)           2.7805         estimate D2E/DX2                !
 ! D65   D(7,10,13,14)          -6.252          estimate D2E/DX2                !
 ! D66   D(7,10,13,16)         172.7217         estimate D2E/DX2                !
 ! D67   D(17,10,13,14)        173.9718         estimate D2E/DX2                !
 ! D68   D(17,10,13,16)         -7.0546         estimate D2E/DX2                !
 ! D69   D(7,10,17,23)          -1.0953         estimate D2E/DX2                !
 ! D70   D(7,10,17,39)         177.5384         estimate D2E/DX2                !
 ! D71   D(13,10,17,23)        178.6835         estimate D2E/DX2                !
 ! D72   D(13,10,17,39)         -2.6828         estimate D2E/DX2                !
 ! D73   D(5,11,23,17)           0.9296         estimate D2E/DX2                !
 ! D74   D(5,11,23,43)        -179.0238         estimate D2E/DX2                !
 ! D75   D(35,11,23,17)        179.5938         estimate D2E/DX2                !
 ! D76   D(35,11,23,43)         -0.3595         estimate D2E/DX2                !
 ! D77   D(3,12,24,18)          -0.9425         estimate D2E/DX2                !
 ! D78   D(3,12,24,44)         178.9899         estimate D2E/DX2                !
 ! D79   D(36,12,24,18)       -179.5842         estimate D2E/DX2                !
 ! D80   D(36,12,24,44)          0.3482         estimate D2E/DX2                !
 ! D81   D(10,13,14,9)           0.1135         estimate D2E/DX2                !
 ! D82   D(10,13,14,15)        179.1012         estimate D2E/DX2                !
 ! D83   D(16,13,14,9)        -178.8913         estimate D2E/DX2                !
 ! D84   D(16,13,14,15)          0.0965         estimate D2E/DX2                !
 ! D85   D(10,13,16,19)       -179.7223         estimate D2E/DX2                !
 ! D86   D(10,13,16,38)         -0.9569         estimate D2E/DX2                !
 ! D87   D(14,13,16,19)         -0.7409         estimate D2E/DX2                !
 ! D88   D(14,13,16,38)        178.0246         estimate D2E/DX2                !
 ! D89   D(9,14,15,20)         179.5746         estimate D2E/DX2                !
 ! D90   D(9,14,15,37)           0.8041         estimate D2E/DX2                !
 ! D91   D(13,14,15,20)          0.6106         estimate D2E/DX2                !
 ! D92   D(13,14,15,37)       -178.1599         estimate D2E/DX2                !
 ! D93   D(14,15,20,19)         -0.6751         estimate D2E/DX2                !
 ! D94   D(14,15,20,21)        179.8308         estimate D2E/DX2                !
 ! D95   D(37,15,20,19)        178.1344         estimate D2E/DX2                !
 ! D96   D(37,15,20,21)         -1.3597         estimate D2E/DX2                !
 ! D97   D(13,16,19,20)          0.6733         estimate D2E/DX2                !
 ! D98   D(13,16,19,22)       -179.8308         estimate D2E/DX2                !
 ! D99   D(38,16,19,20)       -178.1312         estimate D2E/DX2                !
 ! D100  D(38,16,19,22)          1.3647         estimate D2E/DX2                !
 ! D101  D(10,17,23,11)         -0.9348         estimate D2E/DX2                !
 ! D102  D(10,17,23,43)        179.0186         estimate D2E/DX2                !
 ! D103  D(39,17,23,11)       -179.5922         estimate D2E/DX2                !
 ! D104  D(39,17,23,43)          0.3612         estimate D2E/DX2                !
 ! D105  D(9,18,24,12)           0.9199         estimate D2E/DX2                !
 ! D106  D(9,18,24,44)        -179.0125         estimate D2E/DX2                !
 ! D107  D(40,18,24,12)        179.5623         estimate D2E/DX2                !
 ! D108  D(40,18,24,44)         -0.3701         estimate D2E/DX2                !
 ! D109  D(16,19,20,15)          0.0347         estimate D2E/DX2                !
 ! D110  D(16,19,20,21)        179.5476         estimate D2E/DX2                !
 ! D111  D(22,19,20,15)       -179.4799         estimate D2E/DX2                !
 ! D112  D(22,19,20,21)          0.033          estimate D2E/DX2                !
 ! D113  D(16,19,22,26)       -179.6781         estimate D2E/DX2                !
 ! D114  D(16,19,22,42)          0.4155         estimate D2E/DX2                !
 ! D115  D(20,19,22,26)         -0.1844         estimate D2E/DX2                !
 ! D116  D(20,19,22,42)        179.9092         estimate D2E/DX2                !
 ! D117  D(15,20,21,25)        179.6251         estimate D2E/DX2                !
 ! D118  D(15,20,21,41)         -0.4688         estimate D2E/DX2                !
 ! D119  D(19,20,21,25)          0.1332         estimate D2E/DX2                !
 ! D120  D(19,20,21,41)       -179.9607         estimate D2E/DX2                !
 ! D121  D(20,21,25,26)         -0.1512         estimate D2E/DX2                !
 ! D122  D(20,21,25,45)        179.8975         estimate D2E/DX2                !
 ! D123  D(41,21,25,26)        179.9444         estimate D2E/DX2                !
 ! D124  D(41,21,25,45)         -0.0069         estimate D2E/DX2                !
 ! D125  D(19,22,26,25)          0.171          estimate D2E/DX2                !
 ! D126  D(19,22,26,46)       -179.8753         estimate D2E/DX2                !
 ! D127  D(42,22,26,25)       -179.9243         estimate D2E/DX2                !
 ! D128  D(42,22,26,46)          0.0294         estimate D2E/DX2                !
 ! D129  D(21,25,26,22)         -0.0018         estimate D2E/DX2                !
 ! D130  D(21,25,26,46)       -179.9559         estimate D2E/DX2                !
 ! D131  D(45,25,26,22)        179.9498         estimate D2E/DX2                !
 ! D132  D(45,25,26,46)         -0.0043         estimate D2E/DX2                !
 ! D133  D(4,27,28,6)            0.0693         estimate D2E/DX2                !
 ! D134  D(4,27,28,30)         179.581          estimate D2E/DX2                !
 ! D135  D(29,27,28,6)        -179.4681         estimate D2E/DX2                !
 ! D136  D(29,27,28,30)          0.0437         estimate D2E/DX2                !
 ! D137  D(4,27,29,31)        -179.7053         estimate D2E/DX2                !
 ! D138  D(4,27,29,47)           0.3829         estimate D2E/DX2                !
 ! D139  D(28,27,29,31)         -0.188          estimate D2E/DX2                !
 ! D140  D(28,27,29,47)        179.9003         estimate D2E/DX2                !
 ! D141  D(6,28,30,32)         179.614          estimate D2E/DX2                !
 ! D142  D(6,28,30,48)          -0.4844         estimate D2E/DX2                !
 ! D143  D(27,28,30,32)          0.1232         estimate D2E/DX2                !
 ! D144  D(27,28,30,48)       -179.9752         estimate D2E/DX2                !
 ! D145  D(27,29,31,32)          0.1664         estimate D2E/DX2                !
 ! D146  D(27,29,31,49)       -179.871          estimate D2E/DX2                !
 ! D147  D(47,29,31,32)       -179.9235         estimate D2E/DX2                !
 ! D148  D(47,29,31,49)          0.0391         estimate D2E/DX2                !
 ! D149  D(28,30,32,31)         -0.1492         estimate D2E/DX2                !
 ! D150  D(28,30,32,50)        179.8907         estimate D2E/DX2                !
 ! D151  D(48,30,32,31)        179.951          estimate D2E/DX2                !
 ! D152  D(48,30,32,50)         -0.0091         estimate D2E/DX2                !
 ! D153  D(29,31,32,30)          0.0036         estimate D2E/DX2                !
 ! D154  D(29,31,32,50)        179.964          estimate D2E/DX2                !
 ! D155  D(49,31,32,30)       -179.9592         estimate D2E/DX2                !
 ! D156  D(49,31,32,50)          0.0011         estimate D2E/DX2                !
 --------------------------------------------------------------------------------
 Trust Radius=3.00D-01 FncErr=1.00D-07 GrdErr=1.00D-06
 Number of steps in this run=    300 maximum allowed number of steps=    300.
 GradGradGradGradGradGradGradGradGradGradGradGradGradGradGradGradGradGrad

 Leave Link  103 at Sat Jul 27 14:31:53 2019, MaxMem=  4194304000 cpu:         0.2
 (Enter /home/minenky/programs//g09/l202.exe)
                          Input orientation:                          
 ---------------------------------------------------------------------
 Center     Atomic      Atomic             Coordinates (Angstroms)
 Number     Number       Type             X           Y           Z
 ---------------------------------------------------------------------
      1          6           0        3.018800    2.310200    5.846200
      2          6           0        3.763400    3.261100    5.068300
      3          6           0        3.186100    2.279700    7.306600
      4          6           0        2.169800    1.425300    5.187700
      5          6           0        4.684900    4.186700    5.743700
      6          6           0        3.604800    3.263700    3.685300
      7          6           0        4.933300    4.054200    7.141000
      8          6           0        4.176800    3.093400    7.929200
      9          6           0        4.380500    3.005000    9.337100
     10          6           0        5.882300    4.909000    7.773600
     11          6           0        5.336300    5.205400    5.033300
     12          6           0        2.384600    1.454500    8.109000
     13          6           0        6.199000    4.731500    9.198400
     14          6           0        5.450400    3.784400    9.977100
     15          6           0        5.776800    3.616100   11.319800
     16          6           0        7.223700    5.443600    9.815300
     17          6           0        6.504800    5.910200    7.013900
     18          6           0        3.549800    2.162600   10.090400
     19          6           0        7.549300    5.286900   11.175600
     20          6           0        6.802200    4.343900   11.952200
     21          6           0        7.129900    4.170300   13.327700
     22          6           0        8.596800    6.020800   11.803000
     23          6           0        6.228100    6.063000    5.662300
     24          6           0        2.557600    1.403700    9.485300
     25          6           0        8.144000    4.896300   13.903800
     26          6           0        8.885800    5.832100   13.132800
     27          6           0        1.996100    1.432000    3.791000
     28          6           0        2.736300    2.381500    3.015700
     29          6           0        1.122800    0.526700    3.122400
     30          6           0        2.574900    2.391000    1.600300
     31          6           0        0.987400    0.563700    1.755700
     32          6           0        1.721700    1.506500    0.986000
     33          1           0        1.620800    0.676000    5.747200
     34          1           0        4.175400    3.951000    3.070600
     35          1           0        5.134000    5.351900    3.979200
     36          1           0        1.598100    0.857000    7.664500
     37          1           0        5.248400    2.886900   11.923900
     38          1           0        7.825700    6.141300    9.243800
     39          1           0        7.199600    6.597800    7.480500
     40          1           0        3.657700    2.109100   11.166900
     41          1           0        6.561100    3.452900   13.914700
     42          1           0        9.163200    6.735100   11.209900
     43          1           0        6.709700    6.855500    5.096100
     44          1           0        1.914800    0.769900   10.089900
     45          1           0        8.385200    4.757800   14.954300
     46          1           0        9.685500    6.398300   13.602700
     47          1           0        0.563400   -0.194200    3.714200
     48          1           0        3.138700    3.113000    1.014100
     49          1           0        0.317100   -0.129700    1.255100
     50          1           0        1.604200    1.522900   -0.094100
 ---------------------------------------------------------------------
                    Distance matrix (angstroms):
                    1          2          3          4          5
     1  C    0.000000
     2  C    1.436582   0.000000
     3  C    1.470268   2.511256   0.000000
     4  C    1.391931   2.433923   2.500520   0.000000
     5  C    2.511503   1.470395   2.885430   3.776267   0.000000
     6  C    2.433526   1.392067   3.775895   2.774193   2.501111
     7  C    2.895402   2.508737   2.495793   4.285257   1.425379
     8  C    2.508636   2.895474   1.425210   3.785027   2.495973
     9  C    3.810952   4.320770   2.464870   4.959856   3.794944
    10  C    4.320679   3.811031   3.794839   5.710140   2.464950
    11  C    3.796551   2.501108   4.283804   4.933530   1.402405
    12  C    2.500939   3.796149   1.402570   2.929332   4.283800
    13  C    5.216667   5.015172   4.320625   6.576559   3.811070
    14  C    5.015005   5.216908   3.810872   6.266262   4.320823
    15  C    6.266756   6.577314   4.960188   7.443971   5.710580
    16  C    6.576712   6.266657   5.710171   7.943760   4.960164
    17  C    5.145456   4.279996   4.927471   6.499351   2.809964
    18  C    4.279834   5.145271   2.809899   5.146307   4.927396
    19  C    7.601886   7.465656   6.561244   8.927817   6.238651
    20  C    7.465473   7.602292   6.238485   8.702633   6.561489
    21  C    8.736931   8.965359   7.441880   9.919537   7.968397
    22  C    8.964714   8.736926   7.968006  10.304715   7.441908
    23  C    4.941349   3.778654   5.125509   6.180882   2.430760
    24  C    3.778557   4.941030   2.430869   4.315115   5.125433
    25  C    9.893458   9.996479   8.657391  11.122469   8.891352
    26  C    9.996000   9.893694   8.891048  11.298193   8.657581
    27  C    2.457844   2.846129   3.807117   1.407476   4.316371
    28  C    2.845456   2.458007   4.315612   2.439841   3.807594
    29  C    3.767595   4.270391   4.983748   2.483778   5.740677
    30  C    4.269806   3.767842   5.740019   3.737127   4.984416
    31  C    4.889687   5.094650   6.212200   3.730824   6.534660
    32  C    5.094109   4.890024   6.533934   4.226307   6.212869
    33  H    2.152862   3.425548   2.730155   1.084385   4.659800
    34  H    3.425479   2.153256   4.660006   3.857940   2.731411
    35  H    4.148698   2.726926   4.929941   5.066078   2.161676
    36  H    2.726975   4.148310   2.161923   2.604677   4.929981
    37  H    6.499395   7.024564   5.093254   7.549201   6.340496
    38  H    7.023340   6.498664   6.339605   8.407247   5.092719
    39  H    6.207539   5.362811   5.897831   7.570375   3.892762
    40  H    5.362694   6.207350   3.892740   6.199376   5.897683
    41  H    8.885626   9.280232   7.512257   9.977736   8.415690
    42  H    9.279152   8.885143   8.414990  10.647465   7.511914
    43  H    5.902978   4.647706   6.183851   7.078570   3.411993
    44  H    4.647615   5.902530   3.412105   4.952387   6.183642
    45  H   10.851105  11.015178   9.573867  12.046710   9.942511
    46  H   11.014570  10.851234   9.942130  12.329992   9.573978
    47  H    4.104441   4.900274   5.089605   2.715604   6.348064
    48  H    4.899801   4.104719   6.347613   4.605001   5.090450
    49  H    5.859223   6.157516   7.117375   4.616911   7.606347
    50  H    6.156955   5.859510   7.605624   5.312894   7.118037
                    6          7          8          9         10
     6  C    0.000000
     7  C    3.785719   0.000000
     8  C    4.285659   1.454884   0.000000
     9  C    5.710646   2.495849   1.425304   0.000000
    10  C    4.960667   1.425295   2.495866   2.885334   0.000000
    11  C    2.930084   2.435173   3.767124   4.927272   2.809842
    12  C    4.932668   3.767139   2.435221   2.809964   4.927471
    13  C    6.267263   2.508710   2.895433   2.511371   1.470327
    14  C    6.577546   2.895453   2.508671   1.470289   2.511309
    15  C    7.945273   4.285533   3.785417   2.500839   3.776010
    16  C    7.444817   3.785267   4.285372   3.776140   2.500738
    17  C    5.147188   2.435262   3.767190   4.283701   1.402516
    18  C    6.499289   3.767119   2.435221   1.402555   4.283787
    19  C    8.703850   4.963970   5.169556   4.316068   3.807270
    20  C    8.929268   5.169561   4.963971   3.807366   4.315814
    21  C   10.306509   6.566109   6.246944   4.984176   5.740227
    22  C    9.920621   6.246839   6.566003   5.740461   4.984042
    23  C    4.315821   2.810398   4.262064   5.125343   2.430819
    24  C    6.180310   4.262023   2.810399   2.430862   5.125493
    25  C   11.299888   7.533471   7.394929   6.212544   6.534126
    26  C   11.123889   7.394921   7.533433   6.534337   6.212419
    27  C    2.440126   5.169679   4.963910   6.238503   6.561492
    28  C    1.407456   4.964155   5.169557   6.561421   6.238845
    29  C    3.737426   6.565997   6.246614   7.441578   7.968127
    30  C    2.483853   6.247211   6.566158   7.968391   7.442369
    31  C    4.226599   7.533603   7.394847   8.657407   8.891389
    32  C    3.730957   7.395213   7.533511   8.891321   8.657893
    33  H    3.857963   4.932299   4.139817   5.091912   6.339161
    34  H    1.084353   4.141644   4.933708   6.340820   5.094063
    35  H    2.604882   3.423636   4.649683   5.897694   3.892761
    36  H    5.064887   4.649699   3.423630   3.892717   5.897879
    37  H    8.409395   4.933357   4.141086   2.731068   4.660012
    38  H    7.549404   4.140499   4.932782   4.659880   2.730724
    39  H    6.200190   3.423635   4.649674   4.929757   2.161766
    40  H    7.570353   4.649563   3.423596   2.161769   4.929784
    41  H   10.649701   6.992446   6.452932   5.090192   6.347764
    42  H    9.978278   6.452536   6.992078   6.347854   5.089902
    43  H    4.952957   3.896729   5.347470   6.183656   3.412105
    44  H    7.077714   5.347334   3.896655   3.412046   6.183725
    45  H   12.331866   8.570783   8.356607   7.117785   7.605907
    46  H   12.048048   8.356541   8.570691   7.606106   7.117637
    47  H    4.605217   6.991987   6.452224   7.511467   8.414991
    48  H    2.715745   6.453321   6.992614   8.415822   7.512909
    49  H    5.313192   8.570772   8.356391   9.573729   9.942374
    50  H    4.616996   8.356857   8.570769   9.942434   9.574368
                   11         12         13         14         15
    11  C    0.000000
    12  C    5.678179   0.000000
    13  C    4.279824   5.145403   0.000000
    14  C    5.145233   4.279879   1.436584   0.000000
    15  C    6.499230   5.146724   2.433661   1.392015   0.000000
    16  C    5.146508   6.499328   1.391999   2.433869   2.774310
    17  C    2.405184   6.166730   2.500977   3.796227   4.932915
    18  C    6.166399   2.405212   3.796468   2.501070   2.929781
    19  C    6.529308   7.124988   2.457865   2.845925   2.440107
    20  C    7.124761   6.529472   2.845610   2.457931   1.407504
    21  C    8.549006   7.558325   4.269969   3.767779   2.483884
    22  C    7.558080   8.549161   3.767716   4.270273   3.737441
    23  C    1.387957   6.480517   3.778590   4.941086   6.180477
    24  C    6.480309   1.388060   4.941291   3.778610   4.315478
    25  C    9.309377   8.865460   5.094210   4.889865   3.730899
    26  C    8.865303   9.309541   4.889756   5.094457   4.226524
    27  C    5.190259   4.335500   7.602042   7.465508   8.703265
    28  C    4.336487   5.188904   7.465827   7.602339   8.928995
    29  C    6.579921   5.226771   8.964704   8.736569   9.919752
    30  C    5.227970   6.578482   8.737458   8.965536  10.306392
    31  C    7.155485   6.565829   9.996255   9.893568  11.123287
    32  C    6.567178   7.153969   9.893955   9.996595  11.299631
    33  H    5.901700   2.601452   7.022662   6.497695   7.547874
    34  H    2.602576   5.901267   6.500313   7.025178   8.409872
    35  H    1.083289   6.309055   5.362758   6.207412   7.570377
    36  H    6.309195   1.083129   6.207486   5.362649   6.199628
    37  H    7.270732   4.980621   3.425571   2.153216   1.084378
    38  H    4.980094   7.270449   2.153079   3.425603   3.858031
    39  H    3.376308   7.073385   2.726803   4.148244   5.065088
    40  H    7.072893   3.376394   4.148515   2.726908   2.604806
    41  H    9.135133   7.425827   4.899941   4.104661   2.715744
    42  H    7.425331   9.135083   4.104513   4.900134   4.605208
    43  H    2.147790   7.546844   4.647694   5.902682   7.078026
    44  H    7.546491   2.147872   5.902831   4.647623   4.952631
    45  H   10.388570   9.683859   6.157154   5.859444   4.617014
    46  H    9.683655  10.388698   5.859331   6.157396   5.313210
    47  H    7.326410   5.034804   9.278952   8.884590   9.977128
    48  H    5.036025   7.325087   8.886380   9.280631  10.649889
    49  H    8.241993   7.332134  11.014719  10.851001  12.047304
    50  H    7.333458   8.240422  10.851629  11.015294  12.331634
                   16         17         18         19         20
    16  C    0.000000
    17  C    2.929569   0.000000
    18  C    4.933374   5.678150   0.000000
    19  C    1.407475   4.335808   5.189885   0.000000
    20  C    2.439948   5.189273   4.336182   1.431962   0.000000
    21  C    3.737251   6.578911   5.227627   2.460534   1.424614
    22  C    2.483851   5.227253   6.579583   1.424604   2.460659
    23  C    4.315355   1.388068   6.480315   5.722270   6.545818
    24  C    6.180791   6.480490   1.387997   6.546253   5.722500
    25  C    4.226384   7.154418   6.566720   2.819452   2.431937
    26  C    3.730860   6.566293   7.155021   2.431894   2.819565
    27  C    8.928210   7.125288   6.529181  10.011523   9.908731
    28  C    8.703320   6.529848   7.124681   9.909101  10.012172
    29  C   10.304940   8.549372   7.557746  11.349601  11.171033
    30  C    9.920480   7.558832   8.548941  11.172165  11.351023
    31  C   11.298762   9.309964   8.865077  12.413769  12.331684
    32  C   11.123367   8.866014   9.309270  12.332084  12.414502
    33  H    8.406660   7.270133   4.979398   9.266879   8.877073
    34  H    7.550561   4.981384   7.270993   8.880251   9.270236
    35  H    6.199622   3.376418   7.073054   7.591184   8.207782
    36  H    7.570351   7.073459   3.376198   8.207839   7.591146
    37  H    3.858072   5.901439   2.602225   3.407946   2.130245
    38  H    1.084344   2.602045   5.901704   2.130316   3.407878
    39  H    2.604621   1.083170   6.309011   3.936307   5.023355
    40  H    5.065774   6.308863   1.083216   5.024245   3.936865
    41  H    4.605106   7.325472   5.035680   3.441332   2.168736
    42  H    2.715611   5.035272   7.326070   2.168671   3.441390
    43  H    4.952626   2.147914   7.546609   6.334489   7.302246
    44  H    7.078368   7.546692   2.147752   7.302713   6.334691
    45  H    5.313071   8.240988   7.333054   3.906053   3.419036
    46  H    4.616959   7.332624   8.241615   3.418973   3.906165
    47  H   10.647432   9.135204   7.424892  11.598179  11.286347
    48  H    9.978980   7.426477   9.135178  11.288725  11.600792
    49  H   12.330443  10.389023   9.683363  13.418666  13.285239
    50  H   12.047692   9.684418  10.388389  13.286009  13.419783
                   21         22         23         24         25
    21  C    0.000000
    22  C    2.810846   0.000000
    23  C    7.946944   6.581848   0.000000
    24  C    6.582100   7.947407   7.056697   0.000000
    25  C    1.373814   2.425467   8.541322   7.932797   0.000000
    26  C    2.425438   1.373862   7.932531   8.541727   1.421418
    27  C   11.171519  11.349822   6.546583   5.721987  12.331536
    28  C   11.350809  11.171688   5.722814   6.545514  12.414434
    29  C   12.389884  12.704276   7.947691   6.581358  13.587834
    30  C   12.706134  12.390876   6.582499   7.946590  13.735629
    31  C   13.588563  13.734305   8.542175   7.932077  14.750074
    32  C   13.735429  13.588723   7.933292   8.540925  14.819117
    33  H   10.001215  10.672590   7.089019   3.921802  11.264688
    34  H   10.676388  10.004382   3.923140   7.089033  11.575906
    35  H    9.631939   8.581973   2.129682   7.248673  10.381009
    36  H    8.581993   9.631916   7.249010   2.129515   9.904222
    37  H    2.675409   4.587780   7.089080   3.922634   4.042548
    38  H    4.587725   2.675560   3.922448   7.089150   4.833936
    39  H    6.331458   4.579203   2.129712   7.248866   6.711615
    40  H    4.579713   6.332514   7.248510   2.129692   5.948613
    41  H    1.087550   3.898392   8.661733   6.312434   2.142217
    42  H    3.898408   1.087567   6.312083   8.662103   3.417170
    43  H    8.668685   7.017149   1.086544   8.138006   9.136261
    44  H    7.017360   8.669244   8.137881   1.086478   8.389037
    45  H    2.136998   3.401564   9.627974   8.667230   1.086697
    46  H    3.401573   2.136982   8.666948   9.628394   2.173221
    47  H   12.433309  12.984238   8.662359   6.311554  13.682348
    48  H   12.987390  12.435695   6.312896   8.661444  13.941935
    49  H   14.513853  14.752636   9.628752   8.666450  15.700658
    50  H   14.754213  14.514425   8.667704   9.627465  15.814235
                   26         27         28         29         30
    26  C    0.000000
    27  C   12.413625   0.000000
    28  C   12.332019   1.431969   0.000000
    29  C   13.733883   1.424516   2.460701   0.000000
    30  C   13.589230   2.460459   1.424604   2.810871   0.000000
    31  C   14.818204   2.431844   2.819689   1.373889   2.425558
    32  C   14.750590   2.819374   2.432020   2.425468   1.373920
    33  H   11.572065   2.130517   3.407956   2.675793   4.587844
    34  H   11.268286   3.407886   2.130106   4.587688   2.675254
    35  H    9.904291   5.024684   3.937077   6.332960   4.579857
    36  H   10.380968   3.936119   5.023041   4.578830   6.331020
    37  H    4.833872   8.879091   9.269418  10.002876  10.675684
    38  H    4.042739   9.267943   8.878475  10.673525  10.002937
    39  H    5.947946   8.208186   7.591619   9.632175   8.582643
    40  H    6.712564   7.591000   8.207633   8.581590   9.631810
    41  H    3.417044  11.287717  11.600224  12.434287  12.986988
    42  H    2.142406  11.598718  11.287329  12.984603  12.434682
    43  H    8.388761   7.303127   6.335033   8.669640   7.017760
    44  H    9.136736   6.334124   7.301810   7.016585   8.668160
    45  H    2.173151  13.285361  13.419651  14.513391  14.754343
    46  H    1.086696  13.418661  13.285730  14.752363  14.514706
    47  H   13.938747   2.168653   3.441457   1.087590   3.898457
    48  H   13.685231   3.441289   2.168737   3.898427   1.087559
    49  H   15.812825   3.418879   3.906196   2.137013   3.401581
    50  H   15.701649   3.905874   3.419020   3.401475   2.137018
                   31         32         33         34         35
    31  C    0.000000
    32  C    1.421445   0.000000
    33  H    4.043004   4.834143   0.000000
    34  H    4.833850   4.042497   4.941234   0.000000
    35  H    6.713055   5.948961   6.110028   1.925354   0.000000
    36  H    5.947512   6.711147   1.925958   6.108947   6.803540
    37  H   11.267017  11.575006   7.496611   8.981345   8.319109
    38  H   11.573401  11.266386   8.977555   7.498700   5.965267
    39  H   10.381480   9.904911   8.318356   5.966452   4.251832
    40  H    9.904012  10.380845   5.964552   8.319296   8.022359
    41  H   13.684111  13.941289   9.941116  11.114593  10.215526
    42  H   13.939576  13.683651  11.110427   9.943720   8.392301
    43  H    9.137272   8.389569   8.031628   4.354474   2.447674
    44  H    8.388175   9.135692   4.353653   8.031207   8.288463
    45  H   15.700986  15.814126  12.132143  12.633118  11.461940
    46  H   15.812998  15.701367  12.629053  12.135716  10.696862
    47  H    2.142408   3.417179   2.451210   5.535652   7.191650
    48  H    3.417162   2.142317   5.535813   2.450752   4.217311
    49  H    1.086603   2.173124   4.746341   5.902087   7.789171
    50  H    2.173078   1.086596   5.902398   4.745742   6.611543
                   36         37         38         39         40
    36  H    0.000000
    37  H    5.965540   0.000000
    38  H    8.318715   4.941309   0.000000
    39  H    8.022932   6.109154   1.926037   0.000000
    40  H    4.251648   1.925707   6.109761   6.803163   0.000000
    41  H    8.392560   2.450882   5.535704   7.190063   4.217337
    42  H   10.215315   5.535711   2.450929   4.216990   7.191123
    43  H    8.288977   8.031440   4.354188   2.447810   8.288403
    44  H    2.447540   4.354094   8.031598   8.288697   2.447670
    45  H   10.696829   4.745851   5.902281   7.787743   6.611298
    46  H   11.461861   5.902216   4.746042   6.610660   7.788757
    47  H    4.216692   9.941910  11.111077  10.215451   8.391819
    48  H    7.189632  11.114211   9.943165   8.393394  10.215504
    49  H    6.610215  12.134286  12.630275  11.462271  10.696523
    50  H    7.787126  12.632221  12.133963  10.697555  11.461702
                   41         42         43         44         45
    41  H    0.000000
    42  H    4.985951   0.000000
    43  H    9.453437   6.588832   0.000000
    44  H    6.589058   9.453958   9.217572   0.000000
    45  H    2.472018   4.305291  10.217228   9.023958   0.000000
    46  H    4.305183   2.472190   9.023672  10.217751   2.491755
    47  H   12.382405  13.347557   9.454360   6.588271  14.561686
    48  H   13.351174  12.384206   6.589467   9.452946  14.985336
    49  H   14.563242  14.982557  10.218201   9.023060  16.632798
    50  H   14.984733  14.563170   9.024463  10.216523  16.819658
                   46         47         48         49         50
    46  H    0.000000
    47  H   14.981862   0.000000
    48  H   14.564568   4.986009   0.000000
    49  H   16.817994   2.472245   4.305184   0.000000
    50  H   16.633679   4.305211   2.472087   2.491597   0.000000
 Stoichiometry    C32H18
 Framework group  C1[X(C32H18)]
 Deg. of freedom   144
 Full point group                 C1      NOp   1
 Largest Abelian subgroup         C1      NOp   1
 Largest concise Abelian subgroup C1      NOp   1
                         Standard orientation:                         
 ---------------------------------------------------------------------
 Center     Atomic      Atomic             Coordinates (Angstroms)
 Number     Number       Type             X           Y           Z
 ---------------------------------------------------------------------
      1          6           0        2.507462   -0.717947   -0.082179
      2          6           0        2.507571    0.718631   -0.085322
      3          6           0        1.232492   -1.442357   -0.188812
      4          6           0        3.721606   -1.386973    0.043243
      5          6           0        1.232372    1.443072   -0.190751
      6          6           0        3.722764    1.387203    0.033707
      7          6           0       -0.000059    0.727649   -0.159280
      8          6           0        0.000031   -0.727235   -0.159390
      9          6           0       -1.232376   -1.442515   -0.191600
     10          6           0       -1.232577    1.442818   -0.189256
     11          6           0        1.202231    2.839403   -0.317605
     12          6           0        1.202930   -2.838776   -0.316657
     13          6           0       -2.507600    0.718284   -0.083293
     14          6           0       -2.507542   -0.718298   -0.085723
     15          6           0       -3.722360   -1.387230    0.034491
     16          6           0       -3.722049    1.387071    0.041206
     17          6           0       -1.202953    2.839277   -0.316048
     18          6           0       -1.202280   -2.838871   -0.319836
     19          6           0       -4.954378    0.715848    0.149883
     20          6           0       -4.954522   -0.716109    0.146027
     21          6           0       -6.195428   -1.405637    0.265308
     22          6           0       -6.194940    1.405197    0.273578
     23          6           0       -0.000380    3.528634   -0.389118
     24          6           0        0.000413   -3.528063   -0.391126
     25          6           0       -7.375211   -0.711075    0.379602
     26          6           0       -7.374993    0.710337    0.383768
     27          6           0        4.954207   -0.716122    0.151126
     28          6           0        4.954722    0.715836    0.145421
     29          6           0        6.194452   -1.405781    0.275263
     30          6           0        6.195932    1.405063    0.263156
     31          6           0        7.374863   -0.711261    0.384087
     32          6           0        7.375596    0.710171    0.377925
     33          1           0        3.747243   -2.470390    0.081230
     34          1           0        3.750300    2.470810    0.063027
     35          1           0        2.125532    3.402093   -0.383996
     36          1           0        2.126140   -3.401446   -0.381884
     37          1           0       -3.749352   -2.470827    0.065574
     38          1           0       -3.748385    2.470466    0.078153
     39          1           0       -2.126298    3.401804   -0.381264
     40          1           0       -2.125504   -3.401356   -0.387839
     41          1           0       -6.192190   -2.493179    0.262709
     42          1           0       -6.191079    2.492749    0.277657
     43          1           0       -0.000464    4.609170   -0.503214
     44          1           0        0.000537   -4.608401   -0.506477
     45          1           0       -8.316778   -1.246308    0.468413
     46          1           0       -8.316341    1.245437    0.475640
     47          1           0        6.190201   -2.493349    0.280885
     48          1           0        6.193112    2.492611    0.258926
     49          1           0        8.316019   -1.246460    0.476245
     50          1           0        8.317335    1.245112    0.465427
 ---------------------------------------------------------------------
 Rotational constants (GHZ):      0.4110341      0.0694788      0.0597853
 Leave Link  202 at Sat Jul 27 14:31:53 2019, MaxMem=  4194304000 cpu:         1.2
 (Enter /home/minenky/programs//g09/l301.exe)
 Standard basis: def2TZVP (5D, 7F)
 ======================================================================================================
                                       Pseudopotential Parameters
 ======================================================================================================
  Center     Atomic      Valence      Angular      Power
  Number     Number     Electrons     Momentum     of R      Exponent        Coefficient   SO-Coeffient
 ======================================================================================================
    1          6
                                   No pseudopotential on this center.
    2          6
                                   No pseudopotential on this center.
    3          6
                                   No pseudopotential on this center.
    4          6
                                   No pseudopotential on this center.
    5          6
                                   No pseudopotential on this center.
    6          6
                                   No pseudopotential on this center.
    7          6
                                   No pseudopotential on this center.
    8          6
                                   No pseudopotential on this center.
    9          6
                                   No pseudopotential on this center.
   10          6
                                   No pseudopotential on this center.
   11          6
                                   No pseudopotential on this center.
   12          6
                                   No pseudopotential on this center.
   13          6
                                   No pseudopotential on this center.
   14          6
                                   No pseudopotential on this center.
   15          6
                                   No pseudopotential on this center.
   16          6
                                   No pseudopotential on this center.
   17          6
                                   No pseudopotential on this center.
   18          6
                                   No pseudopotential on this center.
   19          6
                                   No pseudopotential on this center.
   20          6
                                   No pseudopotential on this center.
   21          6
                                   No pseudopotential on this center.
   22          6
                                   No pseudopotential on this center.
   23          6
                                   No pseudopotential on this center.
   24          6
                                   No pseudopotential on this center.
   25          6
                                   No pseudopotential on this center.
   26          6
                                   No pseudopotential on this center.
   27          6
                                   No pseudopotential on this center.
   28          6
                                   No pseudopotential on this center.
   29          6
                                   No pseudopotential on this center.
   30          6
                                   No pseudopotential on this center.
   31          6
                                   No pseudopotential on this center.
   32          6
                                   No pseudopotential on this center.
   33          1
                                   No pseudopotential on this center.
   34          1
                                   No pseudopotential on this center.
   35          1
                                   No pseudopotential on this center.
   36          1
                                   No pseudopotential on this center.
   37          1
                                   No pseudopotential on this center.
   38          1
                                   No pseudopotential on this center.
   39          1
                                   No pseudopotential on this center.
   40          1
                                   No pseudopotential on this center.
   41          1
                                   No pseudopotential on this center.
   42          1
                                   No pseudopotential on this center.
   43          1
                                   No pseudopotential on this center.
   44          1
                                   No pseudopotential on this center.
   45          1
                                   No pseudopotential on this center.
   46          1
                                   No pseudopotential on this center.
   47          1
                                   No pseudopotential on this center.
   48          1
                                   No pseudopotential on this center.
   49          1
                                   No pseudopotential on this center.
   50          1
                                   No pseudopotential on this center.
 ======================================================================================================
 Ernie: Thresh=  0.10000D-02 Tol=  0.10000D-05 Strict=F.
 AO basis set (Overlap normalization):
 Atom C1       Shell     1 S   6     bf    1 -     1          4.738416230122         -1.356723932126         -0.155296109242
      0.1357534968D+05  0.6064550360D-03
      0.2035233368D+04  0.4697908888D-02
      0.4632256236D+03  0.2433247765D-01
      0.1312001960D+03  0.9739996831D-01
      0.4285301589D+02  0.3019558425D+00
      0.1558418577D+02  0.6623360914D+00
 Atom C1       Shell     2 S   2     bf    2 -     2          4.738416230122         -1.356723932126         -0.155296109242
      0.6206713851D+01  0.6559530854D+00
      0.2576489653D+01  0.3758563329D+00
 Atom C1       Shell     3 S   1     bf    3 -     3          4.738416230122         -1.356723932126         -0.155296109242
      0.5769633942D+00  0.1000000000D+01
 Atom C1       Shell     4 S   1     bf    4 -     4          4.738416230122         -1.356723932126         -0.155296109242
      0.2297283136D+00  0.1000000000D+01
 Atom C1       Shell     5 S   1     bf    5 -     5          4.738416230122         -1.356723932126         -0.155296109242
      0.9516444003D-01  0.1000000000D+01
 Atom C1       Shell     6 P   4     bf    6 -     8          4.738416230122         -1.356723932126         -0.155296109242
      0.3469723224D+02  0.1132722000D-01
      0.7958262283D+01  0.7616965920D-01
      0.2378082688D+01  0.3019225220D+00
      0.8143320818D+00  0.7278502735D+00
 Atom C1       Shell     7 P   1     bf    9 -    11          4.738416230122         -1.356723932126         -0.155296109242
      0.2888754725D+00  0.1000000000D+01
 Atom C1       Shell     8 P   1     bf   12 -    14          4.738416230122         -1.356723932126         -0.155296109242
      0.1005682367D+00  0.1000000000D+01
 Atom C1       Shell     9 D   1     bf   15 -    19          4.738416230122         -1.356723932126         -0.155296109242
      0.1097000000D+01  0.1000000000D+01
 Atom C1       Shell    10 D   1     bf   20 -    24          4.738416230122         -1.356723932126         -0.155296109242
      0.3180000000D+00  0.1000000000D+01
 Atom C1       Shell    11 F   1     bf   25 -    31          4.738416230122         -1.356723932126         -0.155296109242
      0.7610000000D+00  0.1000000000D+01
 Atom C2       Shell    12 S   6     bf   32 -    32          4.738623046980          1.358016463449         -0.161235579585
      0.1357534968D+05  0.6064550360D-03
      0.2035233368D+04  0.4697908888D-02
      0.4632256236D+03  0.2433247765D-01
      0.1312001960D+03  0.9739996831D-01
      0.4285301589D+02  0.3019558425D+00
      0.1558418577D+02  0.6623360914D+00
 Atom C2       Shell    13 S   2     bf   33 -    33          4.738623046980          1.358016463449         -0.161235579585
      0.6206713851D+01  0.6559530854D+00
      0.2576489653D+01  0.3758563329D+00
 Atom C2       Shell    14 S   1     bf   34 -    34          4.738623046980          1.358016463449         -0.161235579585
      0.5769633942D+00  0.1000000000D+01
 Atom C2       Shell    15 S   1     bf   35 -    35          4.738623046980          1.358016463449         -0.161235579585
      0.2297283136D+00  0.1000000000D+01
 Atom C2       Shell    16 S   1     bf   36 -    36          4.738623046980          1.358016463449         -0.161235579585
      0.9516444003D-01  0.1000000000D+01
 Atom C2       Shell    17 P   4     bf   37 -    39          4.738623046980          1.358016463449         -0.161235579585
      0.3469723224D+02  0.1132722000D-01
      0.7958262283D+01  0.7616965920D-01
      0.2378082688D+01  0.3019225220D+00
      0.8143320818D+00  0.7278502735D+00
 Atom C2       Shell    18 P   1     bf   40 -    42          4.738623046980          1.358016463449         -0.161235579585
      0.2888754725D+00  0.1000000000D+01
 Atom C2       Shell    19 P   1     bf   43 -    45          4.738623046980          1.358016463449         -0.161235579585
      0.1005682367D+00  0.1000000000D+01
 Atom C2       Shell    20 D   1     bf   46 -    50          4.738623046980          1.358016463449         -0.161235579585
      0.1097000000D+01  0.1000000000D+01
 Atom C2       Shell    21 D   1     bf   51 -    55          4.738623046980          1.358016463449         -0.161235579585
      0.3180000000D+00  0.1000000000D+01
 Atom C2       Shell    22 F   1     bf   56 -    62          4.738623046980          1.358016463449         -0.161235579585
      0.7610000000D+00  0.1000000000D+01
 Atom C3       Shell    23 S   6     bf   63 -    63          2.329072664537         -2.725659959448         -0.356802223349
      0.1357534968D+05  0.6064550360D-03
      0.2035233368D+04  0.4697908888D-02
      0.4632256236D+03  0.2433247765D-01
      0.1312001960D+03  0.9739996831D-01
      0.4285301589D+02  0.3019558425D+00
      0.1558418577D+02  0.6623360914D+00
 Atom C3       Shell    24 S   2     bf   64 -    64          2.329072664537         -2.725659959448         -0.356802223349
      0.6206713851D+01  0.6559530854D+00
      0.2576489653D+01  0.3758563329D+00
 Atom C3       Shell    25 S   1     bf   65 -    65          2.329072664537         -2.725659959448         -0.356802223349
      0.5769633942D+00  0.1000000000D+01
 Atom C3       Shell    26 S   1     bf   66 -    66          2.329072664537         -2.725659959448         -0.356802223349
      0.2297283136D+00  0.1000000000D+01
 Atom C3       Shell    27 S   1     bf   67 -    67          2.329072664537         -2.725659959448         -0.356802223349
      0.9516444003D-01  0.1000000000D+01
 Atom C3       Shell    28 P   4     bf   68 -    70          2.329072664537         -2.725659959448         -0.356802223349
      0.3469723224D+02  0.1132722000D-01
      0.7958262283D+01  0.7616965920D-01
      0.2378082688D+01  0.3019225220D+00
      0.8143320818D+00  0.7278502735D+00
 Atom C3       Shell    29 P   1     bf   71 -    73          2.329072664537         -2.725659959448         -0.356802223349
      0.2888754725D+00  0.1000000000D+01
 Atom C3       Shell    30 P   1     bf   74 -    76          2.329072664537         -2.725659959448         -0.356802223349
      0.1005682367D+00  0.1000000000D+01
 Atom C3       Shell    31 D   1     bf   77 -    81          2.329072664537         -2.725659959448         -0.356802223349
      0.1097000000D+01  0.1000000000D+01
 Atom C3       Shell    32 D   1     bf   82 -    86          2.329072664537         -2.725659959448         -0.356802223349
      0.3180000000D+00  0.1000000000D+01
 Atom C3       Shell    33 F   1     bf   87 -    93          2.329072664537         -2.725659959448         -0.356802223349
      0.7610000000D+00  0.1000000000D+01
 Atom C4       Shell    34 S   6     bf   94 -    94          7.032815270742         -2.620999586633          0.081717899748
      0.1357534968D+05  0.6064550360D-03
      0.2035233368D+04  0.4697908888D-02
      0.4632256236D+03  0.2433247765D-01
      0.1312001960D+03  0.9739996831D-01
      0.4285301589D+02  0.3019558425D+00
      0.1558418577D+02  0.6623360914D+00
 Atom C4       Shell    35 S   2     bf   95 -    95          7.032815270742         -2.620999586633          0.081717899748
      0.6206713851D+01  0.6559530854D+00
      0.2576489653D+01  0.3758563329D+00
 Atom C4       Shell    36 S   1     bf   96 -    96          7.032815270742         -2.620999586633          0.081717899748
      0.5769633942D+00  0.1000000000D+01
 Atom C4       Shell    37 S   1     bf   97 -    97          7.032815270742         -2.620999586633          0.081717899748
      0.2297283136D+00  0.1000000000D+01
 Atom C4       Shell    38 S   1     bf   98 -    98          7.032815270742         -2.620999586633          0.081717899748
      0.9516444003D-01  0.1000000000D+01
 Atom C4       Shell    39 P   4     bf   99 -   101          7.032815270742         -2.620999586633          0.081717899748
      0.3469723224D+02  0.1132722000D-01
      0.7958262283D+01  0.7616965920D-01
      0.2378082688D+01  0.3019225220D+00
      0.8143320818D+00  0.7278502735D+00
 Atom C4       Shell    40 P   1     bf  102 -   104          7.032815270742         -2.620999586633          0.081717899748
      0.2888754725D+00  0.1000000000D+01
 Atom C4       Shell    41 P   1     bf  105 -   107          7.032815270742         -2.620999586633          0.081717899748
      0.1005682367D+00  0.1000000000D+01
 Atom C4       Shell    42 D   1     bf  108 -   112          7.032815270742         -2.620999586633          0.081717899748
      0.1097000000D+01  0.1000000000D+01
 Atom C4       Shell    43 D   1     bf  113 -   117          7.032815270742         -2.620999586633          0.081717899748
      0.3180000000D+00  0.1000000000D+01
 Atom C4       Shell    44 F   1     bf  118 -   124          7.032815270742         -2.620999586633          0.081717899748
      0.7610000000D+00  0.1000000000D+01
 Atom C5       Shell    45 S   6     bf  125 -   125          2.328845897538          2.727011464946         -0.360466985616
      0.1357534968D+05  0.6064550360D-03
      0.2035233368D+04  0.4697908888D-02
      0.4632256236D+03  0.2433247765D-01
      0.1312001960D+03  0.9739996831D-01
      0.4285301589D+02  0.3019558425D+00
      0.1558418577D+02  0.6623360914D+00
 Atom C5       Shell    46 S   2     bf  126 -   126          2.328845897538          2.727011464946         -0.360466985616
      0.6206713851D+01  0.6559530854D+00
      0.2576489653D+01  0.3758563329D+00
[...]
 .00173531,-0.00366085,0.00483979,0.00008992,-0.00016217,0.00021988,-0.
 00096955,-0.00031504,-0.00011860,-0.00013241,0.00000556,0.00002207,-0.
 00001343,-0.00000446,0.00001759,-0.00002131,-0.00000071,0.00000192,-0.
 00000235,0.00000313,0.00000257,0.00000287,-0.00000209,-0.00000067,-0.0
 0000170,0.00000236,0.00000205,0.00000014,0.00000010,0.00000116,-0.0000
 0071,0.00000023,0.00000055,0.00000076,-0.00000304,-0.00000212,0.000001
 58,-0.00000255,0.00000383,-0.00000929,-0.00000053,0.00000025,-0.000000
 68,-0.00000078,-0.00000005,-0.00000037,0.11967220,0.17594826,0.0003674
 2,0.00043582,0.00005626,-0.00008334,-0.00014135,0.00040046,0.00001777,
 0.00001674,-0.00008642,-0.00069009,-0.00129967,0.00120769,-0.00000296,
 -0.00000443,-0.00003311,-0.00047994,-0.00057532,0.00029479,-0.00002344
 ,-0.00002625,0.00001981,0.00000914,0.00001495,0.00001772,-0.00000787,-
 0.00000438,0.00001086,0.00001130,0.00001987,-0.00001196,0.00000640,-0.
 00000389,0.00001074,-0.00004688,-0.00003041,0.00003839,0.00000250,0.00
 000206,-0.00000212,-0.00000773,-0.00000813,0.00000121,0.00000786,0.000
 00483,0.00000240,0.00000098,-0.00000077,0.00000450,0.00000149,-0.00000
 571,0.00001748,0.00002010,0.00001058,0.00002079,0.00000161,0.00000229,
 -0.00000193,-0.00000334,-0.00000189,-0.00000080,0.00000283,0.00000339,
 -0.00000260,-0.00000282,-0.00000335,0.00000222,-0.00000530,0.00000096,
 -0.00001909,0.00001351,0.00001550,-0.00001946,0.00000231,0.00000102,0.
 00000212,0.00000274,0.00000101,0.00000350,-0.00774204,-0.00980501,0.01
 040443,-0.00204683,-0.00169971,-0.00101572,0.07675945,0.10040105,-0.14
 082500,-0.00044998,-0.00057009,-0.00054272,0.01795528,0.02253701,-0.01
 183199,-0.00194129,-0.00071375,-0.00528688,0.00025716,0.00038953,-0.00
 025081,-0.00014245,-0.00013019,-0.00009813,-0.00000139,0.00000476,-0.0
 0001091,0.00002090,0.00000797,-0.00002339,-0.00000190,-0.00000065,-0.0
 0000264,0.00000005,0.00000027,-0.00000145,0.00000161,0.00000211,0.0000
 0023,0.00000263,0.00000154,0.00000485,-0.00000125,-0.00000089,0.000000
 01,0.00000036,0.00000082,-0.00000109,0.00000182,0.00000273,-0.00000053
 ,-0.00000298,-0.00000211,0.00000283,0.00000067,0.00000005,0.00000182,0
 .00000119,0.00000083,0.00000092,-0.08286858,-0.10940705,0.14739264,0.0
 0014850,0.00030232,-0.00000589,-0.00010363,0.00001927,0.00040259,0.000
 02349,-0.00001664,-0.00003887,-0.00000717,-0.00000064,-0.00035385,0.00
 002812,-0.00013137,-0.00002204,-0.00108388,0.00198312,-0.00080627,0.00
 000580,0.00000294,0.00002675,0.00001430,0.00001001,-0.00000560,-0.0000
 1299,-0.00000661,0.00000965,-0.00000386,0.00001244,-0.00000122,0.00000
 319,0.00004531,0.00001392,-0.00000099,0.00000307,0.00001079,0.00000259
 ,0.00000393,-0.00000309,-0.00000316,-0.00000534,-0.00000008,0.00000267
 ,0.00000389,0.00000241,-0.00000021,-0.00000019,0.00000484,0.00000725,0
 .00000234,0.00001455,0.00001240,0.00000961,0.00001214,0.00000067,0.000
 00156,-0.00000206,-0.00000170,-0.00000186,-0.00000051,0.00000140,0.000
 00268,-0.00000160,-0.00000236,-0.00000193,0.00000209,-0.00001124,-0.00
 000387,-0.00000374,-0.00000578,0.00000172,-0.00001204,0.00000125,0.000
 00099,0.00000211,0.00000108,0.00000087,0.00000225,0.00319483,-0.001952
 24,-0.00103410,0.00414956,0.00149473,-0.00224264,-0.00046798,0.0005132
 1,-0.00044306,-0.12196980,-0.10682283,0.07731118,0.00357573,-0.0060812
 0,-0.00310070,-0.00549377,-0.01230275,0.01229845,0.00012845,-0.0001076
 9,-0.00004305,0.00015283,-0.00013616,0.00028503,0.00002153,-0.00002742
 ,0.00000490,-0.00000041,-0.00000233,-0.00000665,-0.00000043,-0.0000011
 6,-0.00000179,0.00000042,-0.00000098,-0.00000175,0.00000262,0.00000085
 ,0.00000124,0.00000045,-0.00000102,0.00000205,-0.00000035,-0.00000100,
 -0.00000018,0.00000073,0.00000003,-0.00000110,0.00000764,0.00000132,-0
 .00000061,-0.00000018,-0.00000277,0.00000252,0.00000067,-0.00000037,0.
 00000107,0.00000124,0.00000024,0.00000066,-0.00068837,0.00056941,0.000
 13896,0.12141703,0.00024490,0.00019046,-0.00003662,0.00009954,-0.00005
 727,0.00035650,-0.00000962,0.00002178,-0.00004436,-0.00012664,-0.00008
 235,-0.00034425,-0.00011017,-0.00000746,0.00000331,0.00177951,-0.00057
 139,-0.00129956,-0.00001108,-0.00000640,0.00002259,0.00000811,0.000016
 36,0.00000625,-0.00001495,-0.00001136,0.00000788,0.00001317,0.00001244
 ,-0.00000949,0.00004081,0.00002427,-0.00000314,-0.00000317,-0.00000801
 ,0.00001984,0.00000416,0.00000308,-0.00000293,-0.00000787,-0.00000593,
 -0.00000015,0.00000694,0.00000276,0.00000232,0.00000196,-0.00000293,0.
 00000563,0.00001284,0.00000010,0.00002563,0.00001679,0.00000695,0.0000
 1842,0.00000151,0.00000263,-0.00000189,-0.00000292,-0.00000150,-0.0000
 0059,0.00000260,0.00000256,-0.00000233,-0.00000235,-0.00000382,0.00000
 224,-0.00000630,-0.00001067,-0.00000911,0.00000421,0.00000137,-0.00001
 301,0.00000246,0.00000057,0.00000247,0.00000263,0.00000036,0.00000284,
 -0.00185744,0.00291049,-0.00020076,-0.00060874,0.00245717,-0.00114411,
 0.00051222,-0.00023873,-0.00052222,-0.10686210,-0.17082340,0.10064244,
 -0.00615792,0.00225835,-0.00255743,-0.01009652,-0.00911210,0.01340329,
 -0.00011689,0.00008241,0.00001602,0.00001234,0.00022463,0.00037305,-0.
 00002278,0.00000307,0.00000371,0.00000308,0.00000329,-0.00000502,-0.00
 000204,-0.00000010,-0.00000220,-0.00000094,0.00000127,-0.00000147,0.00
 000079,0.00000276,0.00000272,-0.00000026,0.00000037,0.00000298,-0.0000
 0118,-0.00000035,0.00000004,0.00000002,0.00000152,-0.00000097,-0.00000
 070,0.00000791,0.00000004,-0.00000267,-0.00000050,0.00000284,0.0000002
 5,0.00000024,0.00000154,0.00000089,0.00000104,0.00000118,0.00057205,-0
 .00053435,0.00002691,0.12017955,0.17557104,0.00006171,0.00004635,0.000
 11325,-0.00027040,-0.00030577,0.00014575,-0.00005649,-0.00006887,0.000
 08509,0.00105442,0.00127481,-0.00027777,0.00002659,0.00001801,-0.00000
 882,0.00143638,0.00112319,0.00136606,0.00002077,0.00002721,-0.00001953
 ,0.00001104,0.00002318,-0.00006086,0.00000685,-0.00000467,0.00001108,-
 0.00000422,-0.00000799,0.00001066,-0.00002430,0.00003120,-0.00009185,0
 .00003508,0.00001647,-0.00003637,-0.00000418,0.00000174,-0.00001413,0.
 00001441,0.00001037,0.00000524,-0.00000717,-0.00000416,-0.00000281,0.0
 0000087,-0.00000208,0.00000513,0.00000098,0.00000251,0.00000229,-0.000
 01103,0.00000088,-0.00003889,-0.00000521,-0.00000310,-0.00000254,0.000
 00273,-0.00000017,0.00000596,-0.00000095,-0.00000059,-0.00000119,0.000
 00126,0.00000111,0.00000040,-0.00001103,-0.00002764,0.00004674,-0.0000
 3296,-0.00002871,0.00001432,0.00000017,-0.00000052,0.00000183,-0.00000
 227,-0.00000166,-0.00000096,-0.00197640,-0.00126279,-0.00499571,0.0172
 8399,0.02157803,-0.01211131,-0.00054228,-0.00065518,-0.00063513,0.0779
 0746,0.10115584,-0.14199627,-0.00239296,-0.00177186,-0.00050925,-0.008
 65517,-0.01081713,0.01171812,-0.00004855,0.00003068,-0.00048719,-0.000
 93393,-0.00094546,-0.00026025,-0.00001179,-0.00004075,0.00000583,-0.00
 002912,-0.00001766,0.00001321,0.00000175,-0.00000076,0.00000536,-0.000
 00357,-0.00000249,-0.00000141,0.00000204,-0.00000144,0.00000470,-0.000
 00156,-0.00000086,-0.00000187,0.00000009,-0.00000026,0.00000100,-0.000
 00092,-0.00000084,-0.00000006,-0.00000516,-0.00000631,-0.00000413,0.00
 000163,0.00000155,-0.00000169,-0.00000015,-0.00000003,-0.00000013,-0.0
 0000009,-0.00000007,-0.00000013,0.00014187,0.00003335,0.00006172,-0.08
 309226,-0.10885285,0.14673727,-0.00033602,0.00046794,-0.00001092,0.000
 06797,-0.00006345,0.00010372,-0.00002792,0.00001309,0.00001458,-0.0000
 1679,-0.00022745,-0.00008716,0.00003406,-0.00002415,-0.00000973,-0.000
 48733,0.00032168,-0.00010601,-0.00002035,-0.00001246,0.00000379,0.0000
 2865,-0.00000193,-0.00003261,0.00000892,-0.00000271,0.00001231,0.00000
 533,0.00000762,0.00000712,-0.00000631,-0.00000126,0.00000116,-0.000010
 17,0.00000224,-0.00001104,-0.00000110,-0.00000365,0.00000611,0.0000065
 2,0.00000256,-0.00000113,-0.00000516,-0.00000241,-0.00000204,-0.000001
 98,0.00000195,-0.00000539,-0.00000997,-0.00000657,0.00000087,0.0000006
 8,0.00000859,-0.00001889,-0.00000008,-0.00000161,0.00000261,0.00000214
 ,0.00000223,-0.00000018,-0.00000251,-0.00000247,0.00000231,0.00000175,
 0.00000291,-0.00000214,-0.00000013,-0.00000034,-0.00001115,-0.00001102
 ,-0.00000633,-0.00000576,-0.00000205,-0.00000029,-0.00000239,-0.000001
 98,-0.00000029,-0.00000236,0.00637049,-0.00400569,-0.00039587,-0.00026
 714,0.00072021,0.00050568,0.00208841,-0.00176208,0.00047469,0.00213126
 ,-0.00402267,0.00231446,-0.14974082,-0.12195846,-0.07994290,-0.0062325
 6,-0.00868379,-0.00924103,0.00013718,-0.00010166,-0.00002657,0.0000454
 4,-0.00000751,0.00001993,0.00000556,0.00000895,-0.00000220,-0.00000033
 ,-0.00000551,0.00000288,0.00000185,0.00000024,0.00000113,0.00000115,-0
 .00000036,0.00000144,-0.00000145,-0.00000211,-0.00000160,0.00000064,-0
 .00000072,-0.00000258,0.00000124,0.00000048,-0.00000030,0.00000009,-0.
 00000087,0.00000086,0.00000006,-0.00000286,0.00000058,0.00000215,0.000
 00098,-0.00000371,-0.00000029,-0.00000024,-0.00000154,-0.00000083,-0.0
 0000090,-0.00000089,-0.00266669,0.00304103,0.00010967,-0.00038504,-0.0
 0048829,-0.00042972,0.15035105,0.00046121,-0.00019080,-0.00008304,-0.0
 0006705,0.00001747,0.00014562,0.00003027,-0.00000860,0.00002541,-0.000
 13453,0.00002729,-0.00008633,-0.00001741,0.00003923,-0.00000471,0.0003
 0191,-0.00038166,-0.00022680,-0.00000348,-0.00001603,-0.00000185,-0.00
 001167,0.00002837,-0.00002175,0.00000802,0.00000296,0.00000899,0.00000
 835,0.00000192,0.00000245,0.00000276,-0.00001307,0.00000351,-0.0000026
 2,-0.00001433,-0.00001864,-0.00000187,-0.00000327,0.00000543,0.0000032
 6,0.00000703,-0.00000045,-0.00000410,-0.00000341,-0.00000248,-0.000000
 62,0.00000045,-0.00000532,-0.00000426,-0.00000521,-0.00000131,-0.00000
 042,0.00000265,-0.00001975,-0.00000037,-0.00000127,0.00000267,0.000002
 50,0.00000168,0.,-0.00000189,-0.00000299,0.00000199,0.00000227,0.00000
 221,-0.00000227,-0.00000232,0.00000214,-0.00000657,-0.00000850,-0.0000
 0543,0.00000022,-0.00000149,-0.00000084,-0.00000241,-0.00000135,-0.000
 00069,-0.00000241,-0.00406516,0.00502254,0.00114768,0.00072389,-0.0001
 5281,0.00062182,0.00051279,0.00395662,0.00191627,-0.00396284,0.0004332
 9,0.00341936,-0.12204090,-0.16991509,-0.08383943,-0.01088279,-0.009275
 82,-0.01176061,-0.00011420,0.00009612,0.00000276,0.00000413,0.00005099
 ,0.00002498,0.00000432,0.00001113,-0.00000228,-0.00000307,-0.00000039,
 0.00000809,0.00000085,0.00000112,0.00000176,0.00000012,0.00000056,0.00
 000158,-0.00000213,-0.00000168,-0.00000157,-0.00000037,0.00000052,-0.0
 0000228,0.00000062,0.00000107,0.00000004,-0.00000043,-0.00000026,0.000
 00108,-0.00000239,-0.00000091,0.00000137,0.00000098,0.00000230,-0.0000
 0399,-0.00000069,0.00000027,-0.00000134,-0.00000124,-0.00000047,-0.000
 00071,0.00299932,-0.00175705,-0.00052227,-0.00059459,-0.00055385,-0.00
 053526,0.13522931,0.17316092,-0.00017349,-0.00023145,-0.00052405,0.000
 11090,0.00018961,-0.00034752,-0.00009247,-0.00011767,0.00009388,-0.000
 83871,-0.00102531,0.00037716,0.00004093,0.00004978,0.00003652,0.000196
 36,0.00008615,0.00050114,0.00002841,0.00003017,-0.00002888,-0.00001497
 ,-0.00000984,-0.00004255,0.00000483,0.00000381,-0.00001776,-0.00001366
 ,-0.00002289,0.00001040,-0.00002694,-0.00003063,-0.00000790,0.00001039
 ,0.00001389,-0.00004665,-0.00000195,-0.00000274,0.00000334,0.00000579,
 0.00000796,-0.00000566,-0.00000709,-0.00000527,-0.00000168,-0.00000075
 ,0.00000138,-0.00000477,-0.00000333,0.00000761,-0.00002674,-0.00002456
 ,-0.00001468,-0.00002257,-0.00000091,-0.00000182,0.00000191,0.00000260
 ,0.00000226,-0.00000051,-0.00000255,-0.00000333,0.00000270,0.00000252,
 0.00000290,-0.00000206,0.00001163,0.00000603,0.00002003,0.00000259,-0.
 00000139,0.00002576,-0.00000204,-0.00000084,-0.00000240,-0.00000214,-0
 .00000073,-0.00000305,-0.00001201,0.00169002,-0.00571388,0.00015226,0.
 00018140,-0.00096680,-0.02044921,-0.02235167,-0.00952547,0.00184433,0.
 00285077,-0.00140944,-0.07929562,-0.08311545,-0.12001070,0.01129515,0.
 01208328,0.01180998,0.00001447,0.00004533,-0.00000808,-0.00005036,-0.0
 0004856,-0.00001522,0.00000244,0.00000435,-0.00000114,-0.00000889,-0.0
 0000907,0.00001293,0.00000161,0.00000086,0.00000190,0.00000030,0.,0.00
 000150,-0.00000187,-0.00000195,-0.00000102,-0.00000092,-0.00000061,-0.
 00000371,0.00000103,0.00000091,-0.00000017,-0.00000029,-0.00000059,0.0
 0000094,-0.00000253,-0.00000342,0.00000039,0.00000240,0.00000219,-0.00
 000845,-0.00000067,-0.00000005,-0.00000155,-0.00000104,-0.00000064,-0.
 00000081,0.00055577,-0.00000908,0.00080610,0.00057209,0.00062894,0.000
 37496,0.08637654,0.08969096,0.12397098,-0.00012069,-0.00026514,0.00002
 329,-0.00054640,0.00024405,-0.00026660,0.00004103,-0.00002222,0.000029
 38,-0.00024267,0.00055733,0.00030821,0.00002170,0.00008206,-0.00006980
 ,0.00043367,0.00034263,-0.00062444,0.00001012,-0.00002925,-0.00002128,
 -0.00001862,-0.00001286,0.00001557,0.00000651,0.00001150,-0.00001078,-
 0.00000455,-0.00000858,-0.00000442,-0.00002192,-0.00001294,0.00000740,
 -0.00000666,0.00000805,-0.00002020,-0.00000064,-0.00000508,0.00000145,
 0.00000106,0.00000078,-0.00000048,-0.00000221,-0.00000028,-0.00000016,
 -0.00000054,0.00000209,-0.00000331,-0.00000627,0.00000270,-0.00001509,
 -0.00001271,-0.00000681,-0.00000421,-0.00000065,-0.00000062,0.00000108
 ,0.00000072,0.00000041,-0.00000062,-0.00000102,-0.00000068,0.00000117,
 0.00000075,0.00000164,-0.00000091,0.00000760,0.00000686,0.00000613,0.0
 0000851,0.00000231,0.00001023,-0.00000115,-0.00000002,-0.00000120,-0.0
 0000091,0.00000016,-0.00000095,-0.00103134,-0.00009369,-0.00022114,0.0
 0324174,-0.00747377,-0.00161560,0.00137632,-0.00481123,0.00142582,0.00
 241367,0.00080923,-0.02035303,0.00463843,0.00114105,0.01708672,-0.0494
 6691,-0.01133403,-0.02611920,0.00003112,-0.00001317,-0.00005977,0.0001
 1807,-0.00012720,0.00001420,0.00000538,0.00000334,-0.00000573,0.000001
 13,-0.00000086,-0.00000027,0.00000089,-0.00000019,0.00000013,0.0000008
 7,-0.00000055,0.00000069,-0.00000025,-0.00000137,-0.00000143,0.0000003
 8,-0.00000010,-0.00000090,0.00000056,-0.00000006,-0.00000022,0.0000001
 9,-0.00000069,0.00000030,-0.00000141,-0.00000380,-0.00000052,0.0000016
 5,-0.00000082,-0.00000192,0.00000004,-0.00000025,-0.00000055,-0.000000
 17,-0.00000049,-0.00000053,0.00011880,-0.00004211,0.00083468,-0.002663
 12,0.00299021,0.00054175,-0.00105658,0.00163786,-0.00020637,0.04272645
 ,-0.00028332,-0.00020903,0.00001906,0.00021416,-0.00044956,-0.00042883
 ,-0.00001945,0.00002784,0.00005632,0.00060558,-0.00009134,0.00030675,0
 .00007897,0.00006081,-0.00006684,0.00029547,0.00057082,-0.00062051,-0.
 00001932,0.00001387,-0.00002393,-0.00001699,-0.00003649,0.00002948,0.0
 0001061,0.00000781,-0.00002108,-0.00001544,-0.00001256,-0.00000563,-0.
 00001392,-0.00002900,0.00000101,0.00000552,0.00000282,-0.00002697,-0.0
 0000516,-0.00000182,0.00000213,-0.00000112,-0.00000017,-0.00000086,0.0
 0000032,-0.00000083,0.00000005,0.00000074,0.00000100,-0.00000304,-0.00
 000049,0.00000629,-0.00002405,-0.00001579,-0.00001575,0.00000064,-0.00
 000002,-0.00000062,0.00000051,-0.00000010,0.00000033,-0.00000065,0.,-0
 .00000078,0.00000064,0.00000091,0.00000053,-0.00000071,0.00001464,0.00
 001066,0.00001586,0.00001233,0.00001017,0.00001676,-0.00000036,-0.0000
 0044,-0.00000085,0.00000002,-0.00000017,-0.00000066,-0.00009999,-0.001
 00015,-0.00045440,-0.00748010,0.00132765,-0.00098440,-0.00485204,-0.00
 047973,0.00221792,-0.00143136,0.00422858,-0.02208287,0.00331173,0.0036
 9421,0.02127878,-0.01124466,-0.05044964,0.00179850,-0.00002685,0.00002
 756,-0.00006293,-0.00011665,0.00009140,0.00003179,0.00000358,0.0000100
 8,-0.00000222,0.00000063,0.00000112,-0.00000184,-0.00000032,0.00000063
 ,0.00000003,0.00000004,0.00000066,0.00000075,-0.00000128,-0.00000004,-
 0.00000104,-0.00000007,0.00000052,-0.00000039,-0.00000012,0.00000040,0
 .,-0.00000028,0.00000015,0.00000035,-0.00000291,-0.00000297,-0.0000006
 0,-0.00000055,0.00000144,-0.00000162,-0.00000025,0.00000020,-0.0000001
 4,-0.00000040,0.00000011,-0.00000018,0.00006280,0.00003500,0.00105264,
 0.00303755,-0.00177881,-0.00000853,0.00156911,-0.00056491,-0.00057090,
 0.01642461,0.04499212,-0.00001042,-0.00000405,0.00006764,-0.00014875,-
 0.00024520,-0.00005491,-0.00000968,-0.00000730,0.00004095,0.00004052,-
 0.00003352,-0.00003384,0.00005442,0.00006273,-0.00002516,0.00018290,0.
 00027454,-0.00061682,-0.00003869,-0.00003603,-0.00000951,-0.00000314,-
 0.00000720,-0.00001016,0.00000980,0.00000442,0.00000333,0.00000778,-0.
 00000417,0.00001123,-0.00002116,-0.00002593,-0.00002022,0.00000970,0.0
 0000576,-0.00002345,-0.00000470,-0.00000688,0.00001035,0.00000743,0.00
 000742,-0.00000191,-0.00000719,-0.00000477,-0.00000327,-0.00000197,0.0
 0000267,-0.00001071,-0.00002429,-0.00001741,-0.00001926,-0.00000814,-0
 .00000187,-0.00001347,-0.00000064,-0.00000258,0.00000459,0.00000380,0.
 00000313,-0.00000051,-0.00000343,-0.00000458,0.00000370,0.00000378,0.0
 0000474,-0.00000408,0.00000461,0.00001208,-0.00000894,-0.00000275,-0.0
 0000356,0.00000334,-0.00000313,-0.00000117,-0.00000414,-0.00000293,-0.
 00000094,-0.00000420,0.00012906,-0.00001146,0.00064474,-0.00207960,-0.
 00146366,0.00110974,0.00191915,0.00276825,0.00025854,0.00061266,0.0021
 5219,-0.01012266,-0.00348398,-0.00253794,-0.01203105,-0.02675803,0.001
 06787,-0.33975018,0.00000804,0.00001255,0.00002253,-0.00002925,-0.0000
 0888,0.00001575,0.00000929,0.00001238,-0.00000325,-0.00000872,-0.00000
 547,0.00001328,0.00000170,0.00000127,0.00000168,0.00000168,0.00000049,
 0.00000334,-0.00000254,-0.00000314,-0.00000227,-0.00000062,-0.00000002
 ,-0.00000505,0.00000139,0.00000132,-0.00000019,-0.00000037,-0.00000105
 ,0.00000181,-0.00000555,-0.00000763,0.00000037,0.00000211,0.00000245,-
 0.00000356,-0.00000081,0.00000012,-0.00000236,-0.00000184,-0.00000112,
 -0.00000152,-0.00016883,-0.00011023,-0.00071773,0.00010251,-0.00052712
 ,0.00082429,0.00039538,0.00012179,0.00069868,0.02932344,-0.00143331,0.
 35976448\\0.00000062,0.00000086,-0.00000173,-0.00000134,-0.00000169,0.
 00000018,-0.00000039,-0.00000003,0.00000212,0.00000008,-0.00000006,-0.
 00000031,0.00000087,0.00000160,0.00000090,-0.00000009,-0.00000036,-0.0
 0000023,0.00000077,-0.00000005,-0.00000022,0.00000001,-0.00000074,0.00
 000007,-0.00000183,-0.00000089,-0.00000072,-0.00000065,0.00000088,-0.0
 0000170,-0.00000050,-0.00000048,0.00000006,0.00000036,0.00000049,-0.00
 000074,-0.00000033,-0.00000100,0.00000157,0.00000166,0.00000157,-0.000
 00034,0.00000059,0.00000007,0.00000043,0.00000001,-0.00000019,0.000000
 09,-0.00000024,-0.00000066,0.00000092,0.00000017,0.00000033,-0.0000000
 7,0.00000100,0.00000119,-0.00000077,-0.00000084,-0.00000117,0.00000123
 ,-0.00000085,-0.00000019,-0.00000149,-0.00000109,-0.00000048,-0.000001
 25,0.00000040,0.00000036,-0.00000032,-0.00000026,-0.00000047,0.0000003
 4,0.00000178,0.00000156,0.00000001,-0.00000021,-0.00000101,0.00000209,
 -0.00000104,-0.00000125,0.00000077,0.00000084,0.00000113,-0.00000124,0
 .00000078,0.00000078,0.00000132,0.00000058,0.00000053,0.00000161,0.000
 00051,0.00000077,-0.00000219,-0.00000157,-0.00000184,-0.00000005,-0.00
 000015,0.00000022,0.00000006,0.,0.00000007,0.00000017,0.00000012,-0.00
 000004,-0.00000005,0.00000017,-0.00000021,0.00000009,0.00000008,0.0000
 0018,-0.00000022,-0.00000016,0.00000027,-0.00000021,0.00000030,-0.0000
 0005,0.00000006,-0.00000010,-0.00000010,-0.00000020,0.00000031,0.00000
 009,0.00000041,0.00000033,0.00000013,0.00000041,-0.00000010,0.,0.00000
 010,-0.00000003,0.00000012,-0.00000010,-0.00000062,-0.00000054,0.,0.00
 000008,0.00000035,-0.00000074,-0.00000021,-0.00000022,-0.00000044,-0.0
 0000019,-0.00000020,-0.00000046,-0.00000016,-0.00000027,0.00000077,0.0
 0000054,0.00000064,0.\\\@


 IT IS THE BEHAVIOR AND DISTRIBUTION OF THE ELECTRONS 
 AROUND THE NUCLEUS THAT GIVES THE FUNDAMENTAL 
 CHARACTER OF AN ATOM:  IT MUST BE THE SAME FOR MOLECULES.

                               -- C. A. COULSON, 1951
 Job cpu time:      18 days 20 hours 49 minutes  8.1 seconds.
 File lengths (MBytes):  RWF=   4673 Int=      0 D2E=      0 Chk=     87 Scr=      1
 Normal termination of Gaussian 09 at Mon Jul 29 19:24:43 2019.
