 Entering Gaussian System, Link 0=g09
 Initial command:
 /home/minenky/programs//g09/l1.exe "/local/scratch/minenky/m1_00_75-19-40_C3H6_wB97XD/Gau-48941.inp" -scrdir="/local/scratch/minenky/m1_00_75-19-40_C3H6_wB97XD/"
 Entering Link 1 = /home/minenky/programs//g09/l1.exe PID=     48957.
  
 Copyright (c) 1988,1990,1992,1993,1995,1998,2003,2009,2013,
            Gaussian, Inc.  All Rights Reserved.
  
 This is part of the Gaussian(R) 09 program.  It is based on
 the Gaussian(R) 03 system (copyright 2003, Gaussian, Inc.),
 the Gaussian(R) 98 system (copyright 1998, Gaussian, Inc.),
 the Gaussian(R) 94 system (copyright 1995, Gaussian, Inc.),
 the Gaussian 92(TM) system (copyright 1992, Gaussian, Inc.),
 the Gaussian 90(TM) system (copyright 1990, Gaussian, Inc.),
 the Gaussian 88(TM) system (copyright 1988, Gaussian, Inc.),
 the Gaussian 86(TM) system (copyright 1986, Carnegie Mellon
 University), and the Gaussian 82(TM) system (copyright 1983,
 Carnegie Mellon University). Gaussian is a federally registered
 trademark of Gaussian, Inc.
  
 This software contains proprietary and confidential information,
 including trade secrets, belonging to Gaussian, Inc.
  
 This software is provided under written license and may be
 used, copied, transmitted, or stored only in accord with that
 written license.
  
 The following legend is applicable only to US Government
 contracts under FAR:
  
                    RESTRICTED RIGHTS LEGEND
  
 Use, reproduction and disclosure by the US Government is
 subject to restrictions as set forth in subparagraphs (a)
 and (c) of the Commercial Computer Software - Restricted
 Rights clause in FAR 52.227-19.
  
 Gaussian, Inc.
 340 Quinnipiac St., Bldg. 40, Wallingford CT 06492
  
  
 ---------------------------------------------------------------
 Warning -- This program may not be used in any manner that
 competes with the business of Gaussian, Inc. or will provide
 assistance to any competitor of Gaussian, Inc.  The licensee
 of this program is prohibited from giving any competitor of
 Gaussian, Inc. access to this program.  By using this program,
 the user acknowledges that Gaussian, Inc. is engaged in the
 business of creating and licensing software in the field of
 computational chemistry and represents and warrants to the
 licensee that it is not a competitor of Gaussian, Inc. and that
 it will not use this program in any manner prohibited above.
 ---------------------------------------------------------------
  

 Cite this work as:
 Gaussian 09, Revision D.01,
 M. J. Frisch, G. W. Trucks, H. B. Schlegel, G. E. Scuseria, 
 M. A. Robb, J. R. Cheeseman, G. Scalmani, V. Barone, B. Mennucci, 
 G. A. Petersson, H. Nakatsuji, M. Caricato, X. Li, H. P. Hratchian, 
 A. F. Izmaylov, J. Bloino, G. Zheng, J. L. Sonnenberg, M. Hada, 
 M. Ehara, K. Toyota, R. Fukuda, J. Hasegawa, M. Ishida, T. Nakajima, 
 Y. Honda, O. Kitao, H. Nakai, T. Vreven, J. A. Montgomery, Jr., 
 J. E. Peralta, F. Ogliaro, M. Bearpark, J. J. Heyd, E. Brothers, 
 K. N. Kudin, V. N. Staroverov, T. Keith, R. Kobayashi, J. Normand, 
 K. Raghavachari, A. Rendell, J. C. Burant, S. S. Iyengar, J. Tomasi, 
 M. Cossi, N. Rega, J. M. Millam, M. Klene, J. E. Knox, J. B. Cross, 
 V. Bakken, C. Adamo, J. Jaramillo, R. Gomperts, R. E. Stratmann, 
 O. Yazyev, A. J. Austin, R. Cammi, C. Pomelli, J. W. Ochterski, 
 R. L. Martin, K. Morokuma, V. G. Zakrzewski, G. A. Voth, 
 P. Salvador, J. J. Dannenberg, S. Dapprich, A. D. Daniels, 
 O. Farkas, J. B. Foresman, J. V. Ortiz, J. Cioslowski, 
 and D. J. Fox, Gaussian, Inc., Wallingford CT, 2013.
 
 ******************************************
 Gaussian 09:  AM64L-G09RevD.01 24-Apr-2013
                 9-Jul-2021 
 ******************************************
 %Mem=32000MB
 %NProcShared=16
 Will use up to   16 processors via shared memory.
 %Chk=m1_00_75-19-40_C3H6_wB97XD
 ----------------------------------------------------------------------
 #P wB97XD/def2tzvp opt=(tight) freq integral(Grid=ultrafine) # SCF(Max
 Cycle=380) 5d 7f GFPrint
 ----------------------------------------------------------------------
 1/7=10,14=-1,18=20,19=15,26=4,38=1/1,3;
 2/9=110,12=2,17=6,18=5,40=1/2;
 3/5=44,7=101,8=11,11=2,16=1,24=100,25=1,30=1,71=1,74=-58,75=-5/1,2,3;
 4//1;
 5/5=2,7=380,38=5/2;
 6/7=2,8=2,9=2,10=2,28=1/1;
 7//1,2,3,16;
 1/7=10,14=-1,18=20,19=15,26=4/3(2);
 2/9=110/2;
 99//99;
 2/9=110/2;
 3/5=44,7=101,8=11,11=2,16=1,25=1,30=1,71=1,74=-58,75=-5/1,2,3;
 4/5=5,16=3,69=1/1;
 5/5=2,7=380,38=5/2;
 7//1,2,3,16;
 1/7=10,14=-1,18=20,19=15,26=4/3(-5);
 2/9=110/2;
 6/7=2,8=2,9=2,10=2,19=2,28=1/1;
 99/9=1/99;
 Leave Link    1 at Fri Jul  9 19:19:36 2021, MaxMem=  4194304000 cpu:         1.6
 (Enter /home/minenky/programs//g09/l101.exe)
 ---------------------------------------
 The PBEPBE optimization and frequencies
 ---------------------------------------
 Symbolic Z-matrix:
 Charge =  0 Multiplicity = 1
 C                     0.        0.86798   0. 
 C                    -0.75169  -0.43399   0. 
 C                     0.75169  -0.43399   0. 
 H                     0.        1.45524   0.90831 
 H                     0.        1.45524  -0.90831 
 H                    -1.26028  -0.72762   0.90831 
 H                    -1.26028  -0.72762  -0.90831 
 H                     1.26028  -0.72762   0.90831 
 H                     1.26028  -0.72762  -0.90831 
 
 NAtoms=      9 NQM=        9 NQMF=       0 NMMI=      0 NMMIF=      0
                NMic=       0 NMicF=      0.
                    Isotopes and Nuclear Properties:
 (Nuclear quadrupole moments (NQMom) in fm**2, nuclear magnetic moments (NMagM)
  in nuclear magnetons)

  Atom         1           2           3           4           5           6           7           8           9
 IAtWgt=          12          12          12           1           1           1           1           1           1
 AtmWgt=  12.0000000  12.0000000  12.0000000   1.0078250   1.0078250   1.0078250   1.0078250   1.0078250   1.0078250
 NucSpn=           0           0           0           1           1           1           1           1           1
 AtZEff=   0.0000000   0.0000000   0.0000000   0.0000000   0.0000000   0.0000000   0.0000000   0.0000000   0.0000000
 NQMom=    0.0000000   0.0000000   0.0000000   0.0000000   0.0000000   0.0000000   0.0000000   0.0000000   0.0000000
 NMagM=    0.0000000   0.0000000   0.0000000   2.7928460   2.7928460   2.7928460   2.7928460   2.7928460   2.7928460
 AtZNuc=   6.0000000   6.0000000   6.0000000   1.0000000   1.0000000   1.0000000   1.0000000   1.0000000   1.0000000
 Leave Link  101 at Fri Jul  9 19:19:36 2021, MaxMem=  4194304000 cpu:         0.6
 (Enter /home/minenky/programs//g09/l103.exe)

 GradGradGradGradGradGradGradGradGradGradGradGradGradGradGradGradGradGrad
 Berny optimization.
 Initialization pass.
                           ----------------------------
                           !    Initial Parameters    !
                           ! (Angstroms and Degrees)  !
 --------------------------                            --------------------------
 ! Name  Definition              Value          Derivative Info.                !
 --------------------------------------------------------------------------------
 ! R1    R(1,2)                  1.5034         estimate D2E/DX2                !
 ! R2    R(1,3)                  1.5034         estimate D2E/DX2                !
 ! R3    R(1,4)                  1.0816         estimate D2E/DX2                !
 ! R4    R(1,5)                  1.0816         estimate D2E/DX2                !
 ! R5    R(2,3)                  1.5034         estimate D2E/DX2                !
 ! R6    R(2,6)                  1.0816         estimate D2E/DX2                !
 ! R7    R(2,7)                  1.0816         estimate D2E/DX2                !
 ! R8    R(3,8)                  1.0816         estimate D2E/DX2                !
 ! R9    R(3,9)                  1.0816         estimate D2E/DX2                !
 ! A1    A(2,1,4)              118.0475         estimate D2E/DX2                !
 ! A2    A(2,1,5)              118.0475         estimate D2E/DX2                !
 ! A3    A(3,1,4)              118.0475         estimate D2E/DX2                !
 ! A4    A(3,1,5)              118.0475         estimate D2E/DX2                !
 ! A5    A(4,1,5)              114.2313         estimate D2E/DX2                !
 ! A6    A(1,2,6)              118.0476         estimate D2E/DX2                !
 ! A7    A(1,2,7)              118.0476         estimate D2E/DX2                !
 ! A8    A(3,2,6)              118.0476         estimate D2E/DX2                !
 ! A9    A(3,2,7)              118.0476         estimate D2E/DX2                !
 ! A10   A(6,2,7)              114.2313         estimate D2E/DX2                !
 ! A11   A(1,3,8)              118.0476         estimate D2E/DX2                !
 ! A12   A(1,3,9)              118.0476         estimate D2E/DX2                !
 ! A13   A(2,3,8)              118.0476         estimate D2E/DX2                !
 ! A14   A(2,3,9)              118.0476         estimate D2E/DX2                !
 ! A15   A(8,3,9)              114.2313         estimate D2E/DX2                !
 ! D1    D(4,1,2,6)              0.0            estimate D2E/DX2                !
 ! D2    D(4,1,2,7)            144.171          estimate D2E/DX2                !
 ! D3    D(5,1,2,6)           -144.171          estimate D2E/DX2                !
 ! D4    D(5,1,2,7)              0.0            estimate D2E/DX2                !
 ! D5    D(4,1,3,8)              0.0            estimate D2E/DX2                !
 ! D6    D(4,1,3,9)           -144.171          estimate D2E/DX2                !
 ! D7    D(5,1,3,8)            144.171          estimate D2E/DX2                !
 ! D8    D(5,1,3,9)              0.0            estimate D2E/DX2                !
 ! D9    D(6,2,3,8)              0.0            estimate D2E/DX2                !
 ! D10   D(6,2,3,9)            144.171          estimate D2E/DX2                !
 ! D11   D(7,2,3,8)           -144.171          estimate D2E/DX2                !
 ! D12   D(7,2,3,9)              0.0            estimate D2E/DX2                !
 --------------------------------------------------------------------------------
 Trust Radius=3.00D-01 FncErr=1.00D-07 GrdErr=1.00D-06
 Number of steps in this run=     46 maximum allowed number of steps=    100.
 GradGradGradGradGradGradGradGradGradGradGradGradGradGradGradGradGradGrad

 Leave Link  103 at Fri Jul  9 19:19:36 2021, MaxMem=  4194304000 cpu:         0.0
 (Enter /home/minenky/programs//g09/l202.exe)
                          Input orientation:                          
 ---------------------------------------------------------------------
 Center     Atomic      Atomic             Coordinates (Angstroms)
 Number     Number       Type             X           Y           Z
 ---------------------------------------------------------------------
      1          6           0        0.000000    0.867980    0.000000
      2          6           0       -0.751693   -0.433990    0.000000
      3          6           0        0.751693   -0.433990    0.000000
      4          1           0        0.000000    1.455242    0.908313
      5          1           0        0.000000    1.455242   -0.908313
      6          1           0       -1.260277   -0.727621    0.908313
      7          1           0       -1.260277   -0.727621   -0.908313
      8          1           0        1.260277   -0.727621    0.908313
      9          1           0        1.260277   -0.727621   -0.908313
 ---------------------------------------------------------------------
                    Distance matrix (angstroms):
                    1          2          3          4          5
     1  C    0.000000
     2  C    1.503386   0.000000
     3  C    1.503386   1.503386   0.000000
     4  H    1.081623   2.226942   2.226942   0.000000
     5  H    1.081623   2.226942   2.226942   1.816626   0.000000
     6  H    2.226943   1.081623   2.226943   2.520553   3.106979
     7  H    2.226943   1.081623   2.226943   3.106979   2.520553
     8  H    2.226943   2.226943   1.081623   2.520553   3.106979
     9  H    2.226943   2.226943   1.081623   3.106979   2.520553
                    6          7          8          9
     6  H    0.000000
     7  H    1.816626   0.000000
     8  H    2.520554   3.106980   0.000000
     9  H    3.106980   2.520554   1.816626   0.000000
 Stoichiometry    C3H6
 Framework group  D3H[3C2(C),3SGV(H2)]
 Deg. of freedom     3
 Full point group                 D3H     NOp  12
 Largest Abelian subgroup         C2V     NOp   4
 Largest concise Abelian subgroup C2V     NOp   4
                         Standard orientation:                         
 ---------------------------------------------------------------------
 Center     Atomic      Atomic             Coordinates (Angstroms)
 Number     Number       Type             X           Y           Z
 ---------------------------------------------------------------------
      1          6           0        0.000000    0.867980    0.000000
      2          6           0       -0.751693   -0.433990    0.000000
      3          6           0        0.751693   -0.433990    0.000000
      4          1           0        0.000000    1.455242    0.908313
      5          1           0        0.000000    1.455242   -0.908313
      6          1           0       -1.260277   -0.727621    0.908313
      7          1           0       -1.260277   -0.727621   -0.908313
      8          1           0        1.260277   -0.727621    0.908313
      9          1           0        1.260277   -0.727621   -0.908313
 ---------------------------------------------------------------------
 Rotational constants (GHZ):     20.2533667     20.2533667     12.6573160
 Leave Link  202 at Fri Jul  9 19:19:36 2021, MaxMem=  4194304000 cpu:         0.7
 (Enter /home/minenky/programs//g09/l301.exe)
 Standard basis: def2TZVP (5D, 7F)
 ======================================================================================================
                                       Pseudopotential Parameters
 ======================================================================================================
  Center     Atomic      Valence      Angular      Power
  Number     Number     Electrons     Momentum     of R      Exponent        Coefficient   SO-Coeffient
 ======================================================================================================
    1          6
                                   No pseudopotential on this center.
    2          6
                                   No pseudopotential on this center.
    3          6
                                   No pseudopotential on this center.
    4          1
                                   No pseudopotential on this center.
    5          1
                                   No pseudopotential on this center.
    6          1
                                   No pseudopotential on this center.
    7          1
                                   No pseudopotential on this center.
    8          1
                                   No pseudopotential on this center.
    9          1
                                   No pseudopotential on this center.
 ======================================================================================================
 Ernie: Thresh=  0.10000D-02 Tol=  0.10000D-05 Strict=F.
 AO basis set (Overlap normalization):
 Atom C1       Shell     1 S   6     bf    1 -     1          0.000000000000          1.640244488822          0.000000000000
      0.1357534968D+05  0.6064550360D-03
      0.2035233368D+04  0.4697908888D-02
      0.4632256236D+03  0.2433247765D-01
      0.1312001960D+03  0.9739996831D-01
      0.4285301589D+02  0.3019558425D+00
      0.1558418577D+02  0.6623360914D+00
 Atom C1       Shell     2 S   2     bf    2 -     2          0.000000000000          1.640244488822          0.000000000000
      0.6206713851D+01  0.6559530854D+00
      0.2576489653D+01  0.3758563329D+00
 Atom C1       Shell     3 S   1     bf    3 -     3          0.000000000000          1.640244488822          0.000000000000
      0.5769633942D+00  0.1000000000D+01
 Atom C1       Shell     4 S   1     bf    4 -     4          0.000000000000          1.640244488822          0.000000000000
      0.2297283136D+00  0.1000000000D+01
 Atom C1       Shell     5 S   1     bf    5 -     5          0.000000000000          1.640244488822          0.000000000000
      0.9516444003D-01  0.1000000000D+01
 Atom C1       Shell     6 P   4     bf    6 -     8          0.000000000000          1.640244488822          0.000000000000
      0.3469723224D+02  0.1132722000D-01
      0.7958262283D+01  0.7616965920D-01
      0.2378082688D+01  0.3019225220D+00
      0.8143320818D+00  0.7278502735D+00
 Atom C1       Shell     7 P   1     bf    9 -    11          0.000000000000          1.640244488822          0.000000000000
      0.2888754725D+00  0.1000000000D+01
 Atom C1       Shell     8 P   1     bf   12 -    14          0.000000000000          1.640244488822          0.000000000000
      0.1005682367D+00  0.1000000000D+01
 Atom C1       Shell     9 D   1     bf   15 -    19          0.000000000000          1.640244488822          0.000000000000
      0.1097000000D+01  0.1000000000D+01
 Atom C1       Shell    10 D   1     bf   20 -    24          0.000000000000          1.640244488822          0.000000000000
      0.3180000000D+00  0.1000000000D+01
 Atom C1       Shell    11 F   1     bf   25 -    31          0.000000000000          1.640244488822          0.000000000000
      0.7610000000D+00  0.1000000000D+01
 Atom C2       Shell    12 S   6     bf   32 -    32         -1.420493395737         -0.820122244411          0.000000000000
      0.1357534968D+05  0.6064550360D-03
      0.2035233368D+04  0.4697908888D-02
      0.4632256236D+03  0.2433247765D-01
      0.1312001960D+03  0.9739996831D-01
      0.4285301589D+02  0.3019558425D+00
      0.1558418577D+02  0.6623360914D+00
 Atom C2       Shell    13 S   2     bf   33 -    33         -1.420493395737         -0.820122244411          0.000000000000
      0.6206713851D+01  0.6559530854D+00
      0.2576489653D+01  0.3758563329D+00
 Atom C2       Shell    14 S   1     bf   34 -    34         -1.420493395737         -0.820122244411          0.000000000000
      0.5769633942D+00  0.1000000000D+01
 Atom C2       Shell    15 S   1     bf   35 -    35         -1.420493395737         -0.820122244411          0.000000000000
      0.2297283136D+00  0.1000000000D+01
 Atom C2       Shell    16 S   1     bf   36 -    36         -1.420493395737         -0.820122244411          0.000000000000
      0.9516444003D-01  0.1000000000D+01
 Atom C2       Shell    17 P   4     bf   37 -    39         -1.420493395737         -0.820122244411          0.000000000000
      0.3469723224D+02  0.1132722000D-01
      0.7958262283D+01  0.7616965920D-01
      0.2378082688D+01  0.3019225220D+00
      0.8143320818D+00  0.7278502735D+00
 Atom C2       Shell    18 P   1     bf   40 -    42         -1.420493395737         -0.820122244411          0.000000000000
      0.2888754725D+00  0.1000000000D+01
 Atom C2       Shell    19 P   1     bf   43 -    45         -1.420493395737         -0.820122244411          0.000000000000
      0.1005682367D+00  0.1000000000D+01
 Atom C2       Shell    20 D   1     bf   46 -    50         -1.420493395737         -0.820122244411          0.000000000000
      0.1097000000D+01  0.1000000000D+01
 Atom C2       Shell    21 D   1     bf   51 -    55         -1.420493395737         -0.820122244411          0.000000000000
      0.3180000000D+00  0.1000000000D+01
 Atom C2       Shell    22 F   1     bf   56 -    62         -1.420493395737         -0.820122244411          0.000000000000
      0.7610000000D+00  0.1000000000D+01
 Atom C3       Shell    23 S   6     bf   63 -    63          1.420493395737         -0.820122244411          0.000000000000
      0.1357534968D+05  0.6064550360D-03
      0.2035233368D+04  0.4697908888D-02
      0.4632256236D+03  0.2433247765D-01
      0.1312001960D+03  0.9739996831D-01
      0.4285301589D+02  0.3019558425D+00
      0.1558418577D+02  0.6623360914D+00
 Atom C3       Shell    24 S   2     bf   64 -    64          1.420493395737         -0.820122244411          0.000000000000
      0.6206713851D+01  0.6559530854D+00
      0.2576489653D+01  0.3758563329D+00
 Atom C3       Shell    25 S   1     bf   65 -    65          1.420493395737         -0.820122244411          0.000000000000
      0.5769633942D+00  0.1000000000D+01
 Atom C3       Shell    26 S   1     bf   66 -    66          1.420493395737         -0.820122244411          0.000000000000
      0.2297283136D+00  0.1000000000D+01
 Atom C3       Shell    27 S   1     bf   67 -    67          1.420493395737         -0.820122244411          0.000000000000
      0.9516444003D-01  0.1000000000D+01
 Atom C3       Shell    28 P   4     bf   68 -    70          1.420493395737         -0.820122244411          0.000000000000
      0.3469723224D+02  0.1132722000D-01
      0.7958262283D+01  0.7616965920D-01
      0.2378082688D+01  0.3019225220D+00
      0.8143320818D+00  0.7278502735D+00
 Atom C3       Shell    29 P   1     bf   71 -    73          1.420493395737         -0.820122244411          0.000000000000
      0.2888754725D+00  0.1000000000D+01
 Atom C3       Shell    30 P   1     bf   74 -    76          1.420493395737         -0.820122244411          0.000000000000
      0.1005682367D+00  0.1000000000D+01
 Atom C3       Shell    31 D   1     bf   77 -    81          1.420493395737         -0.820122244411          0.000000000000
      0.1097000000D+01  0.1000000000D+01
 Atom C3       Shell    32 D   1     bf   82 -    86          1.420493395737         -0.820122244411          0.000000000000
      0.3180000000D+00  0.1000000000D+01
 Atom C3       Shell    33 F   1     bf   87 -    93          1.420493395737         -0.820122244411          0.000000000000
      0.7610000000D+00  0.1000000000D+01
 Atom H4       Shell    34 S   3     bf   94 -    94          0.000000000000          2.750008837073          1.716462812940
      0.3406134100D+02  0.2543930721D-01
      0.5123574600D+01  0.1900859489D+00
      0.1164662600D+01  0.8524411301D+00
 Atom H4       Shell    35 S   1     bf   95 -    95          0.000000000000          2.750008837073          1.716462812940
      0.3272304100D+00  0.1000000000D+01
 Atom H4       Shell    36 S   1     bf   96 -    96          0.000000000000          2.750008837073          1.716462812940
      0.1030724100D+00  0.1000000000D+01
 Atom H4       Shell    37 P   1     bf   97 -    99          0.000000000000          2.750008837073          1.716462812940
      0.8000000000D+00  0.1000000000D+01
 Atom H5       Shell    38 S   3     bf  100 -   100          0.000000000000          2.750008837073         -1.716462812940
      0.3406134100D+02  0.2543930721D-01
      0.5123574600D+01  0.1900859489D+00
      0.1164662600D+01  0.8524411301D+00
 Atom H5       Shell    39 S   1     bf  101 -   101          0.000000000000          2.750008837073         -1.716462812940
      0.3272304100D+00  0.1000000000D+01
 Atom H5       Shell    40 S   1     bf  102 -   102          0.000000000000          2.750008837073         -1.716462812940
      0.1030724100D+00  0.1000000000D+01
 Atom H5       Shell    41 P   1     bf  103 -   105          0.000000000000          2.750008837073         -1.716462812940
      0.8000000000D+00  0.1000000000D+01
 Atom H6       Shell    42 S   3     bf  106 -   106         -2.381577513537         -1.375004418536          1.716462812940
      0.3406134100D+02  0.2543930721D-01
      0.5123574600D+01  0.1900859489D+00
      0.1164662600D+01  0.8524411301D+00
 Atom H6       Shell    43 S   1     bf  107 -   107         -2.381577513537         -1.375004418536          1.716462812940
      0.3272304100D+00  0.1000000000D+01
 Atom H6       Shell    44 S   1     bf  108 -   108         -2.381577513537         -1.375004418536          1.716462812940
      0.1030724100D+00  0.1000000000D+01
 Atom H6       Shell    45 P   1     bf  109 -   111         -2.381577513537         -1.375004418536          1.716462812940
      0.8000000000D+00  0.1000000000D+01
 Atom H7       Shell    46 S   3     bf  112 -   112         -2.381577513537         -1.375004418536         -1.716462812940
      0.3406134100D+02  0.2543930721D-01
      0.5123574600D+01  0.1900859489D+00
      0.1164662600D+01  0.8524411301D+00
 Atom H7       Shell    47 S   1     bf  113 -   113         -2.381577513537         -1.375004418536         -1.716462812940
      0.3272304100D+00  0.1000000000D+01
 Atom H7       Shell    48 S   1     bf  114 -   114         -2.381577513537         -1.375004418536         -1.716462812940
      0.1030724100D+00  0.1000000000D+01
 Atom H7       Shell    49 P   1     bf  115 -   117         -2.381577513537         -1.375004418536         -1.716462812940
      0.8000000000D+00  0.1000000000D+01
 Atom H8       Shell    50 S   3     bf  118 -   118          2.381577513537         -1.375004418536          1.716462812940
      0.3406134100D+02  0.2543930721D-01
      0.5123574600D+01  0.1900859489D+00
      0.1164662600D+01  0.8524411301D+00
 Atom H8       Shell    51 S   1     bf  119 -   119          2.381577513537         -1.375004418536          1.716462812940
      0.3272304100D+00  0.1000000000D+01
 Atom H8       Shell    52 S   1     bf  120 -   120          2.381577513537         -1.375004418536          1.716462812940
      0.1030724100D+00  0.1000000000D+01
 Atom H8       Shell    53 P   1     bf  121 -   123          2.381577513537         -1.375004418536          1.716462812940
      0.8000000000D+00  0.1000000000D+01
 Atom H9       Shell    54 S   3     bf  124 -   124          2.381577513537         -1.375004418536         -1.716462812940
      0.3406134100D+02  0.2543930721D-01
      0.5123574600D+01  0.1900859489D+00
      0.1164662600D+01  0.8524411301D+00
 Atom H9       Shell    55 S   1     bf  125 -   125          2.381577513537         -1.375004418536         -1.716462812940
      0.3272304100D+00  0.1000000000D+01
 Atom H9       Shell    56 S   1     bf  126 -   126          2.381577513537         -1.375004418536         -1.716462812940
      0.1030724100D+00  0.1000000000D+01
 Atom H9       Shell    57 P   1     bf  127 -   129          2.381577513537         -1.375004418536         -1.716462812940
      0.8000000000D+00  0.1000000000D+01
 There are    53 symmetry adapted cartesian basis functions of A1  symmetry.
 There are    21 symmetry adapted cartesian basis functions of A2  symmetry.
 There are    40 symmetry adapted cartesian basis functions of B1  symmetry.
 There are    30 symmetry adapted cartesian basis functions of B2  symmetry.
 There are    46 symmetry adapted basis functions of A1  symmetry.
 There are    20 symmetry adapted basis functions of A2  symmetry.
 There are    35 symmetry adapted basis functions of B1  symmetry.
 There are    28 symmetry adapted basis functions of B2  symmetry.
   129 basis functions,   201 primitive gaussians,   144 cartesian basis functions
    12 alpha electrons       12 beta electrons
       nuclear repulsion energy        75.8922003219 Hartrees.
 IExCor= 4639 DFT=T Ex+Corr=wB97XD ExCW=0 ScaHFX=  1.000000
 ScaDFX=  1.000000  1.000000  1.000000  1.000000 ScalE2=  1.000000  1.000000
 IRadAn=      5 IRanWt=     -1 IRanGd=            0 ICorTp=0 IEmpDi=121
  HFx wShort=  0.000000 wLong=  0.200000 cFull=  0.222036 cShort=  0.000000 cLong=  0.777964
  DFx wShort=  0.000000 wLong=  0.200000 cFull=  0.000000 cShort=  0.000000 cLong=  1.000000
 NAtoms=    9 NActive=    9 NUniq=    2 SFac= 4.00D+00 NAtFMM=   60 NAOKFM=F Big=F
 Integral buffers will be    131072 words long.
 Raffenetti 2 integral format.
 Two-electron integral symmetry is turned on.
 R6Disp:  Grimme-D2 Dispersion energy=       -0.0024079152 Hartrees.
 Nuclear repulsion after empirical dispersion term =       75.8897924067 Hartrees.
 Leave Link  301 at Fri Jul  9 19:19:37 2021, MaxMem=  4194304000 cpu:         0.5
 (Enter /home/minenky/programs//g09/l302.exe)
 NPDir=0 NMtPBC=     1 NCelOv=     1 NCel=       1 NClECP=     1 NCelD=      1
         NCelK=      1 NCelE2=     1 NClLst=     1 CellRange=     0.0.
 One-electron integrals computed using PRISM.
 One-electron integral symmetry used in STVInt
  12 Symmetry operations used in ECPInt.
 ECPInt:  NShTT=    1653 NPrTT=    4740 LenC2=    1651 LenP2D=    4278.
 LDataN:  DoStor=T MaxTD1= 6 Len=  172
 NBasis=   129 RedAO= T EigKep=  4.07D-04  NBF=    46    20    35    28
 NBsUse=   129 1.00D-06 EigRej= -1.00D+00 NBFU=    46    20    35    28
 Precomputing XC quadrature grid using
 IXCGrd= 4 IRadAn=           5 IRanWt=          -1 IRanGd=           0 AccXCQ= 0.00D+00.
 Generated NRdTot=       0 NPtTot=           0 NUsed=           0 NTot=          32
 NSgBfM=   144   144   144   144   144 MxSgAt=     9 MxSgA2=     9.
 Leave Link  302 at Fri Jul  9 19:20:07 2021, MaxMem=  4194304000 cpu:       179.5
 (Enter /home/minenky/programs//g09/l303.exe)
 DipDrv:  MaxL=1.
 Leave Link  303 at Fri Jul  9 19:20:08 2021, MaxMem=  4194304000 cpu:         4.4
 (Enter /home/minenky/programs//g09/l401.exe)
 ExpMin= 9.52D-02 ExpMax= 1.36D+04 ExpMxC= 4.63D+02 IAcc=3 IRadAn=         5 AccDes= 0.00D+00
 Harris functional with IExCor= 4639 and IRadAn=       5 diagonalized for initial guess.
 HarFok:  IExCor= 4639 AccDes= 0.00D+00 IRadAn=         5 IDoV= 1 UseB2=F ITyADJ=14
 ICtDFT=  3500011 ScaDFX=  1.000000  1.000000  1.000000  1.000000
 FoFCou: FMM=F IPFlag=           0 FMFlag=      100000 FMFlg1=           0
         NFxFlg=           0 DoJE=T BraDBF=F KetDBF=T FulRan=T
         wScrn=  0.000000 ICntrl=     500 IOpCl=  0 I1Cent=   200000004 NGrid=           0
         NMat0=    1 NMatS0=      1 NMatT0=    0 NMatD0=    1 NMtDS0=    0 NMtDT0=    0
 Petite list used in FoFCou.
 Harris En= -112.040271216686    
 JPrj=0 DoOrth=F DoCkMO=F.
 Initial guess orbital symmetries:
       Occupied  (A1') (E') (E') (A1') (E') (E') (A2") (A1') (E")
                 (E") (E') (E')
       Virtual   (A1') (A2") (E') (E') (A2') (A1') (E") (E") (E')
                 (E') (E') (E') (A2") (A1') (E") (E") (A2') (E')
                 (E') (A2") (A1') (E') (E') (E") (E") (E') (E')
                 (A1') (A1') (E") (E") (A2") (A1") (E') (E') (E')
                 (E') (E") (E") (E') (E') (A2') (A1') (A2") (E')
                 (E') (E") (E") (E') (E') (A2") (A2') (E") (E")
                 (A1') (E') (E') (E') (E') (A2") (A1') (A1') (A2")
                 (A2') (E") (E") (E') (E') (E") (E") (E") (E")
                 (A1') (E') (E') (A1") (E') (E') (E") (E") (E')
                 (E') (A1') (A2") (A1') (A2') (A1") (E') (E') (E")
                 (E") (A2") (E') (E') (A2') (E") (E") (A1') (E')
                 (E') (A1") (A2") (E") (E") (E') (E') (A1') (E")
                 (E") (E') (E') (E') (E') (A2') (A1') (E') (E')
 The electronic state of the initial guess is 1-A1'.
 Leave Link  401 at Fri Jul  9 19:20:21 2021, MaxMem=  4194304000 cpu:        76.7
 (Enter /home/minenky/programs//g09/l502.exe)
 Closed shell SCF:
 Using DIIS extrapolation, IDIIS=  1040.
 Integral symmetry usage will be decided dynamically.
 Keep R1 ints in memory in symmetry-blocked form, NReq=88245054.
 IVT=      214432 IEndB=      214432 NGot=  4194304000 MDV=  4185222865
 LenX=  4185222865 LenY=  4185201688
 Requested convergence on RMS density matrix=1.00D-08 within 380 cycles.
 Requested convergence on MAX density matrix=1.00D-06.
 Requested convergence on             energy=1.00D-06.
 No special actions if energy rises.
 FoFCou: FMM=F IPFlag=           0 FMFlag=           0 FMFlg1=           0
         NFxFlg=           0 DoJE=F BraDBF=F KetDBF=F FulRan=T
         wScrn=  0.000000 ICntrl=     600 IOpCl=  0 I1Cent=           0 NGrid=           0
         NMat0=    1 NMatS0=   8385 NMatT0=    0 NMatD0=    1 NMtDS0=    0 NMtDT0=    0
 Petite list used in FoFCou.
 Integral accuracy reduced to 1.0D-05 until final iterations.

 Cycle   1  Pass 0  IDiag  1:
 E= -117.865969940620    
 DIIS: error= 7.78D-02 at cycle   1 NSaved=   1.
 NSaved= 1 IEnMin= 1 EnMin= -117.865969940620     IErMin= 1 ErrMin= 7.78D-02
 ErrMax= 7.78D-02  0.00D+00 EMaxC= 1.00D-01 BMatC= 2.49D-01 BMatP= 2.49D-01
 IDIUse=3 WtCom= 2.22D-01 WtEn= 7.78D-01
 Coeff-Com:  0.100D+01
 Coeff-En:   0.100D+01
 Coeff:      0.100D+01
 Gap=     0.475 Goal=   None    Shift=    0.000
 GapD=    0.475 DampG=2.000 DampE=0.500 DampFc=1.0000 IDamp=-1.
 RMSDP=1.60D-03 MaxDP=3.58D-02              OVMax= 5.45D-02

 Cycle   2  Pass 0  IDiag  1:
 E= -117.893475211974     Delta-E=       -0.027505271355 Rises=F Damp=F
 DIIS: error= 8.23D-03 at cycle   2 NSaved=   2.
 NSaved= 2 IEnMin= 2 EnMin= -117.893475211974     IErMin= 2 ErrMin= 8.23D-03
 ErrMax= 8.23D-03  0.00D+00 EMaxC= 1.00D-01 BMatC= 7.84D-03 BMatP= 2.49D-01
 IDIUse=3 WtCom= 9.18D-01 WtEn= 8.23D-02
 Coeff-Com:  0.806D-01 0.919D+00
 Coeff-En:   0.000D+00 0.100D+01
 Coeff:      0.739D-01 0.926D+00
 Gap=     0.532 Goal=   None    Shift=    0.000
 RMSDP=7.36D-04 MaxDP=1.18D-02 DE=-2.75D-02 OVMax= 3.30D-02

 Cycle   3  Pass 0  IDiag  1:
 E= -117.897232610585     Delta-E=       -0.003757398610 Rises=F Damp=F
 DIIS: error= 6.84D-03 at cycle   3 NSaved=   3.
 NSaved= 3 IEnMin= 3 EnMin= -117.897232610585     IErMin= 3 ErrMin= 6.84D-03
 ErrMax= 6.84D-03  0.00D+00 EMaxC= 1.00D-01 BMatC= 4.10D-03 BMatP= 7.84D-03
 IDIUse=3 WtCom= 9.32D-01 WtEn= 6.84D-02
 Coeff-Com:  0.244D-01 0.424D+00 0.551D+00
 Coeff-En:   0.000D+00 0.312D+00 0.688D+00
 Coeff:      0.228D-01 0.417D+00 0.561D+00
 Gap=     0.509 Goal=   None    Shift=    0.000
 RMSDP=3.18D-04 MaxDP=5.39D-03 DE=-3.76D-03 OVMax= 1.39D-02

 Cycle   4  Pass 0  IDiag  1:
 E= -117.901035695630     Delta-E=       -0.003803085045 Rises=F Damp=F
 DIIS: error= 1.74D-04 at cycle   4 NSaved=   4.
 NSaved= 4 IEnMin= 4 EnMin= -117.901035695630     IErMin= 4 ErrMin= 1.74D-04
 ErrMax= 1.74D-04  0.00D+00 EMaxC= 1.00D-01 BMatC= 2.36D-06 BMatP= 4.10D-03
 IDIUse=3 WtCom= 9.98D-01 WtEn= 1.74D-03
 Coeff-Com: -0.315D-02-0.537D-01-0.533D-01 0.111D+01
 Coeff-En:   0.000D+00 0.000D+00 0.000D+00 0.100D+01
 Coeff:     -0.314D-02-0.536D-01-0.532D-01 0.111D+01
 Gap=     0.509 Goal=   None    Shift=    0.000
 RMSDP=2.63D-05 MaxDP=3.71D-04 DE=-3.80D-03 OVMax= 9.28D-04

 Cycle   5  Pass 0  IDiag  1:
 E= -117.901040718208     Delta-E=       -0.000005022578 Rises=F Damp=F
 DIIS: error= 3.37D-05 at cycle   5 NSaved=   5.
 NSaved= 5 IEnMin= 5 EnMin= -117.901040718208     IErMin= 5 ErrMin= 3.37D-05
 ErrMax= 3.37D-05  0.00D+00 EMaxC= 1.00D-01 BMatC= 8.50D-08 BMatP= 2.36D-06
 IDIUse=1 WtCom= 1.00D+00 WtEn= 0.00D+00
 Coeff-Com: -0.712D-03-0.116D-01-0.143D-01 0.513D-02 0.102D+01
 Coeff:     -0.712D-03-0.116D-01-0.143D-01 0.513D-02 0.102D+01
 Gap=     0.509 Goal=   None    Shift=    0.000
 RMSDP=7.73D-06 MaxDP=9.52D-05 DE=-5.02D-06 OVMax= 1.95D-04

 Initial convergence to 1.0D-05 achieved.  Increase integral accuracy.
 Cycle   6  Pass 1  IDiag  1:
 E= -117.901041531784     Delta-E=       -0.000000813577 Rises=F Damp=F
 DIIS: error= 2.38D-05 at cycle   1 NSaved=   1.
 NSaved= 1 IEnMin= 1 EnMin= -117.901041531784     IErMin= 1 ErrMin= 2.38D-05
 ErrMax= 2.38D-05  0.00D+00 EMaxC= 1.00D-01 BMatC= 9.21D-08 BMatP= 9.21D-08
 IDIUse=1 WtCom= 1.00D+00 WtEn= 0.00D+00
 Coeff-Com:  0.100D+01
 Coeff:      0.100D+01
 Gap=     0.509 Goal=   None    Shift=    0.000
 RMSDP=7.73D-06 MaxDP=9.52D-05 DE=-8.14D-07 OVMax= 6.92D-05

 Cycle   7  Pass 1  IDiag  1:
 E= -117.901041600645     Delta-E=       -0.000000068861 Rises=F Damp=F
 DIIS: error= 5.07D-06 at cycle   2 NSaved=   2.
 NSaved= 2 IEnMin= 2 EnMin= -117.901041600645     IErMin= 2 ErrMin= 5.07D-06
 ErrMax= 5.07D-06  0.00D+00 EMaxC= 1.00D-01 BMatC= 1.65D-09 BMatP= 9.21D-08
 IDIUse=1 WtCom= 1.00D+00 WtEn= 0.00D+00
 Coeff-Com: -0.709D-01 0.107D+01
 Coeff:     -0.709D-01 0.107D+01
 Gap=     0.509 Goal=   None    Shift=    0.000
 RMSDP=9.67D-07 MaxDP=1.62D-05 DE=-6.89D-08 OVMax= 1.85D-05

 Cycle   8  Pass 1  IDiag  1:
 E= -117.901041602954     Delta-E=       -0.000000002309 Rises=F Damp=F
 DIIS: error= 1.76D-06 at cycle   3 NSaved=   3.
 NSaved= 3 IEnMin= 3 EnMin= -117.901041602954     IErMin= 3 ErrMin= 1.76D-06
 ErrMax= 1.76D-06  0.00D+00 EMaxC= 1.00D-01 BMatC= 2.26D-10 BMatP= 1.65D-09
 IDIUse=1 WtCom= 1.00D+00 WtEn= 0.00D+00
 Coeff-Com: -0.278D-01 0.244D+00 0.784D+00
 Coeff:     -0.278D-01 0.244D+00 0.784D+00
 Gap=     0.509 Goal=   None    Shift=    0.000
 RMSDP=2.24D-07 MaxDP=3.36D-06 DE=-2.31D-09 OVMax= 7.70D-06

 Cycle   9  Pass 1  IDiag  1:
 E= -117.901041603229     Delta-E=       -0.000000000275 Rises=F Damp=F
 DIIS: error= 8.15D-07 at cycle   4 NSaved=   4.
 NSaved= 4 IEnMin= 4 EnMin= -117.901041603229     IErMin= 4 ErrMin= 8.15D-07
 ErrMax= 8.15D-07  0.00D+00 EMaxC= 1.00D-01 BMatC= 4.25D-11 BMatP= 2.26D-10
 IDIUse=1 WtCom= 1.00D+00 WtEn= 0.00D+00
 Coeff-Com:  0.172D-02-0.600D-01 0.234D+00 0.824D+00
 Coeff:      0.172D-02-0.600D-01 0.234D+00 0.824D+00
 Gap=     0.509 Goal=   None    Shift=    0.000
 RMSDP=1.48D-07 MaxDP=2.69D-06 DE=-2.75D-10 OVMax= 2.36D-06

 Cycle  10  Pass 1  IDiag  1:
 E= -117.901041603287     Delta-E=       -0.000000000058 Rises=F Damp=F
 DIIS: error= 1.53D-07 at cycle   5 NSaved=   5.
 NSaved= 5 IEnMin= 5 EnMin= -117.901041603287     IErMin= 5 ErrMin= 1.53D-07
 ErrMax= 1.53D-07  0.00D+00 EMaxC= 1.00D-01 BMatC= 1.69D-12 BMatP= 4.25D-11
 IDIUse=1 WtCom= 1.00D+00 WtEn= 0.00D+00
 Coeff-Com:  0.381D-02-0.414D-01-0.510D-01 0.941D-01 0.995D+00
 Coeff:      0.381D-02-0.414D-01-0.510D-01 0.941D-01 0.995D+00
 Gap=     0.509 Goal=   None    Shift=    0.000
 RMSDP=6.28D-08 MaxDP=1.16D-06 DE=-5.77D-11 OVMax= 1.24D-06

 Cycle  11  Pass 1  IDiag  1:
 E= -117.901041603294     Delta-E=       -0.000000000007 Rises=F Damp=F
 DIIS: error= 1.19D-08 at cycle   6 NSaved=   6.
 NSaved= 6 IEnMin= 6 EnMin= -117.901041603294     IErMin= 6 ErrMin= 1.19D-08
 ErrMax= 1.19D-08  0.00D+00 EMaxC= 1.00D-01 BMatC= 1.40D-14 BMatP= 1.69D-12
 IDIUse=1 WtCom= 1.00D+00 WtEn= 0.00D+00
 Coeff-Com: -0.347D-03 0.455D-02 0.426D-02-0.261D-01-0.116D+00 0.113D+01
 Coeff:     -0.347D-03 0.455D-02 0.426D-02-0.261D-01-0.116D+00 0.113D+01
 Gap=     0.509 Goal=   None    Shift=    0.000
 RMSDP=1.08D-08 MaxDP=2.16D-07 DE=-7.33D-12 OVMax= 1.31D-07

 Cycle  12  Pass 1  IDiag  1:
 E= -117.901041603294     Delta-E=        0.000000000000 Rises=F Damp=F
 DIIS: error= 1.50D-09 at cycle   7 NSaved=   7.
 NSaved= 7 IEnMin= 7 EnMin= -117.901041603294     IErMin= 7 ErrMin= 1.50D-09
 ErrMax= 1.50D-09  0.00D+00 EMaxC= 1.00D-01 BMatC= 2.00D-16 BMatP= 1.40D-14
 IDIUse=1 WtCom= 1.00D+00 WtEn= 0.00D+00
 Coeff-Com: -0.613D-05-0.318D-04 0.303D-03 0.109D-02 0.264D-02-0.145D+00
 Coeff-Com:  0.114D+01
 Coeff:     -0.613D-05-0.318D-04 0.303D-03 0.109D-02 0.264D-02-0.145D+00
 Coeff:      0.114D+01
 Gap=     0.509 Goal=   None    Shift=    0.000
 RMSDP=1.57D-09 MaxDP=3.23D-08 DE=-1.71D-13 OVMax= 1.40D-08

 SCF Done:  E(RwB97XD) =  -117.901041603     A.U. after   12 cycles
            NFock= 12  Conv=0.16D-08     -V/T= 2.0058
 KE= 1.172193468539D+02 PE=-4.244164380074D+02 EE= 1.134062571435D+02
 Leave Link  502 at Fri Jul  9 19:23:18 2021, MaxMem=  4194304000 cpu:      1376.3
 (Enter /home/minenky/programs//g09/l601.exe)
 Copying SCF densities to generalized density rwf, IOpCl= 0 IROHF=0.

 **********************************************************************

            Population analysis using the SCF density.

 **********************************************************************

 Orbital symmetries:
       Occupied  (A1') (E') (E') (A1') (E') (E') (A2") (A1') (E")
                 (E") (E') (E')
       Virtual   (A1') (A2") (E') (E') (A2') (E") (E") (A1') (E')
                 (E') (E') (E') (A2") (A1') (E") (E") (A2') (A2")
                 (E') (E') (A1') (E') (E') (E") (E") (E') (E')
                 (A1') (A1') (E") (E") (A2") (A1") (E') (E') (E")
                 (E") (E') (E') (E') (E') (A2') (A1') (A2") (E')
                 (E') (E") (E") (E') (E') (A2") (A2') (E") (E")
                 (A1') (E') (E') (E') (E') (A2") (A1') (A1') (A2")
                 (A2') (E") (E") (E') (E') (E") (E") (E") (E")
                 (A1') (A1") (E') (E') (E') (E') (E") (E") (E')
                 (E') (A1') (A2") (A1') (A2') (A1") (E') (E') (E")
                 (E") (A2") (E') (E') (A2') (E") (E") (A1') (E')
                 (E') (A1") (A2") (E") (E") (E') (E') (A1') (E")
                 (E") (E') (E') (E') (E') (A2') (A1') (E') (E')
 The electronic state is 1-A1'.
 Alpha  occ. eigenvalues --  -10.28093 -10.28054 -10.28054  -0.95021  -0.69148
 Alpha  occ. eigenvalues --   -0.69148  -0.58390  -0.55158  -0.44510  -0.44510
 Alpha  occ. eigenvalues --   -0.37756  -0.37756
 Alpha virt. eigenvalues --    0.13142   0.14448   0.15758   0.15758   0.20475
 Alpha virt. eigenvalues --    0.23610   0.23610   0.24110   0.26784   0.26784
 Alpha virt. eigenvalues --    0.32075   0.32075   0.36493   0.37846   0.39935
 Alpha virt. eigenvalues --    0.39935   0.46606   0.47541   0.49831   0.49831
 Alpha virt. eigenvalues --    0.52852   0.54520   0.54520   0.59648   0.59648
 Alpha virt. eigenvalues --    0.62521   0.62521   0.85403   0.91808   0.96621
 Alpha virt. eigenvalues --    0.96621   1.00554   1.01311   1.06435   1.06435
 Alpha virt. eigenvalues --    1.14618   1.14618   1.15717   1.15717   1.19838
 Alpha virt. eigenvalues --    1.19838   1.27449   1.44532   1.55772   1.62272
 Alpha virt. eigenvalues --    1.62272   1.69656   1.69656   1.74077   1.74077
 Alpha virt. eigenvalues --    1.80085   1.81898   1.89496   1.89496   1.91525
 Alpha virt. eigenvalues --    1.97160   1.97160   2.00207   2.00207   2.17402
 Alpha virt. eigenvalues --    2.32119   2.38422   2.44772   2.48600   2.48738
 Alpha virt. eigenvalues --    2.48738   2.60057   2.60057   2.62346   2.62346
 Alpha virt. eigenvalues --    2.67130   2.67130   2.68806   2.70746   2.71720
 Alpha virt. eigenvalues --    2.71720   2.86205   2.86205   3.04611   3.04611
 Alpha virt. eigenvalues --    3.05824   3.05824   3.09475   3.19544   3.21050
 Alpha virt. eigenvalues --    3.22308   3.23593   3.24350   3.24350   3.52355
 Alpha virt. eigenvalues --    3.52355   3.57982   3.63326   3.63326   3.81314
 Alpha virt. eigenvalues --    3.81495   3.81495   3.89003   4.05487   4.05487
 Alpha virt. eigenvalues --    4.12767   4.15033   4.21712   4.21712   4.24291
 Alpha virt. eigenvalues --    4.24291   4.40361   4.52856   4.52856   4.62557
 Alpha virt. eigenvalues --    4.62557   4.87724   4.87724   5.00337  22.43763
 Alpha virt. eigenvalues --   22.52849  22.52849
          Condensed to atoms (all electrons):
               1          2          3          4          5          6
     1  C    5.004474   0.240270   0.240270   0.418341   0.418341  -0.025594
     2  C    0.240270   5.004474   0.240270  -0.025594  -0.025594   0.418341
     3  C    0.240270   0.240270   5.004474  -0.025594  -0.025594  -0.025594
     4  H    0.418341  -0.025594  -0.025594   0.554013  -0.023705  -0.005905
     5  H    0.418341  -0.025594  -0.025594  -0.023705   0.554013   0.002345
     6  H   -0.025594   0.418341  -0.025594  -0.005905   0.002345   0.554013
     7  H   -0.025594   0.418341  -0.025594   0.002345  -0.005905  -0.023705
     8  H   -0.025594  -0.025594   0.418341  -0.005905   0.002345  -0.005905
     9  H   -0.025594  -0.025594   0.418341   0.002345  -0.005905   0.002345
               7          8          9
     1  C   -0.025594  -0.025594  -0.025594
     2  C    0.418341  -0.025594  -0.025594
     3  C   -0.025594   0.418341   0.418341
     4  H    0.002345  -0.005905   0.002345
     5  H   -0.005905   0.002345  -0.005905
     6  H   -0.023705  -0.005905   0.002345
     7  H    0.554013   0.002345  -0.005905
     8  H    0.002345   0.554013  -0.023705
     9  H   -0.005905  -0.023705   0.554013
 Mulliken charges:
               1
     1  C   -0.219319
     2  C   -0.219319
     3  C   -0.219319
     4  H    0.109660
     5  H    0.109660
     6  H    0.109660
     7  H    0.109660
     8  H    0.109660
     9  H    0.109660
 Sum of Mulliken charges =   0.00000
 Mulliken charges with hydrogens summed into heavy atoms:
               1
     1  C    0.000000
     2  C    0.000000
     3  C    0.000000
 Electronic spatial extent (au):  <R**2>=            155.7854
 Charge=              0.0000 electrons
 Dipole moment (field-independent basis, Debye):
    X=              0.0000    Y=              0.0000    Z=              0.0000  Tot=              0.0000
 Quadrupole moment (field-independent basis, Debye-Ang):
   XX=            -20.6445   YY=            -20.6445   ZZ=            -18.3033
   XY=              0.0000   XZ=              0.0000   YZ=              0.0000
 Traceless Quadrupole moment (field-independent basis, Debye-Ang):
   XX=             -0.7804   YY=             -0.7804   ZZ=              1.5608
   XY=              0.0000   XZ=              0.0000   YZ=              0.0000
 Octapole moment (field-independent basis, Debye-Ang**2):
  XXX=              0.0000  YYY=              2.3038  ZZZ=              0.0000  XYY=              0.0000
  XXY=             -2.3038  XXZ=              0.0000  XZZ=              0.0000  YZZ=              0.0000
  YYZ=              0.0000  XYZ=              0.0000
 Hexadecapole moment (field-independent basis, Debye-Ang**3):
 XXXX=            -88.3596 YYYY=            -88.3596 ZZZZ=            -39.5803 XXXY=              0.0000
 XXXZ=              0.0000 YYYX=              0.0000 YYYZ=              0.0000 ZZZX=              0.0000
 ZZZY=              0.0000 XXYY=            -29.4532 XXZZ=            -18.9678 YYZZ=            -18.9678
 XXYZ=              0.0000 YYXZ=              0.0000 ZZXY=              0.0000
 N-N= 7.588979240672D+01 E-N=-4.244164379438D+02  KE= 1.172193468539D+02
 Symmetry A1   KE= 7.411952300710D+01
 Symmetry A2   KE= 2.132890722918D+00
 Symmetry B1   KE= 3.704975126815D+01
 Symmetry B2   KE= 3.917181855739D+00
 No NMR shielding tensors so no spin-rotation constants.
 Leave Link  601 at Fri Jul  9 19:23:25 2021, MaxMem=  4194304000 cpu:        43.4
 (Enter /home/minenky/programs//g09/l701.exe)
 Compute integral first derivatives.
 ... and contract with generalized density number  0.
 R6Disp: Adding Grimme-D2 dispersion energy 1st derivatives to the gradient.
  12 Symmetry operations used in ECPInt.
 ECPInt:  NShTT=    1653 NPrTT=    4740 LenC2=    1651 LenP2D=    4278.
 LDataN:  DoStor=T MaxTD1= 7 Len=  274
 Leave Link  701 at Fri Jul  9 19:23:34 2021, MaxMem=  4194304000 cpu:        54.5
 (Enter /home/minenky/programs//g09/l702.exe)
 L702 exits ... SP integral derivatives will be done elsewhere.
 Leave Link  702 at Fri Jul  9 19:23:35 2021, MaxMem=  4194304000 cpu:         0.2
 (Enter /home/minenky/programs//g09/l703.exe)
 Compute integral first derivatives, UseDBF=F ICtDFT=           0.
 Integral derivatives from FoFJK, PRISM(SPDF).
 Calling FoFJK, ICntrl=      2127 FMM=F ISym2X=1 I1Cent= 0 IOpClX= 0 NMat=1 NMatS=1 NMatT=0.
 FoFJK:  IHMeth= 1 ICntrl=    2127 DoSepK=T KAlg= 0 I1Cent=   0 FoldK=F
 IRaf=         1 NMat=   1 IRICut=       1 DoRegI=T DoRafI=F ISym2E= 1.
 FoFCou: FMM=F IPFlag=           0 FMFlag=      100000 FMFlg1=         800
         NFxFlg=           0 DoJE=F BraDBF=F KetDBF=F FulRan=T
         wScrn=  0.000000 ICntrl=    2527 IOpCl=  0 I1Cent=           0 NGrid=           0
         NMat0=    1 NMatS0=      1 NMatT0=    0 NMatD0=    1 NMtDS0=    0 NMtDT0=    0
 Petite list used in FoFCou.
 Leave Link  703 at Fri Jul  9 19:23:48 2021, MaxMem=  4194304000 cpu:        79.9
 (Enter /home/minenky/programs//g09/l716.exe)
 Dipole        =-8.88178420D-16 2.22044605D-15 2.22044605D-16
 ***** Axes restored to original set *****
 -------------------------------------------------------------------
 Center     Atomic                   Forces (Hartrees/Bohr)
 Number     Number              X              Y              Z
 -------------------------------------------------------------------
      1        6           0.000000000   -0.002617228    0.000000000
      2        6           0.002266586    0.001308614    0.000000000
      3        6          -0.002266586    0.001308614    0.000000000
      4        1           0.000000000   -0.000329403    0.000171235
      5        1           0.000000000   -0.000329403   -0.000171235
      6        1           0.000285271    0.000164701    0.000171235
      7        1           0.000285271    0.000164701   -0.000171235
      8        1          -0.000285271    0.000164701    0.000171235
      9        1          -0.000285271    0.000164701   -0.000171235
 -------------------------------------------------------------------
 Cartesian Forces:  Max     0.002617228 RMS     0.000889790
 Leave Link  716 at Fri Jul  9 19:23:48 2021, MaxMem=  4194304000 cpu:         0.2
 (Enter /home/minenky/programs//g09/l103.exe)

 GradGradGradGradGradGradGradGradGradGradGradGradGradGradGradGradGradGrad
 Berny optimization.
 FormGI is forming the generalized inverse of G from B-inverse, IUseBI=4.
 Internal  Forces:  Max     0.001891419 RMS     0.000563317
 Search for a local minimum.
 Step number   1 out of a maximum of   46
 All quantities printed in internal units (Hartrees-Bohrs-Radians)
 RMS Force = .56332D-03 SwitMx=.10000D-02 MixMth= 2
 Mixed Optimization -- En-DIIS/RFO-DIIS
 Second derivative matrix not updated -- first step.
 ITU=  0
     Eigenvalues ---    0.02009   0.03096   0.03096   0.03096   0.03481
     Eigenvalues ---    0.03481   0.10518   0.10518   0.10970   0.16000
     Eigenvalues ---    0.16000   0.16000   0.28226   0.28226   0.32025
     Eigenvalues ---    0.35799   0.35799   0.35799   0.35799   0.35799
     Eigenvalues ---    0.35799
 RFO step:  Lambda=-3.97684240D-05 EMin= 2.00893029D-02
 Linear search not attempted -- first point.
 Iteration  1 RMS(Cart)=  0.00263954 RMS(Int)=  0.00000089
 Iteration  2 RMS(Cart)=  0.00000080 RMS(Int)=  0.00000040
 ITry= 1 IFail=0 DXMaxC= 5.82D-03 DCOld= 1.00D+10 DXMaxT= 3.00D-01 DXLimC= 3.00D+00 Rises=F
 ClnCor:  largest displacement from symmetrization is 4.28D-09 for atom     5.
 Variable       Old X    -DE/DX   Delta X   Delta X   Delta X     New X
                                 (Linear)    (Quad)   (Total)
    R1        2.84099  -0.00189   0.00000  -0.00591  -0.00591   2.83508
    R2        2.84099  -0.00189   0.00000  -0.00591  -0.00591   2.83508
    R3        2.04397  -0.00004   0.00000  -0.00010  -0.00010   2.04387
    R4        2.04397  -0.00004   0.00000  -0.00010  -0.00010   2.04387
    R5        2.84099  -0.00189   0.00000  -0.00591  -0.00591   2.83508
    R6        2.04397  -0.00004   0.00000  -0.00010  -0.00010   2.04387
    R7        2.04397  -0.00004   0.00000  -0.00010  -0.00010   2.04387
    R8        2.04397  -0.00004   0.00000  -0.00010  -0.00010   2.04387
    R9        2.04397  -0.00004   0.00000  -0.00010  -0.00010   2.04387
    A1        2.06032  -0.00012   0.00000  -0.00113  -0.00113   2.05918
    A2        2.06032  -0.00012   0.00000  -0.00113  -0.00113   2.05918
    A3        2.06032  -0.00012   0.00000  -0.00113  -0.00113   2.05918
    A4        2.06032  -0.00012   0.00000  -0.00113  -0.00113   2.05918
    A5        1.99371   0.00030   0.00000   0.00275   0.00275   1.99646
    A6        2.06032  -0.00012   0.00000  -0.00113  -0.00113   2.05918
    A7        2.06032  -0.00012   0.00000  -0.00113  -0.00113   2.05918
    A8        2.06032  -0.00012   0.00000  -0.00113  -0.00113   2.05918
    A9        2.06032  -0.00012   0.00000  -0.00113  -0.00113   2.05918
   A10        1.99371   0.00030   0.00000   0.00275   0.00275   1.99646
   A11        2.06032  -0.00012   0.00000  -0.00113  -0.00113   2.05918
   A12        2.06032  -0.00012   0.00000  -0.00113  -0.00113   2.05918
   A13        2.06032  -0.00012   0.00000  -0.00113  -0.00113   2.05918
   A14        2.06032  -0.00012   0.00000  -0.00113  -0.00113   2.05918
   A15        1.99371   0.00030   0.00000   0.00275   0.00275   1.99646
    D1        0.00000   0.00000   0.00000   0.00000   0.00000   0.00000
    D2        2.51626   0.00019   0.00000   0.00177   0.00176   2.51802
    D3       -2.51626  -0.00019   0.00000  -0.00177  -0.00176  -2.51802
    D4        0.00000   0.00000   0.00000   0.00000   0.00000   0.00000
    D5        0.00000   0.00000   0.00000   0.00000   0.00000   0.00000
    D6       -2.51626  -0.00019   0.00000  -0.00177  -0.00176  -2.51802
    D7        2.51626   0.00019   0.00000   0.00177   0.00176   2.51802
    D8        0.00000   0.00000   0.00000   0.00000   0.00000   0.00000
    D9        0.00000   0.00000   0.00000   0.00000   0.00000   0.00000
   D10        2.51626   0.00019   0.00000   0.00177   0.00176   2.51802
   D11       -2.51626  -0.00019   0.00000  -0.00177  -0.00176  -2.51802
   D12        0.00000   0.00000   0.00000   0.00000   0.00000   0.00000
         Item               Value     Threshold  Converged?
 Maximum Force            0.001891     0.000015     NO 
 RMS     Force            0.000563     0.000010     NO 
 Maximum Displacement     0.005824     0.000060     NO 
 RMS     Displacement     0.002640     0.000040     NO 
 Predicted change in Energy=-1.988294D-05
 Lowest energy point so far.  Saving SCF results.
 GradGradGradGradGradGradGradGradGradGradGradGradGradGradGradGradGradGrad

 Leave Link  103 at Fri Jul  9 19:23:54 2021, MaxMem=  4194304000 cpu:        33.9
 (Enter /home/minenky/programs//g09/l202.exe)
                          Input orientation:                          
 ---------------------------------------------------------------------
 Center     Atomic      Atomic             Coordinates (Angstroms)
 Number     Number       Type             X           Y           Z
 ---------------------------------------------------------------------
      1          6           0        0.000000    0.866176    0.000000
      2          6           0       -0.750130   -0.433088    0.000000
      3          6           0        0.750130   -0.433088    0.000000
      4          1           0        0.000000    1.452160    0.909076
      5          1           0        0.000000    1.452160   -0.909076
      6          1           0       -1.257607   -0.726080    0.909076
      7          1           0       -1.257607   -0.726080   -0.909076
      8          1           0        1.257608   -0.726080    0.909076
      9          1           0        1.257608   -0.726080   -0.909076
 ---------------------------------------------------------------------
                    Distance matrix (angstroms):
                    1          2          3          4          5
     1  C    0.000000
     2  C    1.500260   0.000000
     3  C    1.500260   1.500260   0.000000
     4  H    1.081572   2.223348   2.223348   0.000000
     5  H    1.081572   2.223348   2.223348   1.818153   0.000000
     6  H    2.223348   1.081572   2.223348   2.515215   3.103544
     7  H    2.223348   1.081572   2.223348   3.103544   2.515215
     8  H    2.223348   2.223348   1.081572   2.515215   3.103544
     9  H    2.223348   2.223348   1.081572   3.103544   2.515215
                    6          7          8          9
     6  H    0.000000
     7  H    1.818153   0.000000
     8  H    2.515215   3.103544   0.000000
     9  H    3.103544   2.515215   1.818153   0.000000
 Stoichiometry    C3H6
 Framework group  D3H[3C2(C),3SGV(H2)]
 Deg. of freedom     3
 Full point group                 D3H     NOp  12
 RotChk:  IX=0 Diff= 4.44D-16
 Largest Abelian subgroup         C2V     NOp   4
 Largest concise Abelian subgroup C2V     NOp   4
                         Standard orientation:                         
 ---------------------------------------------------------------------
 Center     Atomic      Atomic             Coordinates (Angstroms)
 Number     Number       Type             X           Y           Z
 ---------------------------------------------------------------------
      1          6           0        0.000000    0.866176    0.000000
      2          6           0       -0.750130   -0.433088    0.000000
      3          6           0        0.750130   -0.433088    0.000000
      4          1           0        0.000000    1.452160    0.909076
      5          1           0        0.000000    1.452160   -0.909076
      6          1           0       -1.257607   -0.726080    0.909076
      7          1           0       -1.257607   -0.726080   -0.909076
      8          1           0        1.257607   -0.726080    0.909076
      9          1           0        1.257607   -0.726080   -0.909076
 ---------------------------------------------------------------------
 Rotational constants (GHZ):     20.3144439     20.3144439     12.7104212
 Leave Link  202 at Fri Jul  9 19:23:55 2021, MaxMem=  4194304000 cpu:         0.7
 (Enter /home/minenky/programs//g09/l301.exe)
 Standard basis: def2TZVP (5D, 7F)
 Ernie: Thresh=  0.10000D-02 Tol=  0.10000D-05 Strict=F.
 There are    53 symmetry adapted cartesian basis functions of A1  symmetry.
 There are    21 symmetry adapted cartesian basis functions of A2  symmetry.
 There are    40 symmetry adapted cartesian basis functions of B1  symmetry.
 There are    30 symmetry adapted cartesian basis functions of B2  symmetry.
 There are    46 symmetry adapted basis functions of A1  symmetry.
 There are    20 symmetry adapted basis functions of A2  symmetry.
 There are    35 symmetry adapted basis functions of B1  symmetry.
 There are    28 symmetry adapted basis functions of B2  symmetry.
   129 basis functions,   201 primitive gaussians,   144 cartesian basis functions
    12 alpha electrons       12 beta electrons
       nuclear repulsion energy        76.0029607725 Hartrees.
 IExCor= 4639 DFT=T Ex+Corr=wB97XD ExCW=0 ScaHFX=  1.000000
 ScaDFX=  1.000000  1.000000  1.000000  1.000000 ScalE2=  1.000000  1.000000
 IRadAn=      5 IRanWt=     -1 IRanGd=            0 ICorTp=0 IEmpDi=121
  HFx wShort=  0.000000 wLong=  0.200000 cFull=  0.222036 cShort=  0.000000 cLong=  0.777964
  DFx wShort=  0.000000 wLong=  0.200000 cFull=  0.000000 cShort=  0.000000 cLong=  1.000000
 NAtoms=    9 NActive=    9 NUniq=    2 SFac= 4.00D+00 NAtFMM=   60 NAOKFM=F Big=F
 Integral buffers will be    131072 words long.
 Raffenetti 2 integral format.
 Two-electron integral symmetry is turned on.
 R6Disp:  Grimme-D2 Dispersion energy=       -0.0024080787 Hartrees.
 Nuclear repulsion after empirical dispersion term =       76.0005526938 Hartrees.
 Leave Link  301 at Fri Jul  9 19:23:55 2021, MaxMem=  4194304000 cpu:         0.1
 (Enter /home/minenky/programs//g09/l302.exe)
 NPDir=0 NMtPBC=     1 NCelOv=     1 NCel=       1 NClECP=     1 NCelD=      1
         NCelK=      1 NCelE2=     1 NClLst=     1 CellRange=     0.0.
 One-electron integrals computed using PRISM.
 One-electron integral symmetry used in STVInt
  12 Symmetry operations used in ECPInt.
 ECPInt:  NShTT=    1653 NPrTT=    4740 LenC2=    1651 LenP2D=    4278.
 LDataN:  DoStor=T MaxTD1= 6 Len=  172
 NBasis=   129 RedAO= T EigKep=  3.98D-04  NBF=    46    20    35    28
 NBsUse=   129 1.00D-06 EigRej= -1.00D+00 NBFU=    46    20    35    28
 Precomputing XC quadrature grid using
 IXCGrd= 4 IRadAn=           5 IRanWt=          -1 IRanGd=           0 AccXCQ= 0.00D+00.
 Generated NRdTot=       0 NPtTot=           0 NUsed=           0 NTot=          32
 NSgBfM=   144   144   144   144   144 MxSgAt=     9 MxSgA2=     9.
 Leave Link  302 at Fri Jul  9 19:24:26 2021, MaxMem=  4194304000 cpu:       197.0
 (Enter /home/minenky/programs//g09/l303.exe)
 DipDrv:  MaxL=1.
 Leave Link  303 at Fri Jul  9 19:24:27 2021, MaxMem=  4194304000 cpu:         3.1
 (Enter /home/minenky/programs//g09/l401.exe)
 Initial guess from the checkpoint file:  "m1_00_75-19-40_C3H6_wB97XD.chk"
 B after Tr=     0.000000    0.000000    0.000000
         Rot=    1.000000    0.000000    0.000000    0.000000 Ang=   0.00 deg.
 Guess basis will be translated and rotated to current coordinates.
 JPrj=2 DoOrth=T DoCkMO=T.
 Initial guess orbital symmetries:
       Occupied  (A1') (E') (E') (A1') (E') (E') (A2") (A1') (E")
                 (E") (E') (E')
       Virtual   (?A) (?A) (?A) (?A) (?A) (?A) (?A) (?A) (?A) (?A)
                 (?A) (?A) (?A) (?A) (?A) (?A) (?A) (?A) (?A) (?A)
                 (?A) (?A) (?A) (?A) (?A) (?A) (?A) (?A) (?A) (?A)
                 (?A) (?A) (?A) (?A) (?A) (?A) (?A) (?A) (?A) (?A)
                 (?B) (?B) (?B) (?B) (?B) (?B) (?B) (?B) (?B) (?B)
                 (?B) (?B) (?B) (?B) (?B) (?B) (?B) (?B) (?B) (?A)
                 (?A) (?A) (?A) (?A) (?A) (?A) (?A) (?A) (?A) (?A)
                 (?A) (?A) (?A) (?A) (?A) (?A) (?A) (?A) (?A) (?A)
                 (?A) (?A) (?A) (?A) (?A) (?A) (?A) (?A) (?A) (?A)
                 (?A) (?B) (?B) (?B) (?B) (?B) (?B) (?B) (?B) (?B)
                 (?B) (?B) (?B) (?B) (?B) (?B) (?B) (?B) (?B) (?B)
                 (?B) (?B) (?B) (?B) (?B) (?B) (?B)
 The electronic state of the initial guess is 1-A1'.
 Leave Link  401 at Fri Jul  9 19:24:30 2021, MaxMem=  4194304000 cpu:        16.8
 (Enter /home/minenky/programs//g09/l502.exe)
 Closed shell SCF:
 Using DIIS extrapolation, IDIIS=  1040.
 Integral symmetry usage will be decided dynamically.
 Keep R1 ints in memory in symmetry-blocked form, NReq=88245054.
 IVT=      214432 IEndB=      214432 NGot=  4194304000 MDV=  4185222865
 LenX=  4185222865 LenY=  4185201688
 Requested convergence on RMS density matrix=1.00D-08 within 380 cycles.
 Requested convergence on MAX density matrix=1.00D-06.
 Requested convergence on             energy=1.00D-06.
 No special actions if energy rises.
 FoFCou: FMM=F IPFlag=           0 FMFlag=           0 FMFlg1=           0
         NFxFlg=           0 DoJE=F BraDBF=F KetDBF=F FulRan=T
         wScrn=  0.000000 ICntrl=     600 IOpCl=  0 I1Cent=           0 NGrid=           0
         NMat0=    1 NMatS0=   8385 NMatT0=    0 NMatD0=    1 NMtDS0=    0 NMtDT0=    0
 Petite list used in FoFCou.

 Cycle   1  Pass 1  IDiag  1:
 E= -117.901058647355    
 DIIS: error= 2.21D-04 at cycle   1 NSaved=   1.
 NSaved= 1 IEnMin= 1 EnMin= -117.901058647355     IErMin= 1 ErrMin= 2.21D-04
 ErrMax= 2.21D-04  0.00D+00 EMaxC= 1.00D-01 BMatC= 5.82D-06 BMatP= 5.82D-06
 IDIUse=3 WtCom= 9.98D-01 WtEn= 2.21D-03
 Coeff-Com:  0.100D+01
 Coeff-En:   0.100D+01
 Coeff:      0.100D+01
 Gap=     0.941 Goal=   None    Shift=    0.000
 RMSDP=1.95D-05 MaxDP=4.27D-04              OVMax= 7.43D-04

 Cycle   2  Pass 1  IDiag  1:
 E= -117.901062665760     Delta-E=       -0.000004018405 Rises=F Damp=F
 DIIS: error= 8.94D-05 at cycle   2 NSaved=   2.
 NSaved= 2 IEnMin= 2 EnMin= -117.901062665760     IErMin= 2 ErrMin= 8.94D-05
 ErrMax= 8.94D-05  0.00D+00 EMaxC= 1.00D-01 BMatC= 8.97D-07 BMatP= 5.82D-06
 IDIUse=1 WtCom= 1.00D+00 WtEn= 0.00D+00
 Coeff-Com:  0.204D+00 0.796D+00
 Coeff:      0.204D+00 0.796D+00
 Gap=     0.509 Goal=   None    Shift=    0.000
 RMSDP=7.99D-06 MaxDP=1.36D-04 DE=-4.02D-06 OVMax= 2.73D-04

 Cycle   3  Pass 1  IDiag  1:
 E= -117.901063328063     Delta-E=       -0.000000662302 Rises=F Damp=F
 DIIS: error= 4.88D-05 at cycle   3 NSaved=   3.
 NSaved= 3 IEnMin= 3 EnMin= -117.901063328063     IErMin= 3 ErrMin= 4.88D-05
 ErrMax= 4.88D-05  0.00D+00 EMaxC= 1.00D-01 BMatC= 1.80D-07 BMatP= 8.97D-07
 IDIUse=1 WtCom= 1.00D+00 WtEn= 0.00D+00
 Coeff-Com: -0.327D-01 0.283D+00 0.749D+00
 Coeff:     -0.327D-01 0.283D+00 0.749D+00
 Gap=     0.509 Goal=   None    Shift=    0.000
 RMSDP=1.94D-06 MaxDP=3.27D-05 DE=-6.62D-07 OVMax= 1.22D-04

 Cycle   4  Pass 1  IDiag  1:
 E= -117.901063506384     Delta-E=       -0.000000178321 Rises=F Damp=F
 DIIS: error= 4.46D-06 at cycle   4 NSaved=   4.
 NSaved= 4 IEnMin= 4 EnMin= -117.901063506384     IErMin= 4 ErrMin= 4.46D-06
 ErrMax= 4.46D-06  0.00D+00 EMaxC= 1.00D-01 BMatC= 1.38D-09 BMatP= 1.80D-07
 IDIUse=1 WtCom= 1.00D+00 WtEn= 0.00D+00
 Coeff-Com: -0.521D-02-0.123D-01 0.497D-01 0.968D+00
 Coeff:     -0.521D-02-0.123D-01 0.497D-01 0.968D+00
 Gap=     0.509 Goal=   None    Shift=    0.000
 RMSDP=4.81D-07 MaxDP=7.69D-06 DE=-1.78D-07 OVMax= 1.36D-05

 Cycle   5  Pass 1  IDiag  1:
 E= -117.901063508448     Delta-E=       -0.000000002064 Rises=F Damp=F
 DIIS: error= 6.87D-07 at cycle   5 NSaved=   5.
 NSaved= 5 IEnMin= 5 EnMin= -117.901063508448     IErMin= 5 ErrMin= 6.87D-07
 ErrMax= 6.87D-07  0.00D+00 EMaxC= 1.00D-01 BMatC= 3.95D-11 BMatP= 1.38D-09
 IDIUse=1 WtCom= 1.00D+00 WtEn= 0.00D+00
 Coeff-Com:  0.157D-02-0.125D-01-0.326D-01-0.205D-01 0.106D+01
 Coeff:      0.157D-02-0.125D-01-0.326D-01-0.205D-01 0.106D+01
 Gap=     0.509 Goal=   None    Shift=    0.000
 RMSDP=1.59D-07 MaxDP=2.10D-06 DE=-2.06D-09 OVMax= 4.45D-06

 Cycle   6  Pass 1  IDiag  1:
 E= -117.901063508527     Delta-E=       -0.000000000079 Rises=F Damp=F
 DIIS: error= 5.61D-08 at cycle   6 NSaved=   6.
 NSaved= 6 IEnMin= 6 EnMin= -117.901063508527     IErMin= 6 ErrMin= 5.61D-08
 ErrMax= 5.61D-08  0.00D+00 EMaxC= 1.00D-01 BMatC= 6.06D-13 BMatP= 3.95D-11
 IDIUse=1 WtCom= 1.00D+00 WtEn= 0.00D+00
 Coeff-Com: -0.664D-04 0.195D-02 0.231D-02-0.210D-01-0.989D-01 0.112D+01
 Coeff:     -0.664D-04 0.195D-02 0.231D-02-0.210D-01-0.989D-01 0.112D+01
 Gap=     0.509 Goal=   None    Shift=    0.000
 RMSDP=3.60D-08 MaxDP=4.77D-07 DE=-7.91D-11 OVMax= 6.93D-07

 Cycle   7  Pass 1  IDiag  1:
 E= -117.901063508530     Delta-E=       -0.000000000003 Rises=F Damp=F
 DIIS: error= 8.46D-09 at cycle   7 NSaved=   7.
 NSaved= 7 IEnMin= 7 EnMin= -117.901063508530     IErMin= 7 ErrMin= 8.46D-09
 ErrMax= 8.46D-09  0.00D+00 EMaxC= 1.00D-01 BMatC= 8.72D-15 BMatP= 6.06D-13
 IDIUse=1 WtCom= 1.00D+00 WtEn= 0.00D+00
 Coeff-Com: -0.180D-05-0.198D-03 0.187D-04 0.390D-02 0.232D-02-0.186D+00
 Coeff-Com:  0.118D+01
 Coeff:     -0.180D-05-0.198D-03 0.187D-04 0.390D-02 0.232D-02-0.186D+00
 Coeff:      0.118D+01
 Gap=     0.509 Goal=   None    Shift=    0.000
 RMSDP=6.83D-09 MaxDP=1.04D-07 DE=-3.27D-12 OVMax= 9.82D-08

 SCF Done:  E(RwB97XD) =  -117.901063509     A.U. after    7 cycles
            NFock=  7  Conv=0.68D-08     -V/T= 2.0057
 KE= 1.172339046171D+02 PE=-4.246487664550D+02 EE= 1.135132456356D+02
 Leave Link  502 at Fri Jul  9 19:26:53 2021, MaxMem=  4194304000 cpu:       860.0
 (Enter /home/minenky/programs//g09/l701.exe)
 Compute integral first derivatives.
 ... and contract with generalized density number  0.
 R6Disp: Adding Grimme-D2 dispersion energy 1st derivatives to the gradient.
  12 Symmetry operations used in ECPInt.
 ECPInt:  NShTT=    1653 NPrTT=    4740 LenC2=    1651 LenP2D=    4278.
 LDataN:  DoStor=T MaxTD1= 7 Len=  274
 Leave Link  701 at Fri Jul  9 19:27:00 2021, MaxMem=  4194304000 cpu:        41.3
 (Enter /home/minenky/programs//g09/l702.exe)
 L702 exits ... SP integral derivatives will be done elsewhere.
 Leave Link  702 at Fri Jul  9 19:27:01 2021, MaxMem=  4194304000 cpu:         0.1
 (Enter /home/minenky/programs//g09/l703.exe)
 Compute integral first derivatives, UseDBF=F ICtDFT=           0.
 Integral derivatives from FoFJK, PRISM(SPDF).
 Calling FoFJK, ICntrl=      2127 FMM=F ISym2X=1 I1Cent= 0 IOpClX= 0 NMat=1 NMatS=1 NMatT=0.
 FoFJK:  IHMeth= 1 ICntrl=    2127 DoSepK=T KAlg= 0 I1Cent=   0 FoldK=F
 IRaf=         1 NMat=   1 IRICut=       1 DoRegI=T DoRafI=F ISym2E= 1.
 FoFCou: FMM=F IPFlag=           0 FMFlag=      100000 FMFlg1=         800
         NFxFlg=           0 DoJE=F BraDBF=F KetDBF=F FulRan=T
         wScrn=  0.000000 ICntrl=    2527 IOpCl=  0 I1Cent=           0 NGrid=           0
         NMat0=    1 NMatS0=      1 NMatT0=    0 NMatD0=    1 NMtDS0=    0 NMtDT0=    0
 Petite list used in FoFCou.
 Leave Link  703 at Fri Jul  9 19:27:13 2021, MaxMem=  4194304000 cpu:        69.4
 (Enter /home/minenky/programs//g09/l716.exe)
 Dipole        = 4.44089210D-16 6.66133815D-16-4.44089210D-16
 ***** Axes restored to original set *****
 -------------------------------------------------------------------
 Center     Atomic                   Forces (Hartrees/Bohr)
 Number     Number              X              Y              Z
 -------------------------------------------------------------------
      1        6           0.000000000   -0.000258984    0.000000000
      2        6           0.000224286    0.000129492    0.000000000
      3        6          -0.000224286    0.000129492    0.000000000
      4        1           0.000000000   -0.000034769    0.000011833
      5        1           0.000000000   -0.000034769   -0.000011833
      6        1           0.000030111    0.000017385    0.000011833
      7        1           0.000030111    0.000017385   -0.000011833
      8        1          -0.000030111    0.000017385    0.000011833
      9        1          -0.000030111    0.000017385   -0.000011833
 -------------------------------------------------------------------
 Cartesian Forces:  Max     0.000258984 RMS     0.000088047
 Leave Link  716 at Fri Jul  9 19:27:13 2021, MaxMem=  4194304000 cpu:         0.2
 (Enter /home/minenky/programs//g09/l103.exe)

 GradGradGradGradGradGradGradGradGradGradGradGradGradGradGradGradGradGrad
 Berny optimization.
 Using GEDIIS/GDIIS optimizer.
 FormGI is forming the generalized inverse of G from B-inverse, IUseBI=4.
 Internal  Forces:  Max     0.000189672 RMS     0.000056461
 Search for a local minimum.
 Step number   2 out of a maximum of   46
 All quantities printed in internal units (Hartrees-Bohrs-Radians)
 RMS Force = .56461D-04 SwitMx=.10000D-02 MixMth= 2
 Mixed Optimization -- En-DIIS/RFO-DIIS
 Swapping is turned off.
 Update second derivatives using D2CorX and points    1    2
 DE= -2.19D-05 DEPred=-1.99D-05 R= 1.10D+00
 TightC=F SS=  1.41D+00  RLast= 1.27D-02 DXNew= 5.0454D-01 3.8122D-02
 Trust test= 1.10D+00 RLast= 1.27D-02 DXMaxT set to 3.00D-01
 ITU=  1  0
     Eigenvalues ---    0.02008   0.03095   0.03095   0.03095   0.03483
     Eigenvalues ---    0.03483   0.10527   0.10527   0.10794   0.16000
     Eigenvalues ---    0.16000   0.16000   0.28225   0.28225   0.29327
     Eigenvalues ---    0.35797   0.35799   0.35799   0.35799   0.35799
     Eigenvalues ---    0.35799
 En-DIIS/RFO-DIIS IScMMF=        0 using points:     2    1
 RFO step:  Lambda=-2.21914183D-07.
 NNeg= 0 NP= 2 Switch=  2.50D-03 Rises=F DC=  2.19D-05 SmlDif=  1.00D-05
 RMS Error=  0.1105851274D-03 NUsed= 2 EDIIS=F
 DidBck=F Rises=F RFO-DIIS coefs:    1.11081   -0.11081
 Iteration  1 RMS(Cart)=  0.00029202 RMS(Int)=  0.00000005
 Iteration  2 RMS(Cart)=  0.00000001 RMS(Int)=  0.00000005
 ITry= 1 IFail=0 DXMaxC= 6.48D-04 DCOld= 1.00D+10 DXMaxT= 3.00D-01 DXLimC= 3.00D+00 Rises=F
 ClnCor:  largest displacement from symmetrization is 5.37D-09 for atom     8.
 Variable       Old X    -DE/DX   Delta X   Delta X   Delta X     New X
                                 (Linear)    (Quad)   (Total)
    R1        2.83508  -0.00019  -0.00065   0.00000  -0.00066   2.83442
    R2        2.83508  -0.00019  -0.00065   0.00000  -0.00066   2.83442
    R3        2.04387  -0.00001  -0.00001  -0.00002  -0.00003   2.04385
    R4        2.04387  -0.00001  -0.00001  -0.00002  -0.00003   2.04385
    R5        2.83508  -0.00019  -0.00065   0.00000  -0.00066   2.83442
    R6        2.04387  -0.00001  -0.00001  -0.00002  -0.00003   2.04385
    R7        2.04387  -0.00001  -0.00001  -0.00002  -0.00003   2.04385
    R8        2.04387  -0.00001  -0.00001  -0.00002  -0.00003   2.04385
    R9        2.04387  -0.00001  -0.00001  -0.00002  -0.00003   2.04385
    A1        2.05918  -0.00001  -0.00013   0.00000  -0.00012   2.05906
    A2        2.05918  -0.00001  -0.00013   0.00000  -0.00012   2.05906
    A3        2.05918  -0.00001  -0.00013   0.00000  -0.00012   2.05906
    A4        2.05918  -0.00001  -0.00013   0.00000  -0.00012   2.05906
    A5        1.99646   0.00003   0.00030  -0.00001   0.00029   1.99676
    A6        2.05918  -0.00001  -0.00013   0.00000  -0.00012   2.05906
    A7        2.05918  -0.00001  -0.00013   0.00000  -0.00012   2.05906
    A8        2.05918  -0.00001  -0.00013   0.00000  -0.00012   2.05906
    A9        2.05918  -0.00001  -0.00013   0.00000  -0.00012   2.05906
   A10        1.99646   0.00003   0.00030  -0.00001   0.00029   1.99676
   A11        2.05918  -0.00001  -0.00013   0.00000  -0.00012   2.05906
   A12        2.05918  -0.00001  -0.00013   0.00000  -0.00012   2.05906
   A13        2.05918  -0.00001  -0.00013   0.00000  -0.00012   2.05906
   A14        2.05918  -0.00001  -0.00013   0.00000  -0.00012   2.05906
   A15        1.99646   0.00003   0.00030  -0.00001   0.00029   1.99676
    D1        0.00000   0.00000   0.00000   0.00000   0.00000   0.00000
    D2        2.51802   0.00002   0.00020  -0.00001   0.00019   2.51821
    D3       -2.51802  -0.00002  -0.00020   0.00001  -0.00019  -2.51821
    D4        0.00000   0.00000   0.00000   0.00000   0.00000   0.00000
    D5        0.00000   0.00000   0.00000   0.00000   0.00000   0.00000
    D6       -2.51802  -0.00002  -0.00020   0.00001  -0.00019  -2.51821
    D7        2.51802   0.00002   0.00020  -0.00001   0.00019   2.51821
    D8        0.00000   0.00000   0.00000   0.00000   0.00000   0.00000
    D9        0.00000   0.00000   0.00000   0.00000   0.00000   0.00000
   D10        2.51802   0.00002   0.00020  -0.00001   0.00019   2.51821
   D11       -2.51802  -0.00002  -0.00020   0.00001  -0.00019  -2.51821
   D12        0.00000   0.00000   0.00000   0.00000   0.00000   0.00000
         Item               Value     Threshold  Converged?
 Maximum Force            0.000190     0.000015     NO 
 RMS     Force            0.000056     0.000010     NO 
 Maximum Displacement     0.000648     0.000060     NO 
 RMS     Displacement     0.000292     0.000040     NO 
 Predicted change in Energy=-2.201235D-07
 Lowest energy point so far.  Saving SCF results.
 GradGradGradGradGradGradGradGradGradGradGradGradGradGradGradGradGradGrad

 Leave Link  103 at Fri Jul  9 19:27:20 2021, MaxMem=  4194304000 cpu:        40.2
 (Enter /home/minenky/programs//g09/l202.exe)
                          Input orientation:                          
 ---------------------------------------------------------------------
 Center     Atomic      Atomic             Coordinates (Angstroms)
 Number     Number       Type             X           Y           Z
 ---------------------------------------------------------------------
      1          6           0        0.000000    0.865975    0.000000
      2          6           0       -0.749956   -0.432988    0.000000
      3          6           0        0.749956   -0.432987    0.000000
      4          1           0        0.000000    1.451817    0.909150
      5          1           0        0.000000    1.451817   -0.909150
      6          1           0       -1.257310   -0.725909    0.909150
      7          1           0       -1.257310   -0.725909   -0.909150
      8          1           0        1.257311   -0.725908    0.909150
      9          1           0        1.257311   -0.725908   -0.909150
 ---------------------------------------------------------------------
                    Distance matrix (angstroms):
                    1          2          3          4          5
     1  C    0.000000
     2  C    1.499912   0.000000
     3  C    1.499912   1.499912   0.000000
     4  H    1.081557   2.222943   2.222943   0.000000
     5  H    1.081557   2.222943   2.222943   1.818301   0.000000
     6  H    2.222943   1.081557   2.222943   2.514621   3.103149
     7  H    2.222943   1.081557   2.222943   3.103149   2.514621
     8  H    2.222943   2.222943   1.081557   2.514621   3.103149
     9  H    2.222943   2.222943   1.081557   3.103149   2.514621
                    6          7          8          9
     6  H    0.000000
     7  H    1.818301   0.000000
     8  H    2.514621   3.103149   0.000000
     9  H    3.103149   2.514621   1.818301   0.000000
 Stoichiometry    C3H6
 Framework group  D3H[3C2(C),3SGV(H2)]
 Deg. of freedom     3
 Full point group                 D3H     NOp  12
 RotChk:  IX=0 Diff= 4.44D-16
 Largest Abelian subgroup         C2V     NOp   4
 Largest concise Abelian subgroup C2V     NOp   4
                         Standard orientation:                         
 ---------------------------------------------------------------------
 Center     Atomic      Atomic             Coordinates (Angstroms)
 Number     Number       Type             X           Y           Z
 ---------------------------------------------------------------------
      1          6           0        0.000000    0.865975    0.000000
      2          6           0       -0.749956   -0.432987    0.000000
      3          6           0        0.749956   -0.432987    0.000000
      4          1           0        0.000000    1.451817    0.909150
      5          1           0        0.000000    1.451817   -0.909150
      6          1           0       -1.257310   -0.725909    0.909150
      7          1           0       -1.257310   -0.725909   -0.909150
      8          1           0        1.257310   -0.725909    0.909150
      9          1           0        1.257310   -0.725909   -0.909150
 ---------------------------------------------------------------------
 Rotational constants (GHZ):     20.3213572     20.3213572     12.7163557
 Leave Link  202 at Fri Jul  9 19:27:20 2021, MaxMem=  4194304000 cpu:         1.0
 (Enter /home/minenky/programs//g09/l301.exe)
 Standard basis: def2TZVP (5D, 7F)
 Ernie: Thresh=  0.10000D-02 Tol=  0.10000D-05 Strict=F.
 There are    53 symmetry adapted cartesian basis functions of A1  symmetry.
 There are    21 symmetry adapted cartesian basis functions of A2  symmetry.
 There are    40 symmetry adapted cartesian basis functions of B1  symmetry.
 There are    30 symmetry adapted cartesian basis functions of B2  symmetry.
 There are    46 symmetry adapted basis functions of A1  symmetry.
 There are    20 symmetry adapted basis functions of A2  symmetry.
 There are    35 symmetry adapted basis functions of B1  symmetry.
 There are    28 symmetry adapted basis functions of B2  symmetry.
   129 basis functions,   201 primitive gaussians,   144 cartesian basis functions
    12 alpha electrons       12 beta electrons
       nuclear repulsion energy        76.0155155033 Hartrees.
 IExCor= 4639 DFT=T Ex+Corr=wB97XD ExCW=0 ScaHFX=  1.000000
 ScaDFX=  1.000000  1.000000  1.000000  1.000000 ScalE2=  1.000000  1.000000
 IRadAn=      5 IRanWt=     -1 IRanGd=            0 ICorTp=0 IEmpDi=121
  HFx wShort=  0.000000 wLong=  0.200000 cFull=  0.222036 cShort=  0.000000 cLong=  0.777964
  DFx wShort=  0.000000 wLong=  0.200000 cFull=  0.000000 cShort=  0.000000 cLong=  1.000000
 NAtoms=    9 NActive=    9 NUniq=    2 SFac= 4.00D+00 NAtFMM=   60 NAOKFM=F Big=F
 Integral buffers will be    131072 words long.
 Raffenetti 2 integral format.
 Two-electron integral symmetry is turned on.
 R6Disp:  Grimme-D2 Dispersion energy=       -0.0024080790 Hartrees.
 Nuclear repulsion after empirical dispersion term =       76.0131074243 Hartrees.
 Leave Link  301 at Fri Jul  9 19:27:20 2021, MaxMem=  4194304000 cpu:         0.2
 (Enter /home/minenky/programs//g09/l302.exe)
 NPDir=0 NMtPBC=     1 NCelOv=     1 NCel=       1 NClECP=     1 NCelD=      1
         NCelK=      1 NCelE2=     1 NClLst=     1 CellRange=     0.0.
 One-electron integrals computed using PRISM.
 One-electron integral symmetry used in STVInt
  12 Symmetry operations used in ECPInt.
 ECPInt:  NShTT=    1653 NPrTT=    4740 LenC2=    1651 LenP2D=    4278.
 LDataN:  DoStor=T MaxTD1= 6 Len=  172
 NBasis=   129 RedAO= T EigKep=  3.97D-04  NBF=    46    20    35    28
 NBsUse=   129 1.00D-06 EigRej= -1.00D+00 NBFU=    46    20    35    28
 Precomputing XC quadrature grid using
 IXCGrd= 4 IRadAn=           5 IRanWt=          -1 IRanGd=           0 AccXCQ= 0.00D+00.
 Generated NRdTot=       0 NPtTot=           0 NUsed=           0 NTot=          32
 NSgBfM=   144   144   144   144   144 MxSgAt=     9 MxSgA2=     9.
 Leave Link  302 at Fri Jul  9 19:27:28 2021, MaxMem=  4194304000 cpu:        73.1
 (Enter /home/minenky/programs//g09/l303.exe)
 DipDrv:  MaxL=1.
[...]
     16 -0.175082D-01  0.429571D-02 -0.836998D-02  0.159842D-02 -0.245819D-01
     17  0.429571D-02  0.261957D-01 -0.315299D-01  0.225184D-02  0.152769D-01
     18 -0.836998D-02 -0.315299D-01  0.261957D-01  0.225184D-02 -0.112657D-02
     19  0.159842D-02  0.225184D-02  0.225184D-02 -0.160125D-02 -0.149639D-01
     20  0.429571D-02 -0.175082D-01  0.153764D-01  0.159842D-02  0.261957D-01
     21 -0.836998D-02  0.153764D-01 -0.175082D-01  0.159842D-02 -0.315299D-01
     22 -0.315299D-01 -0.836998D-02  0.429571D-02  0.225184D-02 -0.836998D-02
     23  0.261957D-01  0.429571D-02 -0.836998D-02  0.225184D-02  0.429571D-02
     24  0.225184D-02  0.159842D-02  0.159842D-02 -0.160125D-02  0.225184D-02
     25 -0.303424D-02 -0.267275D-02 -0.171384D-02  0.446436D-02 -0.604322D-02
     26 -0.335180D-02 -0.488589D-02 -0.392697D-02  0.653214D-02 -0.335180D-02
     27 -0.572566D-02  0.392697D-02  0.488589D-02 -0.653214D-02 -0.572566D-02
     28 -0.604322D-02  0.171384D-02  0.267275D-02 -0.446436D-02 -0.303424D-02
     29  0.171384D-02 -0.604322D-02  0.303424D-02 -0.446436D-02  0.267616D-02
     30  0.392697D-02 -0.572566D-02  0.335180D-02 -0.653214D-02  0.696642D-02
     31 -0.488589D-02 -0.335180D-02  0.572566D-02  0.653214D-02 -0.843825D-03
     32 -0.267275D-02 -0.303424D-02  0.604322D-02  0.446436D-02  0.344644D-02
     33  0.344644D-02  0.267616D-02 -0.344644D-02  0.000000D+00 -0.267275D-02
     34 -0.843825D-03 -0.843825D-03 -0.696642D-02  0.422225D-02 -0.488589D-02
     35  0.696642D-02  0.696642D-02  0.843825D-03 -0.422225D-02  0.392697D-02
     36  0.267616D-02  0.344644D-02 -0.267616D-02  0.000000D+00  0.171384D-02
               16            17            18            19            20 
     16  0.443680D-01
     17 -0.112657D-02  0.443680D-01
     18  0.152769D-01 -0.245819D-01  0.443680D-01
     19 -0.149639D-01 -0.149639D-01 -0.149639D-01  0.301677D-01
     20 -0.315299D-01 -0.836998D-02  0.429571D-02  0.225184D-02  0.443680D-01
     21  0.261957D-01  0.429571D-02 -0.836998D-02  0.225184D-02 -0.245819D-01
     22  0.429571D-02 -0.175082D-01  0.153764D-01  0.159842D-02  0.152769D-01
     23 -0.836998D-02  0.153764D-01 -0.175082D-01  0.159842D-02 -0.112657D-02
     24  0.225184D-02  0.159842D-02  0.159842D-02 -0.160125D-02 -0.149639D-01
     25  0.303424D-02  0.267275D-02  0.171384D-02 -0.446436D-02 -0.267616D-02
     26  0.572566D-02 -0.392697D-02 -0.488589D-02  0.653214D-02 -0.696642D-02
     27  0.335180D-02  0.488589D-02  0.392697D-02 -0.653214D-02  0.843825D-03
     28  0.604322D-02 -0.171384D-02 -0.267275D-02  0.446436D-02 -0.344644D-02
     29 -0.344644D-02 -0.267616D-02  0.344644D-02  0.000000D+00  0.604322D-02
     30  0.843825D-03  0.843825D-03  0.696642D-02 -0.422225D-02  0.335180D-02
     31 -0.696642D-02 -0.696642D-02 -0.843825D-03  0.422225D-02  0.572566D-02
     32 -0.267616D-02 -0.344644D-02  0.267616D-02  0.000000D+00  0.303424D-02
     33 -0.171384D-02  0.604322D-02 -0.303424D-02  0.446436D-02  0.267275D-02
     34 -0.392697D-02  0.572566D-02 -0.335180D-02  0.653214D-02 -0.392697D-02
     35  0.488589D-02  0.335180D-02 -0.572566D-02 -0.653214D-02  0.488589D-02
     36  0.267275D-02  0.303424D-02 -0.604322D-02 -0.446436D-02 -0.171384D-02
               21            22            23            24            25 
     21  0.443680D-01
     22 -0.112657D-02  0.443680D-01
     23  0.152769D-01 -0.245819D-01  0.443680D-01
     24 -0.149639D-01 -0.149639D-01 -0.149639D-01  0.301677D-01
     25  0.344644D-02  0.267616D-02 -0.344644D-02  0.000000D+00  0.190053D-01
     26 -0.843825D-03 -0.843825D-03 -0.696642D-02  0.422225D-02  0.511600D-02
     27  0.696642D-02  0.696642D-02  0.843825D-03 -0.422225D-02  0.511600D-02
     28  0.267616D-02  0.344644D-02 -0.267616D-02  0.000000D+00 -0.877332D-02
     29 -0.303424D-02 -0.267275D-02 -0.171384D-02  0.446436D-02  0.454549D-03
     30 -0.572566D-02  0.392697D-02  0.488589D-02 -0.653214D-02 -0.815323D-03
     31 -0.335180D-02 -0.488589D-02 -0.392697D-02  0.653214D-02  0.215156D-02
     32 -0.604322D-02  0.171384D-02  0.267275D-02 -0.446436D-02  0.881687D-03
     33  0.171384D-02 -0.604322D-02  0.303424D-02 -0.446436D-02  0.454549D-03
     34 -0.488589D-02 -0.335180D-02  0.572566D-02  0.653214D-02 -0.815323D-03
     35  0.392697D-02 -0.572566D-02  0.335180D-02 -0.653214D-02  0.215156D-02
     36 -0.267275D-02 -0.303424D-02  0.604322D-02  0.446436D-02  0.881687D-03
               26            27            28            29            30 
     26  0.220938D-01
     27 -0.118618D-01  0.220938D-01
     28  0.511600D-02  0.511600D-02  0.190053D-01
     29 -0.815323D-03  0.215156D-02  0.881687D-03  0.190053D-01
     30  0.361611D-02 -0.227987D-02  0.215156D-02  0.511600D-02  0.220938D-01
     31 -0.227987D-02  0.361611D-02 -0.815323D-03  0.511600D-02 -0.118618D-01
     32  0.215156D-02 -0.815323D-03  0.454549D-03 -0.877332D-02  0.511600D-02
     33  0.215156D-02 -0.815323D-03  0.881687D-03  0.454549D-03  0.215156D-02
     34 -0.227987D-02  0.361611D-02  0.215156D-02  0.215156D-02  0.361611D-02
     35  0.361611D-02 -0.227987D-02 -0.815323D-03 -0.815323D-03 -0.227987D-02
     36 -0.815323D-03  0.215156D-02  0.454549D-03  0.881687D-03 -0.815323D-03
               31            32            33            34            35 
     31  0.220938D-01
     32  0.511600D-02  0.190053D-01
     33 -0.815323D-03  0.881687D-03  0.190053D-01
     34 -0.227987D-02 -0.815323D-03  0.511600D-02  0.220938D-01
     35  0.361611D-02  0.215156D-02  0.511600D-02 -0.118618D-01  0.220938D-01
     36  0.215156D-02  0.454549D-03 -0.877332D-02  0.511600D-02  0.511600D-02
               36 
     36  0.190053D-01
 Leave Link  716 at Fri Jul  9 19:31:54 2021, MaxMem=  4194304000 cpu:        15.8
 (Enter /home/minenky/programs//g09/l103.exe)

 GradGradGradGradGradGradGradGradGradGradGradGradGradGradGradGradGradGrad
 Berny optimization.
 Red2BG is reusing G-inverse.
 Internal  Forces:  Max     0.000001242 RMS     0.000000418
 Search for a local minimum.
 Step number   1 out of a maximum of    2
 All quantities printed in internal units (Hartrees-Bohrs-Radians)
 Second derivative matrix not updated -- analytic derivatives used.
 ITU=  0
     Eigenvalues ---    0.01636   0.01636   0.02818   0.03188   0.03473
     Eigenvalues ---    0.03473   0.05954   0.05954   0.06433   0.08471
     Eigenvalues ---    0.16374   0.16374   0.26999   0.26999   0.27572
     Eigenvalues ---    0.35883   0.35883   0.36170   0.36372   0.36411
     Eigenvalues ---    0.36411
 Angle between quadratic step and forces=  38.24 degrees.
 Linear search not attempted -- first point.
 Iteration  1 RMS(Cart)=  0.00000314 RMS(Int)=  0.00000000
 Iteration  2 RMS(Cart)=  0.00000000 RMS(Int)=  0.00000000
 ITry= 1 IFail=0 DXMaxC= 7.21D-06 DCOld= 1.00D+10 DXMaxT= 3.00D-01 DXLimC= 3.00D+00 Rises=F
 ClnCor:  largest displacement from symmetrization is 9.75D-09 for atom     5.
 Variable       Old X    -DE/DX   Delta X   Delta X   Delta X     New X
                                 (Linear)    (Quad)   (Total)
    R1        2.83442   0.00000   0.00000   0.00000   0.00000   2.83443
    R2        2.83442   0.00000   0.00000   0.00000   0.00000   2.83443
    R3        2.04385   0.00000   0.00000   0.00000   0.00000   2.04385
    R4        2.04385   0.00000   0.00000   0.00000   0.00000   2.04385
    R5        2.83442   0.00000   0.00000   0.00000   0.00000   2.83443
    R6        2.04385   0.00000   0.00000   0.00000   0.00000   2.04385
    R7        2.04385   0.00000   0.00000   0.00000   0.00000   2.04385
    R8        2.04385   0.00000   0.00000   0.00000   0.00000   2.04385
    R9        2.04385   0.00000   0.00000   0.00000   0.00000   2.04385
    A1        2.05906   0.00000   0.00000   0.00000   0.00000   2.05907
    A2        2.05906   0.00000   0.00000   0.00000   0.00000   2.05907
    A3        2.05906   0.00000   0.00000   0.00000   0.00000   2.05907
    A4        2.05906   0.00000   0.00000   0.00000   0.00000   2.05907
    A5        1.99676   0.00000   0.00000  -0.00001  -0.00001   1.99675
    A6        2.05906   0.00000   0.00000   0.00000   0.00000   2.05907
    A7        2.05906   0.00000   0.00000   0.00000   0.00000   2.05907
    A8        2.05906   0.00000   0.00000   0.00000   0.00000   2.05907
    A9        2.05906   0.00000   0.00000   0.00000   0.00000   2.05907
   A10        1.99676   0.00000   0.00000  -0.00001  -0.00001   1.99675
   A11        2.05906   0.00000   0.00000   0.00000   0.00000   2.05907
   A12        2.05906   0.00000   0.00000   0.00000   0.00000   2.05907
   A13        2.05906   0.00000   0.00000   0.00000   0.00000   2.05907
   A14        2.05906   0.00000   0.00000   0.00000   0.00000   2.05907
   A15        1.99676   0.00000   0.00000  -0.00001  -0.00001   1.99675
    D1        0.00000   0.00000   0.00000   0.00000   0.00000   0.00000
    D2        2.51821   0.00000   0.00000   0.00000   0.00000   2.51821
    D3       -2.51821   0.00000   0.00000   0.00000   0.00000  -2.51821
    D4        0.00000   0.00000   0.00000   0.00000   0.00000   0.00000
    D5        0.00000   0.00000   0.00000   0.00000   0.00000   0.00000
    D6       -2.51821   0.00000   0.00000   0.00000   0.00000  -2.51821
    D7        2.51821   0.00000   0.00000   0.00000   0.00000   2.51821
    D8        0.00000   0.00000   0.00000   0.00000   0.00000   0.00000
    D9        0.00000   0.00000   0.00000   0.00000   0.00000   0.00000
   D10        2.51821   0.00000   0.00000   0.00000   0.00000   2.51821
   D11       -2.51821   0.00000   0.00000   0.00000   0.00000  -2.51821
   D12        0.00000   0.00000   0.00000   0.00000   0.00000   0.00000
         Item               Value     Threshold  Converged?
 Maximum Force            0.000001     0.000015     YES
 RMS     Force            0.000000     0.000010     YES
 Maximum Displacement     0.000007     0.000060     YES
 RMS     Displacement     0.000003     0.000040     YES
 Predicted change in Energy=-1.584084D-11
 Optimization completed.
    -- Stationary point found.
                           ----------------------------
                           !   Optimized Parameters   !
                           ! (Angstroms and Degrees)  !
 --------------------------                            --------------------------
 ! Name  Definition              Value          Derivative Info.                !
 --------------------------------------------------------------------------------
 ! R1    R(1,2)                  1.4999         -DE/DX =    0.0                 !
 ! R2    R(1,3)                  1.4999         -DE/DX =    0.0                 !
 ! R3    R(1,4)                  1.0816         -DE/DX =    0.0                 !
 ! R4    R(1,5)                  1.0816         -DE/DX =    0.0                 !
 ! R5    R(2,3)                  1.4999         -DE/DX =    0.0                 !
 ! R6    R(2,6)                  1.0816         -DE/DX =    0.0                 !
 ! R7    R(2,7)                  1.0816         -DE/DX =    0.0                 !
 ! R8    R(3,8)                  1.0816         -DE/DX =    0.0                 !
 ! R9    R(3,9)                  1.0816         -DE/DX =    0.0                 !
 ! A1    A(2,1,4)              117.9756         -DE/DX =    0.0                 !
 ! A2    A(2,1,5)              117.9756         -DE/DX =    0.0                 !
 ! A3    A(3,1,4)              117.9756         -DE/DX =    0.0                 !
 ! A4    A(3,1,5)              117.9756         -DE/DX =    0.0                 !
 ! A5    A(4,1,5)              114.4058         -DE/DX =    0.0                 !
 ! A6    A(1,2,6)              117.9756         -DE/DX =    0.0                 !
 ! A7    A(1,2,7)              117.9756         -DE/DX =    0.0                 !
 ! A8    A(3,2,6)              117.9756         -DE/DX =    0.0                 !
 ! A9    A(3,2,7)              117.9756         -DE/DX =    0.0                 !
 ! A10   A(6,2,7)              114.4058         -DE/DX =    0.0                 !
 ! A11   A(1,3,8)              117.9756         -DE/DX =    0.0                 !
 ! A12   A(1,3,9)              117.9756         -DE/DX =    0.0                 !
 ! A13   A(2,3,8)              117.9756         -DE/DX =    0.0                 !
 ! A14   A(2,3,9)              117.9756         -DE/DX =    0.0                 !
 ! A15   A(8,3,9)              114.4058         -DE/DX =    0.0                 !
 ! D1    D(4,1,2,6)              0.0            -DE/DX =    0.0                 !
 ! D2    D(4,1,2,7)            144.2829         -DE/DX =    0.0                 !
 ! D3    D(5,1,2,6)           -144.2829         -DE/DX =    0.0                 !
 ! D4    D(5,1,2,7)              0.0            -DE/DX =    0.0                 !
 ! D5    D(4,1,3,8)              0.0            -DE/DX =    0.0                 !
 ! D6    D(4,1,3,9)           -144.2829         -DE/DX =    0.0                 !
 ! D7    D(5,1,3,8)            144.2829         -DE/DX =    0.0                 !
 ! D8    D(5,1,3,9)              0.0            -DE/DX =    0.0                 !
 ! D9    D(6,2,3,8)              0.0            -DE/DX =    0.0                 !
 ! D10   D(6,2,3,9)            144.2829         -DE/DX =    0.0                 !
 ! D11   D(7,2,3,8)           -144.2829         -DE/DX =    0.0                 !
 ! D12   D(7,2,3,9)              0.0            -DE/DX =    0.0                 !
 --------------------------------------------------------------------------------
 GradGradGradGradGradGradGradGradGradGradGradGradGradGradGradGradGradGrad

 Leave Link  103 at Fri Jul  9 19:32:00 2021, MaxMem=  4194304000 cpu:        35.7
 (Enter /home/minenky/programs//g09/l9999.exe)
 1\1\GINC-CN514-06-R\Freq\RwB97XD\def2TZVP\C3H6\MINENKY\09-Jul-2021\0\\
 #P Geom=AllCheck Guess=TCheck SCRF=Check GenChk RwB97XD/def2TZVP Freq\
 \The PBEPBE optimization and frequencies\\0,1\C,-0.0000001347,0.865974
 7742,0.\C,-0.7499560862,-0.4329875038,0.\C,0.7499562209,-0.4329872705,
 0.\H,-0.0000002258,1.4518170472,0.9091503436\H,-0.0000002258,1.4518170
 472,-0.9091503436\H,-1.2573103317,-0.7259087192,0.9091503436\H,-1.2573
 103317,-0.7259087192,-0.9091503436\H,1.2573105575,-0.7259083281,0.9091
 503436\H,1.2573105575,-0.7259083281,-0.9091503436\\Version=AM64L-G09Re
 vD.01\State=1-A1'\HF=-117.9010637\RMSD=5.660e-10\RMSF=4.332e-07\ZeroPo
 int=0.0818328\Thermal=0.0851822\Dipole=0.,0.,0.\DipoleDeriv=0.1129509,
 0.,0.,0.,-0.1884625,0.,0.,0.,0.0975736,-0.1133955,-0.1304188,0.,-0.130
 6447,0.0372831,0.,0.,0.,0.0976551,-0.1133956,0.1304188,0.,0.1306447,0.
 0372832,0.,0.,0.,0.0976551,0.0844251,0.,0.,0.,-0.0461795,-0.0426482,0.
 ,-0.0885042,-0.0489275,0.0844251,0.,0.,0.,-0.0461795,0.0426482,0.,0.08
 85042,-0.0489275,-0.0135688,-0.056586,0.0370142,-0.056548,0.0517475,0.
 0213451,0.0766417,0.0442941,-0.0488627,-0.0135688,-0.0565859,-0.037014
 2,-0.056548,0.0517475,-0.0213451,-0.0766417,-0.0442941,-0.0488627,-0.0
 135688,0.0565859,-0.0370142,0.056548,0.0517475,0.0213451,-0.0766417,0.
 0442941,-0.0488627,-0.0135688,0.0565859,0.0370142,0.056548,0.0517475,-
 0.0213451,0.0766417,-0.0442941,-0.0488627\Polar=35.7347704,0.,35.73619
 94,0.,0.,32.3235497\PG=D03H [3C2(C1),3SGV(H2)]\NImag=0\\0.22408867,-0.
 00000006,0.63320099,0.,0.,0.67062986,-0.06792398,-0.11454200,0.,0.5309
 2285,-0.06643097,-0.17240884,0.,0.17715086,0.32636681,0.,0.,-0.0750600
 7,0.,0.,0.67062986,-0.06792403,0.11454203,0.,-0.22465122,-0.02405555,0
 .,0.53092296,0.06643100,-0.17240879,0.,0.02405548,-0.01568160,0.,-0.17
 715080,0.32636670,0.,0.,-0.07506007,0.,0.,-0.07506007,0.,0.,0.67062986
 ,-0.03509640,0.00000001,0.00000002,-0.00096407,-0.01078159,-0.02444106
 ,-0.00096408,0.01078160,0.02444106,0.03667917,0.00000001,-0.12984639,-
 0.12719221,0.00205131,-0.01071999,-0.01318451,-0.00205130,-0.01071999,
 -0.01318451,-0.00000002,0.14078277,0.00000002,-0.13166720,-0.26497212,
 0.00040854,0.00298598,0.00237229,-0.00040854,0.00298598,0.00237229,-0.
 00000002,0.13935506,0.27302510,-0.03509640,0.00000001,-0.00000002,-0.0
 0096407,-0.01078159,0.02444106,-0.00096408,0.01078160,-0.02444106,-0.0
 0084537,0.,0.,0.03667917,0.00000001,-0.12984639,0.12719220,0.00205131,
 -0.01071999,0.01318451,-0.00205130,-0.01071999,0.01318450,0.,0.0117779
 6,-0.01426966,-0.00000002,0.14078277,-0.00000002,0.13166720,-0.2649721
 2,-0.00040854,-0.00298598,0.00237229,0.00040854,-0.00298598,0.00237229
 ,0.,0.01426966,-0.01636167,0.00000002,-0.13935506,0.27302510,-0.004500
 68,0.00000944,-0.00080242,-0.10615888,-0.04102796,0.11015167,-0.012061
 34,-0.00845832,0.02363865,0.00051449,-0.00110029,0.00046512,0.00008311
 ,0.00110711,-0.00009173,0.11475685,-0.01282346,-0.00718338,0.02775883,
 -0.04102796,-0.05878391,0.06359612,0.00437458,0.00037727,-0.01457432,0
 .00303900,0.00163380,-0.00014311,-0.00518931,-0.00227375,-0.00044930,0
 .04507819,0.06270508,-0.00238166,-0.00184679,0.00237229,0.11402713,0.0
 6583362,-0.26497212,-0.00279020,-0.00113919,0.00237229,0.00035650,-0.0
 0033126,0.00120901,-0.00034324,-0.00030409,0.00055938,-0.12068501,-0.0
 6967755,0.27302510,-0.00450068,0.00000944,0.00080242,-0.10615888,-0.04
 102796,-0.11015167,-0.01206134,-0.00845832,-0.02363865,0.00008311,0.00
 110711,0.00009173,0.00051449,-0.00110029,-0.00046512,0.00862213,0.0054
 6607,0.01235789,0.11475685,-0.01282346,-0.00718338,-0.02775883,-0.0410
 2796,-0.05878391,-0.06359612,0.00437458,0.00037727,0.01457432,-0.00518
 931,-0.00227375,0.00044930,0.00303900,0.00163380,0.00014311,0.00546607
 ,0.00231046,0.00713483,0.04507819,0.06270508,0.00238166,0.00184679,0.0
 0237229,-0.11402713,-0.06583362,-0.26497212,0.00279020,0.00113919,0.00
 237229,0.00034324,0.00030409,0.00055938,-0.00035650,0.00033126,0.00120
 901,-0.01235789,-0.00713483,-0.01636167,0.12068501,0.06967755,0.273025
 10,-0.00450069,-0.00000944,0.00080241,-0.01206134,0.00845831,-0.023638
 65,-0.10615891,0.04102794,-0.11015169,0.00051449,0.00110029,-0.0004651
 2,0.00008311,-0.00110711,0.00009173,0.00219346,-0.00206964,-0.00010863
 ,-0.00345218,0.00314821,0.00043497,0.11475688,0.01282346,-0.00718338,0
 .02775883,-0.00437459,0.00037727,-0.01457433,0.04102794,-0.05878388,0.
 06359609,-0.00303900,0.00163380,-0.00014311,0.00518931,-0.00227375,-0.
 00044930,0.00206964,-0.00004517,0.00047436,-0.00314821,0.00126154,0.00
 014521,-0.04507817,0.06270506,0.00238166,-0.00184679,0.00237229,0.0027
 9020,-0.00113918,0.00237229,-0.11402715,0.06583358,-0.26497212,-0.0003
 5650,-0.00033126,0.00120901,0.00034324,-0.00030409,0.00055938,0.000108
 63,0.00047436,0.00120901,0.00043497,-0.00014521,0.00055938,0.12068504,
 -0.06967751,0.27302510,-0.00450069,-0.00000944,-0.00080241,-0.01206134
 ,0.00845831,0.02363865,-0.10615891,0.04102794,0.11015169,0.00008311,-0
 .00110711,-0.00009173,0.00051449,0.00110029,0.00046512,-0.00345218,0.0
 0314821,-0.00043497,0.00219346,-0.00206964,0.00010863,0.00862213,-0.00
 546606,-0.01235789,0.11475688,0.01282346,-0.00718338,-0.02775883,-0.00
 437459,0.00037727,0.01457433,0.04102794,-0.05878388,-0.06359608,0.0051
 8931,-0.00227375,0.00044930,-0.00303900,0.00163380,0.00014311,-0.00314
 821,0.00126154,-0.00014521,0.00206964,-0.00004517,-0.00047436,-0.00546
 606,0.00231046,0.00713483,-0.04507817,0.06270506,-0.00238166,0.0018467
 9,0.00237229,-0.00279020,0.00113918,0.00237229,0.11402715,-0.06583358,
 -0.26497212,-0.00034324,0.00030409,0.00055938,0.00035650,0.00033126,0.
 00120901,-0.00043497,0.00014521,0.00055938,-0.00010863,-0.00047436,0.0
 0120901,0.01235789,-0.00713483,-0.01636167,-0.12068504,0.06967751,0.27
 302510\\0.,-0.00000102,0.,0.00000089,0.00000051,0.,-0.00000089,0.00000
 051,0.,0.,-0.00000056,0.00000004,0.,-0.00000056,-0.00000004,0.00000049
 ,0.00000028,0.00000004,0.00000049,0.00000028,-0.00000004,-0.00000049,0
 .00000028,0.00000004,-0.00000049,0.00000028,-0.00000004\\\@


 THE LENGTH OF A MEETING IS PROPORTIONAL TO THE
 SQUARE OF THE PARTICIPANTS.
 Job cpu time:       0 days  0 hours 17 minutes 10.4 seconds.
 File lengths (MBytes):  RWF=     10 Int=      0 D2E=      0 Chk=      2 Scr=      1
 Normal termination of Gaussian 09 at Fri Jul  9 19:32:00 2021.
