 Entering Gaussian System, Link 0=g09
 Initial command:
 /home/minenky/programs//g09/l1.exe "/local/scratch/minenky/m1_00_463-82-10_C5H12_wB97XD/Gau-142052.inp" -scrdir="/local/scratch/minenky/m1_00_463-82-10_C5H12_wB97XD/"
 Entering Link 1 = /home/minenky/programs//g09/l1.exe PID=    142053.
  
 Copyright (c) 1988,1990,1992,1993,1995,1998,2003,2009,2013,
            Gaussian, Inc.  All Rights Reserved.
  
 This is part of the Gaussian(R) 09 program.  It is based on
 the Gaussian(R) 03 system (copyright 2003, Gaussian, Inc.),
 the Gaussian(R) 98 system (copyright 1998, Gaussian, Inc.),
 the Gaussian(R) 94 system (copyright 1995, Gaussian, Inc.),
 the Gaussian 92(TM) system (copyright 1992, Gaussian, Inc.),
 the Gaussian 90(TM) system (copyright 1990, Gaussian, Inc.),
 the Gaussian 88(TM) system (copyright 1988, Gaussian, Inc.),
 the Gaussian 86(TM) system (copyright 1986, Carnegie Mellon
 University), and the Gaussian 82(TM) system (copyright 1983,
 Carnegie Mellon University). Gaussian is a federally registered
 trademark of Gaussian, Inc.
  
 This software contains proprietary and confidential information,
 including trade secrets, belonging to Gaussian, Inc.
  
 This software is provided under written license and may be
 used, copied, transmitted, or stored only in accord with that
 written license.
  
 The following legend is applicable only to US Government
 contracts under FAR:
  
                    RESTRICTED RIGHTS LEGEND
  
 Use, reproduction and disclosure by the US Government is
 subject to restrictions as set forth in subparagraphs (a)
 and (c) of the Commercial Computer Software - Restricted
 Rights clause in FAR 52.227-19.
  
 Gaussian, Inc.
 340 Quinnipiac St., Bldg. 40, Wallingford CT 06492
  
  
 ---------------------------------------------------------------
 Warning -- This program may not be used in any manner that
 competes with the business of Gaussian, Inc. or will provide
 assistance to any competitor of Gaussian, Inc.  The licensee
 of this program is prohibited from giving any competitor of
 Gaussian, Inc. access to this program.  By using this program,
 the user acknowledges that Gaussian, Inc. is engaged in the
 business of creating and licensing software in the field of
 computational chemistry and represents and warrants to the
 licensee that it is not a competitor of Gaussian, Inc. and that
 it will not use this program in any manner prohibited above.
 ---------------------------------------------------------------
  

 Cite this work as:
 Gaussian 09, Revision D.01,
 M. J. Frisch, G. W. Trucks, H. B. Schlegel, G. E. Scuseria, 
 M. A. Robb, J. R. Cheeseman, G. Scalmani, V. Barone, B. Mennucci, 
 G. A. Petersson, H. Nakatsuji, M. Caricato, X. Li, H. P. Hratchian, 
 A. F. Izmaylov, J. Bloino, G. Zheng, J. L. Sonnenberg, M. Hada, 
 M. Ehara, K. Toyota, R. Fukuda, J. Hasegawa, M. Ishida, T. Nakajima, 
 Y. Honda, O. Kitao, H. Nakai, T. Vreven, J. A. Montgomery, Jr., 
 J. E. Peralta, F. Ogliaro, M. Bearpark, J. J. Heyd, E. Brothers, 
 K. N. Kudin, V. N. Staroverov, T. Keith, R. Kobayashi, J. Normand, 
 K. Raghavachari, A. Rendell, J. C. Burant, S. S. Iyengar, J. Tomasi, 
 M. Cossi, N. Rega, J. M. Millam, M. Klene, J. E. Knox, J. B. Cross, 
 V. Bakken, C. Adamo, J. Jaramillo, R. Gomperts, R. E. Stratmann, 
 O. Yazyev, A. J. Austin, R. Cammi, C. Pomelli, J. W. Ochterski, 
 R. L. Martin, K. Morokuma, V. G. Zakrzewski, G. A. Voth, 
 P. Salvador, J. J. Dannenberg, S. Dapprich, A. D. Daniels, 
 O. Farkas, J. B. Foresman, J. V. Ortiz, J. Cioslowski, 
 and D. J. Fox, Gaussian, Inc., Wallingford CT, 2013.
 
 ******************************************
 Gaussian 09:  AM64L-G09RevD.01 24-Apr-2013
                10-Jul-2021 
 ******************************************
 %Mem=32000MB
 %NProcShared=16
 Will use up to   16 processors via shared memory.
 %Chk=m1_00_463-82-10_C5H12_wB97XD
 ----------------------------------------------------------------------
 #P wB97XD/def2tzvp geom=checkpoint freq integral(Grid=ultrafine) # SCF
 (MaxCycle=380) 5d 7f GFPrint
 ----------------------------------------------------------------------
 1/10=4,29=2,30=1,38=1/1,3;
 2/12=2,40=1/2;
 3/5=44,7=101,8=11,11=2,14=-4,16=1,24=100,25=1,30=1,71=2,74=-58,75=-5,140=1/1,2,3;
 4//1;
 5/5=2,7=380,38=5,98=1/2;
 8/6=4,10=90,11=11/1;
 11/6=1,8=1,9=11,15=111,16=1/1,2,10;
 10/6=1/2;
 6/7=2,8=2,9=2,10=2,18=1,28=1/1;
 7/8=1,10=1,25=1/1,2,3,16;
 1/10=4,30=1/3;
 99//99;
 Leave Link    1 at Sat Jul 10 19:48:47 2021, MaxMem=  4194304000 cpu:         1.2
 (Enter /home/minenky/programs//g09/l101.exe)
 ---------------------------------------
 The PBEPBE optimization and frequencies
 ---------------------------------------
 Structure from the checkpoint file:  "m1_00_463-82-10_C5H12_wB97XD.chk"
 Charge =  0 Multiplicity = 1
 Redundant internal coordinates found in file.
 C,0,0.0000094149,0.0000148224,0.0000331133
 C,0,0.8723785665,1.249955302,-0.1347114515
 H,0,1.6433539959,1.2745908809,0.6392805091
 H,0,1.3710834826,1.2763590066,-1.1066471553
 H,0,0.272269426,2.1582630979,-0.0402398856
 C,0,0.8734623055,-1.248866788,-0.1373965896
 H,0,1.644331637,-1.2746674088,0.6366682895
 H,0,0.2740802094,-2.1578788873,-0.0451001686
 H,0,1.3723799163,-1.2726613909,-1.1092883143
 C,0,-1.0653219207,0.0007190713,-1.0984165607
 H,0,-1.7035826999,-0.8832305393,-1.0253880914
 H,0,-1.7045492019,0.883779585,-1.0233488204
 H,0,-0.6055091514,0.0020939674,-2.0896984714
 C,0,-0.6805070987,-0.0017706809,1.3705728605
 H,0,-1.3118651565,0.881343739,1.49534082
 H,0,-1.3111364143,-0.8856743079,1.4933911815
 H,0,0.0591196894,-0.0023694691,2.1749497348
 Recover connectivity data from disk.
 NAtoms=     17 NQM=       17 NQMF=       0 NMMI=      0 NMMIF=      0
                NMic=       0 NMicF=      0.
                    Isotopes and Nuclear Properties:
 (Nuclear quadrupole moments (NQMom) in fm**2, nuclear magnetic moments (NMagM)
  in nuclear magnetons)

  Atom         1           2           3           4           5           6           7           8           9          10
 IAtWgt=          12          12           1           1           1          12           1           1           1          12
 AtmWgt=  12.0000000  12.0000000   1.0078250   1.0078250   1.0078250  12.0000000   1.0078250   1.0078250   1.0078250  12.0000000
 NucSpn=           0           0           1           1           1           0           1           1           1           0
 AtZEff=  -3.6000000  -3.6000000  -1.0000000  -1.0000000  -1.0000000  -3.6000000  -1.0000000  -1.0000000  -1.0000000  -3.6000000
 NQMom=    0.0000000   0.0000000   0.0000000   0.0000000   0.0000000   0.0000000   0.0000000   0.0000000   0.0000000   0.0000000
 NMagM=    0.0000000   0.0000000   2.7928460   2.7928460   2.7928460   0.0000000   2.7928460   2.7928460   2.7928460   0.0000000
 AtZNuc=   6.0000000   6.0000000   1.0000000   1.0000000   1.0000000   6.0000000   1.0000000   1.0000000   1.0000000   6.0000000

  Atom        11          12          13          14          15          16          17
 IAtWgt=           1           1           1          12           1           1           1
 AtmWgt=   1.0078250   1.0078250   1.0078250  12.0000000   1.0078250   1.0078250   1.0078250
 NucSpn=           1           1           1           0           1           1           1
 AtZEff=  -1.0000000  -1.0000000  -1.0000000  -3.6000000  -1.0000000  -1.0000000  -1.0000000
 NQMom=    0.0000000   0.0000000   0.0000000   0.0000000   0.0000000   0.0000000   0.0000000
 NMagM=    2.7928460   2.7928460   2.7928460   0.0000000   2.7928460   2.7928460   2.7928460
 AtZNuc=   1.0000000   1.0000000   1.0000000   6.0000000   1.0000000   1.0000000   1.0000000
 Leave Link  101 at Sat Jul 10 19:48:47 2021, MaxMem=  4194304000 cpu:         1.5
 (Enter /home/minenky/programs//g09/l103.exe)

 GradGradGradGradGradGradGradGradGradGradGradGradGradGradGradGradGradGrad
 Berny optimization.
 Initialization pass.
                           ----------------------------
                           !    Initial Parameters    !
                           ! (Angstroms and Degrees)  !
 --------------------------                            --------------------------
 ! Name  Definition              Value          Derivative Info.                !
 --------------------------------------------------------------------------------
 ! R1    R(1,2)                  1.5302         calculate D2E/DX2 analytically  !
 ! R2    R(1,6)                  1.5302         calculate D2E/DX2 analytically  !
 ! R3    R(1,10)                 1.5302         calculate D2E/DX2 analytically  !
 ! R4    R(1,14)                 1.5302         calculate D2E/DX2 analytically  !
 ! R5    R(2,3)                  1.0927         calculate D2E/DX2 analytically  !
 ! R6    R(2,4)                  1.0927         calculate D2E/DX2 analytically  !
 ! R7    R(2,5)                  1.0927         calculate D2E/DX2 analytically  !
 ! R8    R(6,7)                  1.0927         calculate D2E/DX2 analytically  !
 ! R9    R(6,8)                  1.0927         calculate D2E/DX2 analytically  !
 ! R10   R(6,9)                  1.0927         calculate D2E/DX2 analytically  !
 ! R11   R(10,11)                1.0927         calculate D2E/DX2 analytically  !
 ! R12   R(10,12)                1.0927         calculate D2E/DX2 analytically  !
 ! R13   R(10,13)                1.0927         calculate D2E/DX2 analytically  !
 ! R14   R(14,15)                1.0927         calculate D2E/DX2 analytically  !
 ! R15   R(14,16)                1.0927         calculate D2E/DX2 analytically  !
 ! R16   R(14,17)                1.0927         calculate D2E/DX2 analytically  !
 ! A1    A(2,1,6)              109.472          calculate D2E/DX2 analytically  !
 ! A2    A(2,1,10)             109.4702         calculate D2E/DX2 analytically  !
 ! A3    A(2,1,14)             109.4728         calculate D2E/DX2 analytically  !
 ! A4    A(6,1,10)             109.4694         calculate D2E/DX2 analytically  !
 ! A5    A(6,1,14)             109.4718         calculate D2E/DX2 analytically  !
 ! A6    A(10,1,14)            109.471          calculate D2E/DX2 analytically  !
 ! A7    A(1,2,3)              110.9943         calculate D2E/DX2 analytically  !
 ! A8    A(1,2,4)              110.9923         calculate D2E/DX2 analytically  !
 ! A9    A(1,2,5)              110.9945         calculate D2E/DX2 analytically  !
 ! A10   A(3,2,4)              107.9064         calculate D2E/DX2 analytically  !
 ! A11   A(3,2,5)              107.9083         calculate D2E/DX2 analytically  !
 ! A12   A(4,2,5)              107.9055         calculate D2E/DX2 analytically  !
 ! A13   A(1,6,7)              110.9974         calculate D2E/DX2 analytically  !
 ! A14   A(1,6,8)              110.9927         calculate D2E/DX2 analytically  !
 ! A15   A(1,6,9)              110.9941         calculate D2E/DX2 analytically  !
 ! A16   A(7,6,8)              107.9071         calculate D2E/DX2 analytically  !
 ! A17   A(7,6,9)              107.9044         calculate D2E/DX2 analytically  !
 ! A18   A(8,6,9)              107.9055         calculate D2E/DX2 analytically  !
 ! A19   A(1,10,11)            110.9959         calculate D2E/DX2 analytically  !
 ! A20   A(1,10,12)            110.9974         calculate D2E/DX2 analytically  !
 ! A21   A(1,10,13)            110.9924         calculate D2E/DX2 analytically  !
 ! A22   A(11,10,12)           107.9052         calculate D2E/DX2 analytically  !
 ! A23   A(11,10,13)           107.9041         calculate D2E/DX2 analytically  !
 ! A24   A(12,10,13)           107.9062         calculate D2E/DX2 analytically  !
 ! A25   A(1,14,15)            110.9944         calculate D2E/DX2 analytically  !
 ! A26   A(1,14,16)            110.994          calculate D2E/DX2 analytically  !
 ! A27   A(1,14,17)            110.9955         calculate D2E/DX2 analytically  !
 ! A28   A(15,14,16)           107.9054         calculate D2E/DX2 analytically  !
 ! A29   A(15,14,17)           107.9067         calculate D2E/DX2 analytically  !
 ! A30   A(16,14,17)           107.9053         calculate D2E/DX2 analytically  !
 ! D1    D(6,1,2,3)            -59.9971         calculate D2E/DX2 analytically  !
 ! D2    D(6,1,2,4)             60.0019         calculate D2E/DX2 analytically  !
 ! D3    D(6,1,2,5)            180.0            calculate D2E/DX2 analytically  !
 ! D4    D(10,1,2,3)          -179.9948         calculate D2E/DX2 analytically  !
 ! D5    D(10,1,2,4)           -59.9958         calculate D2E/DX2 analytically  !
 ! D6    D(10,1,2,5)            60.0023         calculate D2E/DX2 analytically  !
 ! D7    D(14,1,2,3)            60.0051         calculate D2E/DX2 analytically  !
 ! D8    D(14,1,2,4)          -179.9959         calculate D2E/DX2 analytically  !
 ! D9    D(14,1,2,5)           -59.9979         calculate D2E/DX2 analytically  !
 ! D10   D(2,1,6,7)             60.0107         calculate D2E/DX2 analytically  !
 ! D11   D(2,1,6,8)           -179.9871         calculate D2E/DX2 analytically  !
 ! D12   D(2,1,6,9)            -59.9891         calculate D2E/DX2 analytically  !
 ! D13   D(10,1,6,7)          -179.9911         calculate D2E/DX2 analytically  !
 ! D14   D(10,1,6,8)           -59.989          calculate D2E/DX2 analytically  !
 ! D15   D(10,1,6,9)            60.0091         calculate D2E/DX2 analytically  !
 ! D16   D(14,1,6,7)           -59.9921         calculate D2E/DX2 analytically  !
 ! D17   D(14,1,6,8)            60.0101         calculate D2E/DX2 analytically  !
 ! D18   D(14,1,6,9)          -179.9919         calculate D2E/DX2 analytically  !
 ! D19   D(2,1,10,11)          179.9904         calculate D2E/DX2 analytically  !
 ! D20   D(2,1,10,12)          -60.0077         calculate D2E/DX2 analytically  !
 ! D21   D(2,1,10,13)           59.9932         calculate D2E/DX2 analytically  !
 ! D22   D(6,1,10,11)           59.9912         calculate D2E/DX2 analytically  !
 ! D23   D(6,1,10,12)          179.9931         calculate D2E/DX2 analytically  !
 ! D24   D(6,1,10,13)          -60.006          calculate D2E/DX2 analytically  !
 ! D25   D(14,1,10,11)         -60.0083         calculate D2E/DX2 analytically  !
 ! D26   D(14,1,10,12)          59.9936         calculate D2E/DX2 analytically  !
 ! D27   D(14,1,10,13)         179.9945         calculate D2E/DX2 analytically  !
 ! D28   D(2,1,14,15)           59.9976         calculate D2E/DX2 analytically  !
 ! D29   D(2,1,14,16)          179.9965         calculate D2E/DX2 analytically  !
 ! D30   D(2,1,14,17)          -60.004          calculate D2E/DX2 analytically  !
 ! D31   D(6,1,14,15)          179.9999         calculate D2E/DX2 analytically  !
 ! D32   D(6,1,14,16)          -60.0012         calculate D2E/DX2 analytically  !
 ! D33   D(6,1,14,17)           59.9983         calculate D2E/DX2 analytically  !
 ! D34   D(10,1,14,15)         -60.0021         calculate D2E/DX2 analytically  !
 ! D35   D(10,1,14,16)          59.9968         calculate D2E/DX2 analytically  !
 ! D36   D(10,1,14,17)         179.9964         calculate D2E/DX2 analytically  !
 --------------------------------------------------------------------------------
 Trust Radius=3.00D-01 FncErr=1.00D-07 GrdErr=1.00D-07
 Number of steps in this run=      2 maximum allowed number of steps=      2.
 GradGradGradGradGradGradGradGradGradGradGradGradGradGradGradGradGradGrad

 Leave Link  103 at Sat Jul 10 19:48:47 2021, MaxMem=  4194304000 cpu:         0.0
 (Enter /home/minenky/programs//g09/l202.exe)
                          Input orientation:                          
 ---------------------------------------------------------------------
 Center     Atomic      Atomic             Coordinates (Angstroms)
 Number     Number       Type             X           Y           Z
 ---------------------------------------------------------------------
      1          6           0        0.000009    0.000015    0.000033
      2          6           0        0.872379    1.249955   -0.134711
      3          1           0        1.643354    1.274591    0.639281
      4          1           0        1.371083    1.276359   -1.106647
      5          1           0        0.272269    2.158263   -0.040240
      6          6           0        0.873462   -1.248867   -0.137397
      7          1           0        1.644332   -1.274667    0.636668
      8          1           0        0.274080   -2.157879   -0.045100
      9          1           0        1.372380   -1.272661   -1.109288
     10          6           0       -1.065322    0.000719   -1.098417
     11          1           0       -1.703583   -0.883231   -1.025388
     12          1           0       -1.704549    0.883780   -1.023349
     13          1           0       -0.605509    0.002094   -2.089698
     14          6           0       -0.680507   -0.001771    1.370573
     15          1           0       -1.311865    0.881344    1.495341
     16          1           0       -1.311136   -0.885674    1.493391
     17          1           0        0.059120   -0.002369    2.174950
 ---------------------------------------------------------------------
                    Distance matrix (angstroms):
                    1          2          3          4          5
     1  C    0.000000
     2  C    1.530208   0.000000
     3  H    2.175721   1.092737   0.000000
     4  H    2.175693   1.092732   1.767031   0.000000
     5  H    2.175726   1.092739   1.767059   1.767023   0.000000
     6  C    1.530200   2.498824   2.750236   2.750243   3.461128
     7  H    2.175756   2.750392   2.549260   3.101862   3.758427
     8  H    2.175697   3.461116   3.758342   3.758229   4.316145
     9  H    2.175707   2.750163   3.101518   2.549022   3.758238
    10  C    1.530204   2.498800   3.461108   2.750163   2.750252
    11  H    2.175738   3.461122   4.316167   3.758191   3.758350
    12  H    2.175746   2.750330   3.758394   3.101705   2.549240
    13  H    2.175692   2.750143   3.758186   2.548933   3.101587
    14  C    1.530191   2.498830   2.750312   3.461107   2.750258
    15  H    2.175707   2.750248   3.101742   3.758270   2.549120
    16  H    2.175699   3.461123   3.758359   4.316120   3.758291
    17  H    2.175721   2.750317   2.549256   3.758361   3.101746
                    6          7          8          9         10
     6  C    0.000000
     7  H    1.092740   0.000000
     8  H    1.092740   1.767048   0.000000
     9  H    1.092730   1.767011   1.767023   0.000000
    10  C    2.498781   3.461120   2.750094   2.750274   0.000000
    11  H    2.750160   3.758216   2.548891   3.101651   1.092738
    12  H    3.461103   4.316197   3.758142   3.758340   1.092723
    13  H    2.750226   3.758321   3.101539   2.549167   1.092735
    14  C    2.498808   2.750229   2.750304   3.461101   2.498799
    15  H    3.461110   3.758298   3.758331   4.316133   2.750247
    16  H    2.750245   3.101626   2.549190   3.758319   2.750197
    17  H    2.750246   2.549107   3.101782   3.758259   3.461113
                   11         12         13         14         15
    11  H    0.000000
    12  H    1.767012   0.000000
    13  H    1.767009   1.767020   0.000000
    14  C    2.750324   2.750222   3.461086   0.000000
    15  H    3.101812   2.549118   3.758261   1.092736   0.000000
    16  H    2.549170   3.101567   3.758267   1.092732   1.767019
    17  H    3.758350   3.758311   4.316130   1.092735   1.767036
                   16         17
    16  H    0.000000
    17  H    1.767018   0.000000
 Stoichiometry    C5H12
 Framework group  C1[X(C5H12)]
 Deg. of freedom    45
 Full point group                 C1      NOp   1
 RotChk:  IX=0 Diff= 6.08D-11
 Largest Abelian subgroup         C1      NOp   1
 Largest concise Abelian subgroup C1      NOp   1
                         Standard orientation:                         
 ---------------------------------------------------------------------
 Center     Atomic      Atomic             Coordinates (Angstroms)
 Number     Number       Type             X           Y           Z
 ---------------------------------------------------------------------
      1          6           0       -0.000003   -0.000020   -0.000016
      2          6           0        1.370717   -0.556179   -0.391614
      3          1           0        1.365102   -0.922249   -1.421194
      4          1           0        2.142477    0.213398   -0.312865
      5          1           0        1.656657   -1.386506    0.258675
      6          6           0       -0.365344    1.158332   -0.930745
      7          1           0       -0.406129    0.826750   -1.971164
      8          1           0       -1.341905    1.575058   -0.672388
      9          1           0        0.371583    1.962330   -0.863036
     10          6           0        0.047024    0.501928    1.444754
     11          1           0       -0.921267    0.905486    1.750746
     12          1           0        0.306194   -0.307054    2.132083
     13          1           0        0.792248    1.292715    1.560372
     14          6           0       -1.052393   -1.104096   -0.122399
     15          1           0       -0.815220   -1.945449    0.533304
     16          1           0       -2.042851   -0.733022    0.152119
     17          1           0       -1.106899   -1.481248   -1.146535
 ---------------------------------------------------------------------
 Rotational constants (GHZ):      4.4686721      4.4686411      4.4685900
 Leave Link  202 at Sat Jul 10 19:48:47 2021, MaxMem=  4194304000 cpu:         0.4
 (Enter /home/minenky/programs//g09/l301.exe)
 Standard basis: def2TZVP (5D, 7F)
 ======================================================================================================
                                       Pseudopotential Parameters
 ======================================================================================================
  Center     Atomic      Valence      Angular      Power
  Number     Number     Electrons     Momentum     of R      Exponent        Coefficient   SO-Coeffient
 ======================================================================================================
    1          6
                                   No pseudopotential on this center.
    2          6
                                   No pseudopotential on this center.
    3          1
                                   No pseudopotential on this center.
    4          1
                                   No pseudopotential on this center.
    5          1
                                   No pseudopotential on this center.
    6          6
                                   No pseudopotential on this center.
    7          1
                                   No pseudopotential on this center.
    8          1
                                   No pseudopotential on this center.
    9          1
                                   No pseudopotential on this center.
   10          6
                                   No pseudopotential on this center.
   11          1
                                   No pseudopotential on this center.
   12          1
                                   No pseudopotential on this center.
   13          1
                                   No pseudopotential on this center.
   14          6
                                   No pseudopotential on this center.
   15          1
                                   No pseudopotential on this center.
   16          1
                                   No pseudopotential on this center.
   17          1
                                   No pseudopotential on this center.
 ======================================================================================================
 Ernie: Thresh=  0.10000D-02 Tol=  0.10000D-05 Strict=F.
 AO basis set (Overlap normalization):
 Atom C1       Shell     1 S   6     bf    1 -     1         -0.000005185350         -0.000038530186         -0.000029750775
      0.1357534968D+05  0.6064550360D-03
      0.2035233368D+04  0.4697908888D-02
      0.4632256236D+03  0.2433247765D-01
      0.1312001960D+03  0.9739996831D-01
      0.4285301589D+02  0.3019558425D+00
      0.1558418577D+02  0.6623360914D+00
 Atom C1       Shell     2 S   2     bf    2 -     2         -0.000005185350         -0.000038530186         -0.000029750775
      0.6206713851D+01  0.6559530854D+00
      0.2576489653D+01  0.3758563329D+00
 Atom C1       Shell     3 S   1     bf    3 -     3         -0.000005185350         -0.000038530186         -0.000029750775
      0.5769633942D+00  0.1000000000D+01
 Atom C1       Shell     4 S   1     bf    4 -     4         -0.000005185350         -0.000038530186         -0.000029750775
      0.2297283136D+00  0.1000000000D+01
 Atom C1       Shell     5 S   1     bf    5 -     5         -0.000005185350         -0.000038530186         -0.000029750775
      0.9516444003D-01  0.1000000000D+01
 Atom C1       Shell     6 P   4     bf    6 -     8         -0.000005185350         -0.000038530186         -0.000029750775
      0.3469723224D+02  0.1132722000D-01
      0.7958262283D+01  0.7616965920D-01
      0.2378082688D+01  0.3019225220D+00
      0.8143320818D+00  0.7278502735D+00
 Atom C1       Shell     7 P   1     bf    9 -    11         -0.000005185350         -0.000038530186         -0.000029750775
      0.2888754725D+00  0.1000000000D+01
 Atom C1       Shell     8 P   1     bf   12 -    14         -0.000005185350         -0.000038530186         -0.000029750775
      0.1005682367D+00  0.1000000000D+01
 Atom C1       Shell     9 D   1     bf   15 -    19         -0.000005185350         -0.000038530186         -0.000029750775
      0.1097000000D+01  0.1000000000D+01
 Atom C1       Shell    10 D   1     bf   20 -    24         -0.000005185350         -0.000038530186         -0.000029750775
      0.3180000000D+00  0.1000000000D+01
 Atom C1       Shell    11 F   1     bf   25 -    31         -0.000005185350         -0.000038530186         -0.000029750775
      0.7610000000D+00  0.1000000000D+01
 Atom C2       Shell    12 S   6     bf   32 -    32          2.590280545979         -1.051026306423         -0.740042400014
      0.1357534968D+05  0.6064550360D-03
      0.2035233368D+04  0.4697908888D-02
      0.4632256236D+03  0.2433247765D-01
      0.1312001960D+03  0.9739996831D-01
      0.4285301589D+02  0.3019558425D+00
      0.1558418577D+02  0.6623360914D+00
 Atom C2       Shell    13 S   2     bf   33 -    33          2.590280545979         -1.051026306423         -0.740042400014
      0.6206713851D+01  0.6559530854D+00
      0.2576489653D+01  0.3758563329D+00
 Atom C2       Shell    14 S   1     bf   34 -    34          2.590280545979         -1.051026306423         -0.740042400014
      0.5769633942D+00  0.1000000000D+01
 Atom C2       Shell    15 S   1     bf   35 -    35          2.590280545979         -1.051026306423         -0.740042400014
      0.2297283136D+00  0.1000000000D+01
 Atom C2       Shell    16 S   1     bf   36 -    36          2.590280545979         -1.051026306423         -0.740042400014
      0.9516444003D-01  0.1000000000D+01
 Atom C2       Shell    17 P   4     bf   37 -    39          2.590280545979         -1.051026306423         -0.740042400014
      0.3469723224D+02  0.1132722000D-01
      0.7958262283D+01  0.7616965920D-01
      0.2378082688D+01  0.3019225220D+00
      0.8143320818D+00  0.7278502735D+00
 Atom C2       Shell    18 P   1     bf   40 -    42          2.590280545979         -1.051026306423         -0.740042400014
      0.2888754725D+00  0.1000000000D+01
 Atom C2       Shell    19 P   1     bf   43 -    45          2.590280545979         -1.051026306423         -0.740042400014
      0.1005682367D+00  0.1000000000D+01
 Atom C2       Shell    20 D   1     bf   46 -    50          2.590280545979         -1.051026306423         -0.740042400014
      0.1097000000D+01  0.1000000000D+01
 Atom C2       Shell    21 D   1     bf   51 -    55          2.590280545979         -1.051026306423         -0.740042400014
      0.3180000000D+00  0.1000000000D+01
 Atom C2       Shell    22 F   1     bf   56 -    62          2.590280545979         -1.051026306423         -0.740042400014
      0.7610000000D+00  0.1000000000D+01
 Atom H3       Shell    23 S   3     bf   63 -    63          2.579668903801         -1.742797771927         -2.685666677687
      0.3406134100D+02  0.2543930721D-01
      0.5123574600D+01  0.1900859489D+00
      0.1164662600D+01  0.8524411301D+00
 Atom H3       Shell    24 S   1     bf   64 -    64          2.579668903801         -1.742797771927         -2.685666677687
      0.3272304100D+00  0.1000000000D+01
 Atom H3       Shell    25 S   1     bf   65 -    65          2.579668903801         -1.742797771927         -2.685666677687
      0.1030724100D+00  0.1000000000D+01
 Atom H3       Shell    26 P   1     bf   66 -    68          2.579668903801         -1.742797771927         -2.685666677687
      0.8000000000D+00  0.1000000000D+01
 Atom H4       Shell    27 S   3     bf   69 -    69          4.048694010106          0.403264007082         -0.591229039866
      0.3406134100D+02  0.2543930721D-01
      0.5123574600D+01  0.1900859489D+00
      0.1164662600D+01  0.8524411301D+00
 Atom H4       Shell    28 S   1     bf   70 -    70          4.048694010106          0.403264007082         -0.591229039866
      0.3272304100D+00  0.1000000000D+01
 Atom H4       Shell    29 S   1     bf   71 -    71          4.048694010106          0.403264007082         -0.591229039866
      0.1030724100D+00  0.1000000000D+01
 Atom H4       Shell    30 P   1     bf   72 -    74          4.048694010106          0.403264007082         -0.591229039866
      0.8000000000D+00  0.1000000000D+01
 Atom H5       Shell    31 S   3     bf   75 -    75          3.130627328883         -2.620116254742          0.488825094334
      0.3406134100D+02  0.2543930721D-01
      0.5123574600D+01  0.1900859489D+00
      0.1164662600D+01  0.8524411301D+00
 Atom H5       Shell    32 S   1     bf   76 -    76          3.130627328883         -2.620116254742          0.488825094334
      0.3272304100D+00  0.1000000000D+01
 Atom H5       Shell    33 S   1     bf   77 -    77          3.130627328883         -2.620116254742          0.488825094334
      0.1030724100D+00  0.1000000000D+01
 Atom H5       Shell    34 P   1     bf   78 -    80          3.130627328883         -2.620116254742          0.488825094334
      0.8000000000D+00  0.1000000000D+01
 Atom C6       Shell    35 S   6     bf   81 -    81         -0.690399403184          2.188930628810         -1.758853677251
      0.1357534968D+05  0.6064550360D-03
      0.2035233368D+04  0.4697908888D-02
      0.4632256236D+03  0.2433247765D-01
      0.1312001960D+03  0.9739996831D-01
      0.4285301589D+02  0.3019558425D+00
      0.1558418577D+02  0.6623360914D+00
 Atom C6       Shell    36 S   2     bf   82 -    82         -0.690399403184          2.188930628810         -1.758853677251
      0.6206713851D+01  0.6559530854D+00
      0.2576489653D+01  0.3758563329D+00
 Atom C6       Shell    37 S   1     bf   83 -    83         -0.690399403184          2.188930628810         -1.758853677251
      0.5769633942D+00  0.1000000000D+01
 Atom C6       Shell    38 S   1     bf   84 -    84         -0.690399403184          2.188930628810         -1.758853677251
      0.2297283136D+00  0.1000000000D+01
 Atom C6       Shell    39 S   1     bf   85 -    85         -0.690399403184          2.188930628810         -1.758853677251
      0.9516444003D-01  0.1000000000D+01
 Atom C6       Shell    40 P   4     bf   86 -    88         -0.690399403184          2.188930628810         -1.758853677251
      0.3469723224D+02  0.1132722000D-01
      0.7958262283D+01  0.7616965920D-01
      0.2378082688D+01  0.3019225220D+00
      0.8143320818D+00  0.7278502735D+00
 Atom C6       Shell    41 P   1     bf   89 -    91         -0.690399403184          2.188930628810         -1.758853677251
      0.2888754725D+00  0.1000000000D+01
 Atom C6       Shell    42 P   1     bf   92 -    94         -0.690399403184          2.188930628810         -1.758853677251
      0.1005682367D+00  0.1000000000D+01
 Atom C6       Shell    43 D   1     bf   95 -    99         -0.690399403184          2.188930628810         -1.758853677251
      0.1097000000D+01  0.1000000000D+01
 Atom C6       Shell    44 D   1     bf  100 -   104         -0.690399403184          2.188930628810         -1.758853677251
      0.3180000000D+00  0.1000000000D+01
 Atom C6       Shell    45 F   1     bf  105 -   111         -0.690399403184          2.188930628810         -1.758853677251
      0.7610000000D+00  0.1000000000D+01
 Atom H7       Shell    46 S   3     bf  112 -   112         -0.767473050493          1.562331521758         -3.724960535123
      0.3406134100D+02  0.2543930721D-01
      0.5123574600D+01  0.1900859489D+00
      0.1164662600D+01  0.8524411301D+00
 Atom H7       Shell    47 S   1     bf  113 -   113         -0.767473050493          1.562331521758         -3.724960535123
      0.3272304100D+00  0.1000000000D+01
 Atom H7       Shell    48 S   1     bf  114 -   114         -0.767473050493          1.562331521758         -3.724960535123
      0.1030724100D+00  0.1000000000D+01
 Atom H7       Shell    49 P   1     bf  115 -   117         -0.767473050493          1.562331521758         -3.724960535123
      0.8000000000D+00  0.1000000000D+01
 Atom H8       Shell    50 S   3     bf  118 -   118         -2.535832705145          2.976427840717         -1.270629279816
      0.3406134100D+02  0.2543930721D-01
      0.5123574600D+01  0.1900859489D+00
      0.1164662600D+01  0.8524411301D+00
 Atom H8       Shell    51 S   1     bf  119 -   119         -2.535832705145          2.976427840717         -1.270629279816
      0.3272304100D+00  0.1000000000D+01
 Atom H8       Shell    52 S   1     bf  120 -   120         -2.535832705145          2.976427840717         -1.270629279816
      0.1030724100D+00  0.1000000000D+01
 Atom H8       Shell    53 P   1     bf  121 -   123         -2.535832705145          2.976427840717         -1.270629279816
      0.8000000000D+00  0.1000000000D+01
 Atom H9       Shell    54 S   3     bf  124 -   124          0.702190938964          3.708266277463         -1.630901979109
      0.3406134100D+02  0.2543930721D-01
      0.5123574600D+01  0.1900859489D+00
      0.1164662600D+01  0.8524411301D+00
 Atom H9       Shell    55 S   1     bf  125 -   125          0.702190938964          3.708266277463         -1.630901979109
      0.3272304100D+00  0.1000000000D+01
 Atom H9       Shell    56 S   1     bf  126 -   126          0.702190938964          3.708266277463         -1.630901979109
      0.1030724100D+00  0.1000000000D+01
 Atom H9       Shell    57 P   1     bf  127 -   129          0.702190938964          3.708266277463         -1.630901979109
      0.8000000000D+00  0.1000000000D+01
 Atom C10      Shell    58 S   6     bf  130 -   130          0.088861827659          0.948507221629          2.730188965781
      0.1357534968D+05  0.6064550360D-03
      0.2035233368D+04  0.4697908888D-02
      0.4632256236D+03  0.2433247765D-01
      0.1312001960D+03  0.9739996831D-01
      0.4285301589D+02  0.3019558425D+00
      0.1558418577D+02  0.6623360914D+00
 Atom C10      Shell    59 S   2     bf  131 -   131          0.088861827659          0.948507221629          2.730188965781
      0.6206713851D+01  0.6559530854D+00
      0.2576489653D+01  0.3758563329D+00
 Atom C10      Shell    60 S   1     bf  132 -   132          0.088861827659          0.948507221629          2.730188965781
      0.5769633942D+00  0.1000000000D+01
 Atom C10      Shell    61 S   1     bf  133 -   133          0.088861827659          0.948507221629          2.730188965781
      0.2297283136D+00  0.1000000000D+01
 Atom C10      Shell    62 S   1     bf  134 -   134          0.088861827659          0.948507221629          2.730188965781
      0.9516444003D-01  0.1000000000D+01
 Atom C10      Shell    63 P   4     bf  135 -   137          0.088861827659          0.948507221629          2.730188965781
      0.3469723224D+02  0.1132722000D-01
      0.7958262283D+01  0.7616965920D-01
      0.2378082688D+01  0.3019225220D+00
      0.8143320818D+00  0.7278502735D+00
 Atom C10      Shell    64 P   1     bf  138 -   140          0.088861827659          0.948507221629          2.730188965781
      0.2888754725D+00  0.1000000000D+01
 Atom C10      Shell    65 P   1     bf  141 -   143          0.088861827659          0.948507221629          2.730188965781
      0.1005682367D+00  0.1000000000D+01
 Atom C10      Shell    66 D   1     bf  144 -   148          0.088861827659          0.948507221629          2.730188965781
      0.1097000000D+01  0.1000000000D+01
 Atom C10      Shell    67 D   1     bf  149 -   153          0.088861827659          0.948507221629          2.730188965781
      0.3180000000D+00  0.1000000000D+01
 Atom C10      Shell    68 F   1     bf  154 -   160          0.088861827659          0.948507221629          2.730188965781
      0.7610000000D+00  0.1000000000D+01
 Atom H11      Shell    69 S   3     bf  161 -   161         -1.740942537387          1.711119831517          3.308431151215
      0.3406134100D+02  0.2543930721D-01
      0.5123574600D+01  0.1900859489D+00
      0.1164662600D+01  0.8524411301D+00
 Atom H11      Shell    70 S   1     bf  162 -   162         -1.740942537387          1.711119831517          3.308431151215
      0.3272304100D+00  0.1000000000D+01
 Atom H11      Shell    71 S   1     bf  163 -   163         -1.740942537387          1.711119831517          3.308431151215
      0.1030724100D+00  0.1000000000D+01
 Atom H11      Shell    72 P   1     bf  164 -   166         -1.740942537387          1.711119831517          3.308431151215
      0.8000000000D+00  0.1000000000D+01
 Atom H12      Shell    73 S   3     bf  167 -   167          0.578622989786         -0.580247122368          4.029052915778
      0.3406134100D+02  0.2543930721D-01
      0.5123574600D+01  0.1900859489D+00
      0.1164662600D+01  0.8524411301D+00
 Atom H12      Shell    74 S   1     bf  168 -   168          0.578622989786         -0.580247122368          4.029052915778
      0.3272304100D+00  0.1000000000D+01
 Atom H12      Shell    75 S   1     bf  169 -   169          0.578622989786         -0.580247122368          4.029052915778
      0.1030724100D+00  0.1000000000D+01
 Atom H12      Shell    76 P   1     bf  170 -   172          0.578622989786         -0.580247122368          4.029052915778
      0.8000000000D+00  0.1000000000D+01
 Atom H13      Shell    77 S   3     bf  173 -   173          1.497131058144          2.442876936716          2.948675936968
      0.3406134100D+02  0.2543930721D-01
      0.5123574600D+01  0.1900859489D+00
      0.1164662600D+01  0.8524411301D+00
 Atom H13      Shell    78 S   1     bf  174 -   174          1.497131058144          2.442876936716          2.948675936968
      0.3272304100D+00  0.1000000000D+01
 Atom H13      Shell    79 S   1     bf  175 -   175          1.497131058144          2.442876936716          2.948675936968
      0.1030724100D+00  0.1000000000D+01
 Atom H13      Shell    80 P   1     bf  176 -   178          1.497131058144          2.442876936716          2.948675936968
      0.8000000000D+00  0.1000000000D+01
 Atom C14      Shell    81 S   6     bf  179 -   179         -1.988734242338         -2.086438777768         -0.231300028484
      0.1357534968D+05  0.6064550360D-03
      0.2035233368D+04  0.4697908888D-02
      0.4632256236D+03  0.2433247765D-01
      0.1312001960D+03  0.9739996831D-01
      0.4285301589D+02  0.3019558425D+00
      0.1558418577D+02  0.6623360914D+00
 Atom C14      Shell    82 S   2     bf  180 -   180         -1.988734242338         -2.086438777768         -0.231300028484
      0.6206713851D+01  0.6559530854D+00
      0.2576489653D+01  0.3758563329D+00
 Atom C14      Shell    83 S   1     bf  181 -   181         -1.988734242338         -2.086438777768         -0.231300028484
      0.5769633942D+00  0.1000000000D+01
 Atom C14      Shell    84 S   1     bf  182 -   182         -1.988734242338         -2.086438777768         -0.231300028484
      0.2297283136D+00  0.1000000000D+01
 Atom C14      Shell    85 S   1     bf  183 -   183         -1.988734242338         -2.086438777768         -0.231300028484
      0.9516444003D-01  0.1000000000D+01
 Atom C14      Shell    86 P   4     bf  184 -   186         -1.988734242338         -2.086438777768         -0.231300028484
      0.3469723224D+02  0.1132722000D-01
      0.7958262283D+01  0.7616965920D-01
      0.2378082688D+01  0.3019225220D+00
      0.8143320818D+00  0.7278502735D+00
 Atom C14      Shell    87 P   1     bf  187 -   189         -1.988734242338         -2.086438777768         -0.231300028484
      0.2888754725D+00  0.1000000000D+01
 Atom C14      Shell    88 P   1     bf  190 -   192         -1.988734242338         -2.086438777768         -0.231300028484
      0.1005682367D+00  0.1000000000D+01
 Atom C14      Shell    89 D   1     bf  193 -   197         -1.988734242338         -2.086438777768         -0.231300028484
      0.1097000000D+01  0.1000000000D+01
 Atom C14      Shell    90 D   1     bf  198 -   202         -1.988734242338         -2.086438777768         -0.231300028484
      0.3180000000D+00  0.1000000000D+01
 Atom C14      Shell    91 F   1     bf  203 -   209         -1.988734242338         -2.086438777768         -0.231300028484
      0.7610000000D+00  0.1000000000D+01
 Atom H15      Shell    92 S   3     bf  210 -   210         -1.540543070364         -3.676365311150          1.007797911206
      0.3406134100D+02  0.2543930721D-01
      0.5123574600D+01  0.1900859489D+00
      0.1164662600D+01  0.8524411301D+00
 Atom H15      Shell    93 S   1     bf  211 -   211         -1.540543070364         -3.676365311150          1.007797911206
      0.3272304100D+00  0.1000000000D+01
 Atom H15      Shell    94 S   1     bf  212 -   212         -1.540543070364         -3.676365311150          1.007797911206
      0.1030724100D+00  0.1000000000D+01
 Atom H15      Shell    95 P   1     bf  213 -   215         -1.540543070364         -3.676365311150          1.007797911206
      0.8000000000D+00  0.1000000000D+01
 Atom H16      Shell    96 S   3     bf  216 -   216         -3.860429376752         -1.385211632852          0.287463199811
      0.3406134100D+02  0.2543930721D-01
      0.5123574600D+01  0.1900859489D+00
      0.1164662600D+01  0.8524411301D+00
 Atom H16      Shell    97 S   1     bf  217 -   217         -3.860429376752         -1.385211632852          0.287463199811
      0.3272304100D+00  0.1000000000D+01
 Atom H16      Shell    98 S   1     bf  218 -   218         -3.860429376752         -1.385211632852          0.287463199811
      0.1030724100D+00  0.1000000000D+01
 Atom H16      Shell    99 P   1     bf  219 -   221         -3.860429376752         -1.385211632852          0.287463199811
      0.8000000000D+00  0.1000000000D+01
 Atom H17      Shell   100 S   3     bf  222 -   222         -2.091735746137         -2.799153738588         -2.166637353255
      0.3406134100D+02  0.2543930721D-01
      0.5123574600D+01  0.1900859489D+00
      0.1164662600D+01  0.8524411301D+00
 Atom H17      Shell   101 S   1     bf  223 -   223         -2.091735746137         -2.799153738588         -2.166637353255
      0.3272304100D+00  0.1000000000D+01
 Atom H17      Shell   102 S   1     bf  224 -   224         -2.091735746137         -2.799153738588         -2.166637353255
      0.1030724100D+00  0.1000000000D+01
 Atom H17      Shell   103 P   1     bf  225 -   227         -2.091735746137         -2.799153738588         -2.166637353255
      0.8000000000D+00  0.1000000000D+01
 There are   252 symmetry adapted cartesian basis functions of A   symmetry.
 There are   227 symmetry adapted basis functions of A   symmetry.
   227 basis functions,   351 primitive gaussians,   252 cartesian basis functions
    21 alpha electrons       21 beta electrons
       nuclear repulsion energy       198.8827138990 Hartrees.
 IExCor= 4639 DFT=T Ex+Corr=wB97XD ExCW=0 ScaHFX=  1.000000
 ScaDFX=  1.000000  1.000000  1.000000  1.000000 ScalE2=  1.000000  1.000000
 IRadAn=      5 IRanWt=     -1 IRanGd=            0 ICorTp=0 IEmpDi=121
  HFx wShort=  0.000000 wLong=  0.200000 cFull=  0.222036 cShort=  0.000000 cLong=  0.777964
  DFx wShort=  0.000000 wLong=  0.200000 cFull=  0.000000 cShort=  0.000000 cLong=  1.000000
 NAtoms=   17 NActive=   17 NUniq=   17 SFac= 1.00D+00 NAtFMM=   60 NAOKFM=F Big=F
 Integral buffers will be    131072 words long.
 Raffenetti 2 integral format.
 Two-electron integral symmetry is turned on.
 R6Disp:  Grimme-D2 Dispersion energy=       -0.0103341101 Hartrees.
 Nuclear repulsion after empirical dispersion term =      198.8723797889 Hartrees.
 Leave Link  301 at Sat Jul 10 19:48:48 2021, MaxMem=  4194304000 cpu:         1.2
 (Enter /home/minenky/programs//g09/l302.exe)
 NPDir=0 NMtPBC=     1 NCelOv=     1 NCel=       1 NClECP=     1 NCelD=      1
         NCelK=      1 NCelE2=     1 NClLst=     1 CellRange=     0.0.
 One-electron integrals computed using PRISM.
   1 Symmetry operations used in ECPInt.
 ECPInt:  NShTT=    5356 NPrTT=   15024 LenC2=    5347 LenP2D=   12894.
 LDataN:  DoStor=T MaxTD1= 6 Len=  172
 NBasis=   227 RedAO= T EigKep=  2.31D-04  NBF=   227
 NBsUse=   227 1.00D-06 EigRej= -1.00D+00 NBFU=   227
 Precomputing XC quadrature grid using
 IXCGrd= 4 IRadAn=           5 IRanWt=          -1 IRanGd=           0 AccXCQ= 0.00D+00.
 Generated NRdTot=       0 NPtTot=           0 NUsed=           0 NTot=          32
 NSgBfM=   252   252   252   252   252 MxSgAt=    17 MxSgA2=    17.
 Leave Link  302 at Sat Jul 10 19:48:49 2021, MaxMem=  4194304000 cpu:        16.7
 (Enter /home/minenky/programs//g09/l303.exe)
 DipDrv:  MaxL=1.
 Leave Link  303 at Sat Jul 10 19:48:50 2021, MaxMem=  4194304000 cpu:         3.7
 (Enter /home/minenky/programs//g09/l401.exe)
 ExpMin= 9.52D-02 ExpMax= 1.36D+04 ExpMxC= 4.63D+02 IAcc=3 IRadAn=         5 AccDes= 0.00D+00
 Harris functional with IExCor= 4639 and IRadAn=       5 diagonalized for initial guess.
 HarFok:  IExCor= 4639 AccDes= 0.00D+00 IRadAn=         5 IDoV= 1 UseB2=F ITyADJ=14
 ICtDFT=  3500011 ScaDFX=  1.000000  1.000000  1.000000  1.000000
 FoFCou: FMM=F IPFlag=           0 FMFlag=      100000 FMFlg1=           0
         NFxFlg=           0 DoJE=T BraDBF=F KetDBF=T FulRan=T
         wScrn=  0.000000 ICntrl=     500 IOpCl=  0 I1Cent=   200000004 NGrid=           0
         NMat0=    1 NMatS0=      1 NMatT0=    0 NMatD0=    1 NMtDS0=    0 NMtDT0=    0
 Petite list used in FoFCou.
 Harris En= -187.710934829320    
 JPrj=0 DoOrth=F DoCkMO=F.
 Leave Link  401 at Sat Jul 10 19:48:52 2021, MaxMem=  4194304000 cpu:        25.4
 (Enter /home/minenky/programs//g09/l502.exe)
 Closed shell SCF:
 Using DIIS extrapolation, IDIIS=  1040.
 Integral symmetry usage will be decided dynamically.
 Keep R1 ints in memory in canonical form, NReq=678138020.
 IVT=      344246 IEndB=      344246 NGot=  4194304000 MDV=  3524262993
 LenX=  3524262993 LenY=  3524199048
 Requested convergence on RMS density matrix=1.00D-08 within 380 cycles.
 Requested convergence on MAX density matrix=1.00D-06.
 Requested convergence on             energy=1.00D-06.
 No special actions if energy rises.
 FoFCou: FMM=F IPFlag=           0 FMFlag=           0 FMFlg1=           0
         NFxFlg=           0 DoJE=F BraDBF=F KetDBF=F FulRan=T
         wScrn=  0.000000 ICntrl=     600 IOpCl=  0 I1Cent=           0 NGrid=           0
         NMat0=    1 NMatS0=  25878 NMatT0=    0 NMatD0=    1 NMtDS0=    0 NMtDT0=    0
 Symmetry not used in FoFCou.
 Integral accuracy reduced to 1.0D-05 until final iterations.

 Cycle   1  Pass 0  IDiag  1:
 E= -197.703883434350    
 DIIS: error= 9.31D-02 at cycle   1 NSaved=   1.
 NSaved= 1 IEnMin= 1 EnMin= -197.703883434350     IErMin= 1 ErrMin= 9.31D-02
 ErrMax= 9.31D-02  0.00D+00 EMaxC= 1.00D-01 BMatC= 4.31D-01 BMatP= 4.31D-01
 IDIUse=3 WtCom= 6.92D-02 WtEn= 9.31D-01
 Coeff-Com:  0.100D+01
 Coeff-En:   0.100D+01
 Coeff:      0.100D+01
 Gap=     0.463 Goal=   None    Shift=    0.000
 GapD=    0.463 DampG=2.000 DampE=0.500 DampFc=1.0000 IDamp=-1.
 RMSDP=1.45D-03 MaxDP=6.01D-02              OVMax= 6.41D-02

 Cycle   2  Pass 0  IDiag  1:
 E= -197.761962291882     Delta-E=       -0.058078857532 Rises=F Damp=F
 DIIS: error= 1.40D-02 at cycle   2 NSaved=   2.
 NSaved= 2 IEnMin= 2 EnMin= -197.761962291882     IErMin= 2 ErrMin= 1.40D-02
 ErrMax= 1.40D-02  0.00D+00 EMaxC= 1.00D-01 BMatC= 2.45D-02 BMatP= 4.31D-01
 IDIUse=3 WtCom= 8.60D-01 WtEn= 1.40D-01
 Coeff-Com:  0.116D+00 0.884D+00
 Coeff-En:   0.000D+00 0.100D+01
 Coeff:      0.997D-01 0.900D+00
 Gap=     0.524 Goal=   None    Shift=    0.000
 RMSDP=7.47D-04 MaxDP=2.91D-02 DE=-5.81D-02 OVMax= 4.03D-02

 Cycle   3  Pass 0  IDiag  1:
 E= -197.776585804466     Delta-E=       -0.014623512583 Rises=F Damp=F
 DIIS: error= 8.29D-03 at cycle   3 NSaved=   3.
 NSaved= 3 IEnMin= 3 EnMin= -197.776585804466     IErMin= 3 ErrMin= 8.29D-03
 ErrMax= 8.29D-03  0.00D+00 EMaxC= 1.00D-01 BMatC= 9.55D-03 BMatP= 2.45D-02
 IDIUse=3 WtCom= 9.17D-01 WtEn= 8.29D-02
 Coeff-Com:  0.247D-01 0.389D+00 0.587D+00
 Coeff-En:   0.000D+00 0.226D+00 0.774D+00
 Coeff:      0.227D-01 0.375D+00 0.602D+00
 Gap=     0.498 Goal=   None    Shift=    0.000
 RMSDP=2.72D-04 MaxDP=9.05D-03 DE=-1.46D-02 OVMax= 1.59D-02

 Cycle   4  Pass 0  IDiag  1:
 E= -197.785428787745     Delta-E=       -0.008842983279 Rises=F Damp=F
 DIIS: error= 7.25D-04 at cycle   4 NSaved=   4.
 NSaved= 4 IEnMin= 4 EnMin= -197.785428787745     IErMin= 4 ErrMin= 7.25D-04
 ErrMax= 7.25D-04  0.00D+00 EMaxC= 1.00D-01 BMatC= 3.93D-05 BMatP= 9.55D-03
 IDIUse=3 WtCom= 9.93D-01 WtEn= 7.25D-03
 Coeff-Com:  0.403D-02 0.709D-01 0.137D+00 0.788D+00
 Coeff-En:   0.000D+00 0.000D+00 0.000D+00 0.100D+01
 Coeff:      0.400D-02 0.703D-01 0.136D+00 0.790D+00
 Gap=     0.500 Goal=   None    Shift=    0.000
 RMSDP=3.27D-05 MaxDP=8.47D-04 DE=-8.84D-03 OVMax= 1.89D-03

 Cycle   5  Pass 0  IDiag  1:
 E= -197.785464355844     Delta-E=       -0.000035568099 Rises=F Damp=F
 DIIS: error= 2.49D-04 at cycle   5 NSaved=   5.
 NSaved= 5 IEnMin= 5 EnMin= -197.785464355844     IErMin= 5 ErrMin= 2.49D-04
 ErrMax= 2.49D-04  0.00D+00 EMaxC= 1.00D-01 BMatC= 7.75D-06 BMatP= 3.93D-05
 IDIUse=3 WtCom= 9.98D-01 WtEn= 2.49D-03
 Coeff-Com: -0.230D-02-0.364D-01-0.418D-01 0.319D+00 0.762D+00
 Coeff-En:   0.000D+00 0.000D+00 0.000D+00 0.000D+00 0.100D+01
 Coeff:     -0.229D-02-0.363D-01-0.417D-01 0.318D+00 0.762D+00
 Gap=     0.500 Goal=   None    Shift=    0.000
 RMSDP=1.05D-05 MaxDP=2.97D-04 DE=-3.56D-05 OVMax= 5.30D-04

 Cycle   6  Pass 0  IDiag  1:
 E= -197.785471910148     Delta-E=       -0.000007554304 Rises=F Damp=F
 DIIS: error= 2.14D-05 at cycle   6 NSaved=   6.
 NSaved= 6 IEnMin= 6 EnMin= -197.785471910148     IErMin= 6 ErrMin= 2.14D-05
 ErrMax= 2.14D-05  0.00D+00 EMaxC= 1.00D-01 BMatC= 2.85D-08 BMatP= 7.75D-06
 IDIUse=1 WtCom= 1.00D+00 WtEn= 0.00D+00
 Coeff-Com:  0.387D-04 0.241D-03-0.400D-03-0.441D-01-0.463D-01 0.109D+01
 Coeff:      0.387D-04 0.241D-03-0.400D-03-0.441D-01-0.463D-01 0.109D+01
 Gap=     0.500 Goal=   None    Shift=    0.000
 RMSDP=2.73D-06 MaxDP=6.13D-05 DE=-7.55D-06 OVMax= 7.29D-05

 Initial convergence to 1.0D-05 achieved.  Increase integral accuracy.
 Cycle   7  Pass 1  IDiag  1:
 E= -197.785502662503     Delta-E=       -0.000030752355 Rises=F Damp=F
 DIIS: error= 3.15D-05 at cycle   1 NSaved=   1.
 NSaved= 1 IEnMin= 1 EnMin= -197.785502662503     IErMin= 1 ErrMin= 3.15D-05
 ErrMax= 3.15D-05  0.00D+00 EMaxC= 1.00D-01 BMatC= 2.93D-07 BMatP= 2.93D-07
 IDIUse=1 WtCom= 1.00D+00 WtEn= 0.00D+00
 Coeff-Com:  0.100D+01
 Coeff:      0.100D+01
 Gap=     0.500 Goal=   None    Shift=    0.000
 RMSDP=2.73D-06 MaxDP=6.13D-05 DE=-3.08D-05 OVMax= 5.62D-05

 Cycle   8  Pass 1  IDiag  1:
 E= -197.785502848732     Delta-E=       -0.000000186230 Rises=F Damp=F
 DIIS: error= 2.73D-06 at cycle   2 NSaved=   2.
 NSaved= 2 IEnMin= 2 EnMin= -197.785502848732     IErMin= 2 ErrMin= 2.73D-06
 ErrMax= 2.73D-06  0.00D+00 EMaxC= 1.00D-01 BMatC= 2.67D-09 BMatP= 2.93D-07
 IDIUse=1 WtCom= 1.00D+00 WtEn= 0.00D+00
 Coeff-Com: -0.700D-01 0.107D+01
 Coeff:     -0.700D-01 0.107D+01
 Gap=     0.500 Goal=   None    Shift=    0.000
 RMSDP=3.73D-07 MaxDP=1.07D-05 DE=-1.86D-07 OVMax= 1.34D-05

 Cycle   9  Pass 1  IDiag  1:
 E= -197.785502851411     Delta-E=       -0.000000002679 Rises=F Damp=F
 DIIS: error= 1.24D-06 at cycle   3 NSaved=   3.
 NSaved= 3 IEnMin= 3 EnMin= -197.785502851411     IErMin= 3 ErrMin= 1.24D-06
 ErrMax= 1.24D-06  0.00D+00 EMaxC= 1.00D-01 BMatC= 3.12D-10 BMatP= 2.67D-09
 IDIUse=1 WtCom= 1.00D+00 WtEn= 0.00D+00
 Coeff-Com: -0.227D-01 0.282D+00 0.741D+00
 Coeff:     -0.227D-01 0.282D+00 0.741D+00
 Gap=     0.500 Goal=   None    Shift=    0.000
 RMSDP=8.79D-08 MaxDP=2.45D-06 DE=-2.68D-09 OVMax= 4.60D-06

 Cycle  10  Pass 1  IDiag  1:
 E= -197.785502851707     Delta-E=       -0.000000000295 Rises=F Damp=F
 DIIS: error= 4.89D-07 at cycle   4 NSaved=   4.
 NSaved= 4 IEnMin= 4 EnMin= -197.785502851707     IErMin= 4 ErrMin= 4.89D-07
 ErrMax= 4.89D-07  0.00D+00 EMaxC= 1.00D-01 BMatC= 4.55D-11 BMatP= 3.12D-10
 IDIUse=1 WtCom= 1.00D+00 WtEn= 0.00D+00
 Coeff-Com: -0.111D-03-0.220D-01 0.240D+00 0.782D+00
 Coeff:     -0.111D-03-0.220D-01 0.240D+00 0.782D+00
 Gap=     0.500 Goal=   None    Shift=    0.000
 RMSDP=3.81D-08 MaxDP=7.35D-07 DE=-2.95D-10 OVMax= 1.82D-06

 Cycle  11  Pass 1  IDiag  1:
 E= -197.785502851753     Delta-E=       -0.000000000046 Rises=F Damp=F
 DIIS: error= 9.36D-08 at cycle   5 NSaved=   5.
 NSaved= 5 IEnMin= 5 EnMin= -197.785502851753     IErMin= 5 ErrMin= 9.36D-08
 ErrMax= 9.36D-08  0.00D+00 EMaxC= 1.00D-01 BMatC= 1.76D-12 BMatP= 4.55D-11
 IDIUse=1 WtCom= 1.00D+00 WtEn= 0.00D+00
 Coeff-Com:  0.177D-02-0.259D-01-0.126D-01 0.139D+00 0.897D+00
 Coeff:      0.177D-02-0.259D-01-0.126D-01 0.139D+00 0.897D+00
 Gap=     0.500 Goal=   None    Shift=    0.000
 RMSDP=1.47D-08 MaxDP=2.78D-07 DE=-4.62D-11 OVMax= 5.11D-07

 Cycle  12  Pass 1  IDiag  1:
 E= -197.785502851758     Delta-E=       -0.000000000005 Rises=F Damp=F
 DIIS: error= 3.58D-08 at cycle   6 NSaved=   6.
 NSaved= 6 IEnMin= 6 EnMin= -197.785502851758     IErMin= 6 ErrMin= 3.58D-08
 ErrMax= 3.58D-08  0.00D+00 EMaxC= 1.00D-01 BMatC= 1.81D-13 BMatP= 1.76D-12
 IDIUse=1 WtCom= 1.00D+00 WtEn= 0.00D+00
 Coeff-Com:  0.547D-03-0.659D-02-0.161D-01-0.161D-03 0.268D+00 0.755D+00
 Coeff:      0.547D-03-0.659D-02-0.161D-01-0.161D-03 0.268D+00 0.755D+00
 Gap=     0.500 Goal=   None    Shift=    0.000
 RMSDP=3.67D-09 MaxDP=7.75D-08 DE=-4.95D-12 OVMax= 1.39D-07

 SCF Done:  E(RwB97XD) =  -197.785502852     A.U. after   12 cycles
            NFock= 12  Conv=0.37D-08     -V/T= 2.0059
 KE= 1.966202385457D+02 PE=-8.548553126969D+02 EE= 2.615771915106D+02
 Leave Link  502 at Sat Jul 10 19:49:18 2021, MaxMem=  4194304000 cpu:       293.0
 (Enter /home/minenky/programs//g09/l801.exe)
 DoSCS=F DFT=T ScalE2(SS,OS)=  1.000000  1.000000
 Range of M.O.s used for correlation:     1   227
 NBasis=   227 NAE=    21 NBE=    21 NFC=     0 NFV=     0
 NROrb=    227 NOA=    21 NOB=    21 NVA=   206 NVB=   206

 **** Warning!!: The largest alpha MO coefficient is  0.29346054D+02

 Leave Link  801 at Sat Jul 10 19:49:18 2021, MaxMem=  4194304000 cpu:         0.1
 (Enter /home/minenky/programs//g09/l1101.exe)
 Using compressed storage, NAtomX=    17.
 Will process     18 centers per pass.
   1 Symmetry operations used in ECPInt.
 ECPInt:  NShTT=    5356 NPrTT=   15024 LenC2=    5347 LenP2D=   12894.
 LDataN:  DoStor=T MaxTD1= 7 Len=  274
 R6Disp: Adding Grimme-D2 dispersion energy 1st derivatives to the gradient.
 Leave Link 1101 at Sat Jul 10 19:49:21 2021, MaxMem=  4194304000 cpu:        33.7
 (Enter /home/minenky/programs//g09/l1102.exe)
 Symmetrizing basis deriv contribution to polar:
 IMax=3 JMax=2 DiffMx= 0.00D+00
 Leave Link 1102 at Sat Jul 10 19:49:21 2021, MaxMem=  4194304000 cpu:         1.7
 (Enter /home/minenky/programs//g09/l1110.exe)
 Forming Gx(P) for the SCF density, NAtomX=    17.
 Integral derivatives from FoFJK, PRISM(SPDF).
 Do as many integral derivatives as possible in FoFJK.
 G2DrvN: MDV=    4194303760.
 G2DrvN: will do    18 centers at a time, making    1 passes.
 Calling FoFCou, ICntrl=  3107 FMM=F I1Cent=   0 AccDes= 0.00D+00.
 FoFJK:  IHMeth= 1 ICntrl=    3107 DoSepK=T KAlg= 0 I1Cent=   0 FoldK=F
 IRaf=         1 NMat=   1 IRICut=       1 DoRegI=T DoRafI=F ISym2E= 0.
 FoFCou: FMM=F IPFlag=           0 FMFlag=      100000 FMFlg1=           0
         NFxFlg=           0 DoJE=F BraDBF=F KetDBF=F FulRan=T
         wScrn=  0.000000 ICntrl=    3507 IOpCl=  0 I1Cent=           0 NGrid=           0
         NMat0=    1 NMatS0=      1 NMatT0=    0 NMatD0=    1 NMtDS0=    0 NMtDT0=    0
 Symmetry not used in FoFCou.
 End of G2Drv F.D. properties file   721 does not exist.
 End of G2Drv F.D. properties file   722 does not exist.
 End of G2Drv F.D. properties file   788 does not exist.
 Leave Link 1110 at Sat Jul 10 19:51:03 2021, MaxMem=  4194304000 cpu:      1403.1
 (Enter /home/minenky/programs//g09/l1002.exe)
 Minotr:  Closed shell wavefunction.
          IDoAtm=11111111111111111
          Direct CPHF calculation.
          Differentiating once with respect to electric field.
                with respect to dipole field.
          Differentiating once with respect to nuclear coordinates.
          Requested convergence is 1.0D-08 RMS, and 1.0D-07 maximum.
          Secondary convergence is 1.0D-12 RMS, and 1.0D-12 maximum.
          NewPWx=T KeepS1=F KeepF1=F KeepIn=T MapXYZ=F SortEE=F KeepMc=T.
          MDV=    4194303599 using IRadAn=       1.
 Generate precomputed XC quadrature information.
 Keep R1 ints in memory in canonical form, NReq=677801008.
 FoFCou: FMM=F IPFlag=           0 FMFlag=           0 FMFlg1=           0
         NFxFlg=           0 DoJE=F BraDBF=F KetDBF=F FulRan=T
         wScrn=  0.000000 ICntrl=     600 IOpCl=  0 I1Cent=           0 NGrid=           0
         NMat0=    1 NMatS0=  25878 NMatT0=    0 NMatD0=    1 NMtDS0=    0 NMtDT0=    0
 Symmetry not used in FoFCou.
          Solving linear equations simultaneously, MaxMat=       0.
          There are    54 degrees of freedom in the 1st order CPHF.  IDoFFX=6 NUNeed=     3.
     51 vectors produced by pass  0 Test12= 8.01D-15 1.85D-09 XBig12= 2.26D+01 1.09D+00.
 AX will form    51 AO Fock derivatives at one time.
     51 vectors produced by pass  1 Test12= 8.01D-15 1.85D-09 XBig12= 1.02D+00 1.73D-01.
     51 vectors produced by pass  2 Test12= 8.01D-15 1.85D-09 XBig12= 1.78D-02 1.79D-02.
     51 vectors produced by pass  3 Test12= 8.01D-15 1.85D-09 XBig12= 1.10D-04 1.94D-03.
     51 vectors produced by pass  4 Test12= 8.01D-15 1.85D-09 XBig12= 6.40D-07 1.64D-04.
     51 vectors produced by pass  5 Test12= 8.01D-15 1.85D-09 XBig12= 3.05D-09 8.72D-06.
     30 vectors produced by pass  6 Test12= 8.01D-15 1.85D-09 XBig12= 1.68D-11 8.31D-07.
      7 vectors produced by pass  7 Test12= 8.01D-15 1.85D-09 XBig12= 8.45D-14 3.86D-08.
      3 vectors produced by pass  8 Test12= 8.01D-15 1.85D-09 XBig12= 3.85D-16 2.25D-09.
 InvSVY:  IOpt=1 It=  1 EMax= 8.88D-16
 Solved reduced A of dimension   346 with    54 vectors.
 FullF1:  Do perturbations    1 to     3.
 Isotropic polarizability for W=    0.000000       62.42 Bohr**3.
 End of Minotr F.D. properties file   721 does not exist.
 End of Minotr F.D. properties file   722 does not exist.
 End of Minotr F.D. properties file   788 does not exist.
 Leave Link 1002 at Sat Jul 10 19:53:25 2021, MaxMem=  4194304000 cpu:      2064.6
 (Enter /home/minenky/programs//g09/l601.exe)
 Copying SCF densities to generalized density rwf, IOpCl= 0 IROHF=0.

 **********************************************************************

            Population analysis using the SCF density.

 **********************************************************************

 Orbital symmetries:
       Occupied  (A) (A) (A) (A) (A) (A) (A) (A) (A) (A) (A) (A)
                 (A) (A) (A) (A) (A) (A) (A) (A) (A)
       Virtual   (A) (A) (A) (A) (A) (A) (A) (A) (A) (A) (A) (A)
                 (A) (A) (A) (A) (A) (A) (A) (A) (A) (A) (A) (A)
                 (A) (A) (A) (A) (A) (A) (A) (A) (A) (A) (A) (A)
                 (A) (A) (A) (A) (A) (A) (A) (A) (A) (A) (A) (A)
                 (A) (A) (A) (A) (A) (A) (A) (A) (A) (A) (A) (A)
                 (A) (A) (A) (A) (A) (A) (A) (A) (A) (A) (A) (A)
                 (A) (A) (A) (A) (A) (A) (A) (A) (A) (A) (A) (A)
                 (A) (A) (A) (A) (A) (A) (A) (A) (A) (A) (A) (A)
                 (A) (A) (A) (A) (A) (A) (A) (A) (A) (A) (A) (A)
                 (A) (A) (A) (A) (A) (A) (A) (A) (A) (A) (A) (A)
                 (A) (A) (A) (A) (A) (A) (A) (A) (A) (A) (A) (A)
                 (A) (A) (A) (A) (A) (A) (A) (A) (A) (A) (A) (A)
                 (A) (A) (A) (A) (A) (A) (A) (A) (A) (A) (A) (A)
                 (A) (A) (A) (A) (A) (A) (A) (A) (A) (A) (A) (A)
                 (A) (A) (A) (A) (A) (A) (A) (A) (A) (A) (A) (A)
                 (A) (A) (A) (A) (A) (A) (A) (A) (A) (A) (A) (A)
                 (A) (A) (A) (A) (A) (A) (A) (A) (A) (A) (A) (A)
                 (A) (A)
 The electronic state is 1-A.
 Alpha  occ. eigenvalues --  -10.29152 -10.26485 -10.26485 -10.26485 -10.26483
 Alpha  occ. eigenvalues --   -0.92251  -0.77989  -0.77989  -0.77989  -0.62367
 Alpha  occ. eigenvalues --   -0.53575  -0.53575  -0.53575  -0.48447  -0.48447
 Alpha  occ. eigenvalues --   -0.44383  -0.44383  -0.44382  -0.39988  -0.39988
 Alpha  occ. eigenvalues --   -0.39988
 Alpha virt. eigenvalues --    0.09988   0.16227   0.16227   0.16228   0.16737
 Alpha virt. eigenvalues --    0.16737   0.16737   0.20334   0.22178   0.22178
 Alpha virt. eigenvalues --    0.23716   0.23716   0.23716   0.24826   0.24826
 Alpha virt. eigenvalues --    0.24826   0.28122   0.28122   0.34600   0.34600
 Alpha virt. eigenvalues --    0.34601   0.39560   0.39561   0.39561   0.43593
 Alpha virt. eigenvalues --    0.45352   0.45353   0.45355   0.50771   0.50787
 Alpha virt. eigenvalues --    0.50788   0.50788   0.53341   0.53341   0.53341
 Alpha virt. eigenvalues --    0.54412   0.54413   0.56671   0.56671   0.56671
 Alpha virt. eigenvalues --    0.57166   0.59969   0.59969   0.59970   0.73077
 Alpha virt. eigenvalues --    0.76006   0.76006   0.80860   0.80860   0.80861
 Alpha virt. eigenvalues --    0.90832   0.90832   0.90833   0.95902   0.95903
 Alpha virt. eigenvalues --    0.95904   1.03992   1.03992   1.07063   1.07063
 Alpha virt. eigenvalues --    1.07063   1.11773   1.20050   1.20051   1.20052
 Alpha virt. eigenvalues --    1.22569   1.22570   1.22570   1.37318   1.37318
 Alpha virt. eigenvalues --    1.37319   1.39984   1.39984   1.46534   1.61989
 Alpha virt. eigenvalues --    1.61989   1.61990   1.62805   1.62805   1.62806
 Alpha virt. eigenvalues --    1.63569   1.69410   1.69410   1.69411   1.72526
 Alpha virt. eigenvalues --    1.72526   1.72526   1.73280   1.73281   1.83132
 Alpha virt. eigenvalues --    1.83132   1.83133   1.84150   1.97926   1.97927
 Alpha virt. eigenvalues --    1.99519   1.99520   1.99521   2.11851   2.11853
 Alpha virt. eigenvalues --    2.11854   2.18574   2.25395   2.25397   2.25398
 Alpha virt. eigenvalues --    2.34704   2.35124   2.35125   2.39581   2.39583
 Alpha virt. eigenvalues --    2.39587   2.46029   2.46030   2.46030   2.49228
 Alpha virt. eigenvalues --    2.49230   2.49231   2.53537   2.53538   2.53539
 Alpha virt. eigenvalues --    2.59603   2.59604   2.59605   2.59947   2.59949
 Alpha virt. eigenvalues --    2.71199   2.71472   2.71473   2.71474   2.72818
 Alpha virt. eigenvalues --    2.72818   2.72819   2.84512   2.84513   2.88255
 Alpha virt. eigenvalues --    2.89942   2.89942   2.89943   2.95809   2.95810
 Alpha virt. eigenvalues --    2.95811   3.12914   3.12916   3.12918   3.24277
 Alpha virt. eigenvalues --    3.24279   3.24280   3.30624   3.30627   3.30628
 Alpha virt. eigenvalues --    3.34594   3.36114   3.36114   3.43345   3.43346
 Alpha virt. eigenvalues --    3.43347   3.45851   3.45852   3.45853   3.46761
 Alpha virt. eigenvalues --    3.47787   3.47789   3.47790   3.49422   3.49423
 Alpha virt. eigenvalues --    3.73360   3.74977   3.74978   3.74979   3.81795
 Alpha virt. eigenvalues --    3.81797   3.82367   3.82367   3.82368   4.12064
 Alpha virt. eigenvalues --    4.12065   4.16295   4.16298   4.16299   4.21374
 Alpha virt. eigenvalues --    4.21376   4.21376   4.27317   4.27317   4.27319
 Alpha virt. eigenvalues --    4.45766   4.45768   4.45768   4.52054   4.52055
 Alpha virt. eigenvalues --    4.52056   4.57505   4.58902   4.58903   4.85447
 Alpha virt. eigenvalues --    4.85451   4.85454   5.00600   5.01298   5.01298
 Alpha virt. eigenvalues --    5.01299  22.49310  22.54222  22.54223  22.54225
 Alpha virt. eigenvalues --   22.76110
          Condensed to atoms (all electrons):
               1          2          3          4          5          6
     1  C    4.986300   0.339234  -0.030731  -0.030722  -0.030728   0.339272
     2  C    0.339234   5.030360   0.406255   0.406260   0.406258  -0.076525
     3  H   -0.030731   0.406255   0.556542  -0.022683  -0.022681  -0.009120
     4  H   -0.030722   0.406260  -0.022683   0.556540  -0.022685  -0.009129
     5  H   -0.030728   0.406258  -0.022681  -0.022685   0.556544   0.013224
     6  C    0.339272  -0.076525  -0.009120  -0.009129   0.013224   5.030353
     7  H   -0.030727  -0.009122   0.003564  -0.000125  -0.000145   0.406259
     8  H   -0.030724   0.013225  -0.000145  -0.000144  -0.000440   0.406253
     9  H   -0.030724  -0.009125  -0.000126   0.003566  -0.000144   0.406258
    10  C    0.339249  -0.076526   0.013224  -0.009129  -0.009122  -0.076524
    11  H   -0.030724   0.013225  -0.000440  -0.000144  -0.000145  -0.009127
    12  H   -0.030725  -0.009122  -0.000145  -0.000126   0.003564   0.013224
    13  H   -0.030729  -0.009128  -0.000144   0.003566  -0.000126  -0.009125
    14  C    0.339259  -0.076534  -0.009122   0.013225  -0.009124  -0.076531
    15  H   -0.030726  -0.009127  -0.000126  -0.000144   0.003565   0.013224
    16  H   -0.030728   0.013225  -0.000145  -0.000440  -0.000144  -0.009123
    17  H   -0.030728  -0.009122   0.003564  -0.000145  -0.000126  -0.009124
               7          8          9         10         11         12
     1  C   -0.030727  -0.030724  -0.030724   0.339249  -0.030724  -0.030725
     2  C   -0.009122   0.013225  -0.009125  -0.076526   0.013225  -0.009122
     3  H    0.003564  -0.000145  -0.000126   0.013224  -0.000440  -0.000145
     4  H   -0.000125  -0.000144   0.003566  -0.009129  -0.000144  -0.000126
     5  H   -0.000145  -0.000440  -0.000144  -0.009122  -0.000145   0.003564
     6  C    0.406259   0.406253   0.406258  -0.076524  -0.009127   0.013224
     7  H    0.556535  -0.022680  -0.022686   0.013224  -0.000144  -0.000440
     8  H   -0.022680   0.556542  -0.022685  -0.009127   0.003566  -0.000144
     9  H   -0.022686  -0.022685   0.556542  -0.009125  -0.000126  -0.000145
    10  C    0.013224  -0.009127  -0.009125   5.030380   0.406259   0.406259
    11  H   -0.000144   0.003566  -0.000126   0.406259   0.556538  -0.022683
    12  H   -0.000440  -0.000144  -0.000145   0.406259  -0.022683   0.556529
    13  H   -0.000145  -0.000126   0.003565   0.406260  -0.022685  -0.022683
    14  C   -0.009125  -0.009126   0.013225  -0.076541  -0.009125  -0.009123
    15  H   -0.000144  -0.000145  -0.000440  -0.009125  -0.000125   0.003565
    16  H   -0.000126   0.003565  -0.000144  -0.009123   0.003565  -0.000126
    17  H    0.003565  -0.000126  -0.000144   0.013225  -0.000145  -0.000144
              13         14         15         16         17
     1  C   -0.030729   0.339259  -0.030726  -0.030728  -0.030728
     2  C   -0.009128  -0.076534  -0.009127   0.013225  -0.009122
     3  H   -0.000144  -0.009122  -0.000126  -0.000145   0.003564
     4  H    0.003566   0.013225  -0.000144  -0.000440  -0.000145
     5  H   -0.000126  -0.009124   0.003565  -0.000144  -0.000126
     6  C   -0.009125  -0.076531   0.013224  -0.009123  -0.009124
     7  H   -0.000145  -0.009125  -0.000144  -0.000126   0.003565
     8  H   -0.000126  -0.009126  -0.000145   0.003565  -0.000126
     9  H    0.003565   0.013225  -0.000440  -0.000144  -0.000144
    10  C    0.406260  -0.076541  -0.009125  -0.009123   0.013225
    11  H   -0.022685  -0.009125  -0.000125   0.003565  -0.000145
    12  H   -0.022683  -0.009123   0.003565  -0.000126  -0.000144
    13  H    0.556546   0.013226  -0.000145  -0.000144  -0.000440
    14  C    0.013226   5.030373   0.406261   0.406258   0.406258
    15  H   -0.000145   0.406261   0.556542  -0.022685  -0.022682
    16  H   -0.000144   0.406258  -0.022685   0.556546  -0.022685
    17  H   -0.000440   0.406258  -0.022682  -0.022685   0.556540
 Mulliken charges:
               1
     1  C    0.025403
     2  C   -0.343709
     3  H    0.112458
     4  H    0.112460
     5  H    0.112455
     6  C   -0.343737
     7  H    0.112462
     8  H    0.112461
     9  H    0.112459
    10  C   -0.343737
    11  H    0.112461
    12  H    0.112465
    13  H    0.112458
    14  C   -0.343731
    15  H    0.112457
    16  H    0.112457
    17  H    0.112459
 Sum of Mulliken charges =   0.00000
 Mulliken charges with hydrogens summed into heavy atoms:
               1
     1  C    0.025403
     2  C   -0.006336
     6  C   -0.006355
    10  C   -0.006353
    14  C   -0.006358
 APT charges:
               1
     1  C    0.118099
     2  C    0.039557
     3  H   -0.022966
     4  H   -0.022941
     5  H   -0.023096
     6  C    0.039613
     7  H   -0.023078
     8  H   -0.023059
     9  H   -0.023020
    10  C    0.039446
    11  H   -0.023028
    12  H   -0.023024
    13  H   -0.022981
    14  C    0.039560
    15  H   -0.022997
    16  H   -0.023069
    17  H   -0.023014
 Sum of APT charges =   0.00000
 APT charges with hydrogens summed into heavy atoms:
               1
     1  C    0.118099
     2  C   -0.029447
     6  C   -0.029544
    10  C   -0.029587
    14  C   -0.029522
 Electronic spatial extent (au):  <R**2>=            482.5837
 Charge=              0.0000 electrons
 Dipole moment (field-independent basis, Debye):
    X=              0.0000    Y=              0.0000    Z=              0.0000  Tot=              0.0000
 Quadrupole moment (field-independent basis, Debye-Ang):
   XX=            -35.4413   YY=            -35.4412   ZZ=            -35.4409
   XY=              0.0000   XZ=              0.0000   YZ=             -0.0001
 Traceless Quadrupole moment (field-independent basis, Debye-Ang):
   XX=             -0.0001   YY=             -0.0001   ZZ=              0.0002
   XY=              0.0000   XZ=              0.0000   YZ=             -0.0001
 Octapole moment (field-independent basis, Debye-Ang**2):
  XXX=             -1.5309  YYY=             -0.1832  ZZZ=             -2.4161  XYY=              1.5041
  XXY=              2.3762  XXZ=              1.1165  XZZ=              0.0267  YZZ=             -2.1930
  YYZ=              1.2996  XYZ=             -0.6577
 Hexadecapole moment (field-independent basis, Debye-Ang**3):
 XXXX=           -228.4034 YYYY=           -229.9159 ZZZZ=           -227.9850 XXXY=             -0.2296
 XXXZ=             -0.9352 YYYX=              0.7050 YYYZ=             -1.1770 ZZZX=              0.4062
 ZZZY=              0.7005 XXYY=            -75.5408 XXZZ=            -77.4628 YYZZ=            -75.9470
 XXYZ=              0.4754 YYXZ=              0.5289 ZZXY=             -0.4752
 N-N= 1.988723797889D+02 E-N=-8.548553147653D+02  KE= 1.966202385457D+02
  Exact polarizability:  62.410   0.000  62.422   0.003   0.003  62.429
 Approx polarizability:  65.221   0.000  65.221   0.000   0.000  65.222
 No NMR shielding tensors so no spin-rotation constants.
 Leave Link  601 at Sat Jul 10 19:53:26 2021, MaxMem=  4194304000 cpu:        12.7
 (Enter /home/minenky/programs//g09/l701.exe)
 Compute integral second derivatives.
 ... and contract with generalized density number  0.
 R6Disp: Adding Grimme-D2 dispersion energy 2nd derivatives to the Hessian.
   1 Symmetry operations used in ECPInt.
 ECPInt:  NShTT=    5356 NPrTT=   15024 LenC2=    5347 LenP2D=   12894.
 LDataN:  DoStor=T MaxTD1= 8 Len=  415
 Leave Link  701 at Sat Jul 10 19:53:27 2021, MaxMem=  4194304000 cpu:        11.8
 (Enter /home/minenky/programs//g09/l702.exe)
 L702 exits ... SP integral derivatives will be done elsewhere.
 Leave Link  702 at Sat Jul 10 19:53:27 2021, MaxMem=  4194304000 cpu:         0.1
 (Enter /home/minenky/programs//g09/l703.exe)
 Compute integral second derivatives, UseDBF=F ICtDFT=           0.
 Integral derivatives from FoFJK, PRISM(SPDF).
 Calling FoFJK, ICntrl=    100127 FMM=F ISym2X=0 I1Cent= 0 IOpClX= 0 NMat=1 NMatS=1 NMatT=0.
 FoFJK:  IHMeth= 1 ICntrl=  100127 DoSepK=T KAlg= 0 I1Cent=   0 FoldK=F
 IRaf=         1 NMat=   1 IRICut=       1 DoRegI=T DoRafI=F ISym2E= 0.
 FoFCou: FMM=F IPFlag=           0 FMFlag=      100000 FMFlg1=         800
         NFxFlg=           0 DoJE=F BraDBF=F KetDBF=F FulRan=T
         wScrn=  0.000000 ICntrl=  100527 IOpCl=  0 I1Cent=           0 NGrid=           0
         NMat0=    1 NMatS0=      1 NMatT0=    0 NMatD0=    1 NMtDS0=    0 NMtDT0=    0
 Symmetry not used in FoFCou.
 Leave Link  703 at Sat Jul 10 19:55:26 2021, MaxMem=  4194304000 cpu:      1711.8
 (Enter /home/minenky/programs//g09/l716.exe)
 Dipole        = 4.47537810D-06 1.43884241D-05 6.15799670D-07
 Polarizability= 6.24101771D+01-1.13251682D-04 6.24219934D+01
                 3.37953210D-03 2.62978414D-03 6.24288285D+01
 Full mass-weighted force constant matrix:
 Low frequencies ---   -4.3736   -0.0007   -0.0004    0.0003   10.6679   14.5811
 Low frequencies ---  203.0726  283.5146  284.7450
 Diagonal vibrational polarizability:
        0.7582623       0.7581470       0.7598567
 Harmonic frequencies (cm**-1), IR intensities (KM/Mole), Raman scattering
 activities (A**4/AMU), depolarization ratios for plane and unpolarized
 incident light, reduced masses (AMU), force constants (mDyne/A),
 and normal coordinates:
                      1                      2                      3
                      A                      A                      A
 Frequencies --    203.0725               283.5146               284.7447
 Red. masses --      1.0078                 1.0310                 1.0310
 Frc consts  --      0.0245                 0.0488                 0.0493
 IR Inten    --      0.0000                 0.0000                 0.0000
  Atom  AN      X      Y      Z        X      Y      Z        X      Y      Z
     1   6     0.00   0.00   0.00     0.00   0.00   0.00     0.00   0.00   0.00
     2   6     0.00   0.00   0.00     0.00  -0.01   0.02    -0.01   0.00  -0.01
     3   1     0.08   0.26  -0.09     0.09   0.22  -0.06     0.09   0.37  -0.15
     4   1     0.05  -0.08   0.27     0.05  -0.08   0.28     0.07  -0.11   0.37
     5   1    -0.13  -0.19  -0.18    -0.12  -0.17  -0.13    -0.18  -0.27  -0.28
     6   6     0.00   0.00   0.00     0.01  -0.01  -0.02    -0.02  -0.01  -0.01
     7   1    -0.28  -0.06   0.03    -0.10  -0.06   0.00     0.33   0.06  -0.04
     8   1     0.13   0.18   0.18     0.06   0.07   0.04    -0.17  -0.25  -0.23
     9   1     0.15  -0.12  -0.21     0.08  -0.07  -0.12    -0.21   0.15   0.24
    10   6     0.00   0.00   0.00    -0.02   0.02  -0.01     0.02   0.02  -0.01
    11   1    -0.08  -0.26   0.09    -0.05  -0.08   0.01     0.07   0.17  -0.05
    12   1     0.28   0.06  -0.03     0.09   0.06   0.00    -0.13  -0.01   0.02
    13   1    -0.20   0.19  -0.06    -0.10   0.11  -0.04     0.14  -0.10   0.01
    14   6     0.00   0.00   0.00     0.00   0.00   0.01     0.00   0.00   0.03
    15   1    -0.16   0.12   0.22     0.26  -0.20  -0.35    -0.04   0.05   0.11
    16   1    -0.05   0.08  -0.28     0.08  -0.13   0.47    -0.01   0.03  -0.05
    17   1     0.20  -0.20   0.06    -0.34   0.33  -0.10     0.05  -0.08   0.05
                      4                      5                      6
                      A                      A                      A
 Frequencies --    285.2219               338.2586               338.4230
 Red. masses --      1.0309                 2.1813                 2.1818
 Frc consts  --      0.0494                 0.1471                 0.1472
 IR Inten    --      0.0000                 0.0000                 0.0000
  Atom  AN      X      Y      Z        X      Y      Z        X      Y      Z
     1   6     0.00   0.00   0.00     0.00   0.00   0.00     0.00   0.00   0.00
     2   6    -0.01  -0.02   0.00     0.03  -0.04   0.16     0.07   0.15   0.03
     3   1    -0.05  -0.12   0.03     0.18  -0.13   0.18     0.18   0.18   0.02
     4   1    -0.01  -0.01  -0.10     0.04  -0.07   0.23    -0.07   0.28   0.09
     5   1     0.02   0.04   0.06    -0.10   0.00   0.27     0.18   0.18   0.02
     6   6     0.02   0.01   0.00    -0.16  -0.04   0.02     0.01  -0.10  -0.13
     7   1     0.35   0.08  -0.04    -0.24  -0.05   0.03     0.05  -0.29  -0.07
     8   1    -0.12  -0.19  -0.22    -0.19  -0.18   0.12    -0.01  -0.08  -0.24
     9   1    -0.14   0.13   0.25    -0.27   0.07  -0.07    -0.01  -0.08  -0.25
    10   6     0.01   0.00   0.00     0.16   0.04  -0.02     0.04  -0.15   0.05
    11   1    -0.11  -0.41   0.16     0.23   0.11   0.12     0.06  -0.19   0.16
    12   1     0.46   0.10  -0.05     0.23   0.05  -0.03     0.05  -0.28  -0.10
    13   1    -0.30   0.31  -0.11     0.23   0.00  -0.17     0.07  -0.19   0.16
    14   6    -0.02   0.02   0.00    -0.03   0.04  -0.16    -0.12   0.11   0.05
    15   1    -0.02   0.00  -0.02    -0.14  -0.06  -0.24    -0.23   0.09   0.07
    16   1    -0.01   0.04   0.03    -0.04   0.06  -0.23    -0.04   0.28   0.08
    17   1    -0.05   0.04   0.00     0.07   0.18  -0.21    -0.23   0.09   0.06
                      7                      8                      9
                      A                      A                      A
 Frequencies --    425.5405               425.6920               425.7526
 Red. masses --      2.1018                 2.1021                 2.1020
 Frc consts  --      0.2243                 0.2244                 0.2245
 IR Inten    --      0.0809                 0.0812                 0.0804
  Atom  AN      X      Y      Z        X      Y      Z        X      Y      Z
     1   6     0.14   0.05  -0.04    -0.05   0.04  -0.14     0.03  -0.14  -0.05
     2   6     0.10  -0.12  -0.03     0.00  -0.01   0.11     0.14   0.04  -0.01
     3   1     0.03  -0.18  -0.01     0.25  -0.13   0.16     0.29   0.08  -0.02
     4   1     0.24  -0.25  -0.07     0.00  -0.03   0.24    -0.03   0.20   0.07
     5   1    -0.05  -0.14   0.00    -0.19   0.06   0.29     0.27   0.08  -0.01
     6   6    -0.11   0.00   0.00    -0.02   0.15  -0.04     0.01  -0.02   0.13
     7   1    -0.24  -0.01   0.01    -0.04   0.32  -0.10    -0.06   0.22   0.06
     8   1    -0.16  -0.22   0.16     0.01   0.17   0.03     0.04  -0.06   0.30
     9   1    -0.28   0.17  -0.13     0.02   0.11   0.08     0.02  -0.04   0.28
    10   6    -0.10  -0.05   0.00     0.03  -0.10  -0.12    -0.03   0.04  -0.13
    11   1    -0.22  -0.17  -0.19     0.07  -0.12   0.02    -0.06   0.09  -0.28
    12   1    -0.22  -0.10  -0.02     0.06  -0.22  -0.26    -0.05   0.20   0.06
    13   1    -0.20   0.01   0.27     0.07  -0.15  -0.05    -0.07   0.10  -0.25
    14   6     0.07   0.14   0.05     0.01  -0.05   0.10    -0.13  -0.01   0.02
    15   1     0.00   0.15   0.09     0.22   0.10   0.23    -0.28  -0.03   0.06
    16   1     0.13   0.28   0.10     0.02  -0.12   0.21    -0.03   0.23   0.08
    17   1    -0.05   0.09   0.07    -0.11  -0.26   0.18    -0.30  -0.04   0.04
                     10                     11                     12
                      A                      A                      A
[...]
 ! D34   D(10,1,14,15)         -60.0021         -DE/DX =    0.0                 !
 ! D35   D(10,1,14,16)          59.9968         -DE/DX =    0.0                 !
 ! D36   D(10,1,14,17)         179.9964         -DE/DX =    0.0                 !
 --------------------------------------------------------------------------------
 GradGradGradGradGradGradGradGradGradGradGradGradGradGradGradGradGradGrad

 Leave Link  103 at Sat Jul 10 19:55:29 2021, MaxMem=  4194304000 cpu:        34.9
 (Enter /home/minenky/programs//g09/l9999.exe)
 1\1\GINC-CN513-09-R\Freq\RwB97XD\def2TZVP\C5H12\MINENKY\10-Jul-2021\0\
 \#P wB97XD/def2tzvp geom=checkpoint freq integral(Grid=ultrafine) # SC
 F(MaxCycle=380) 5d 7f GFPrint\\The PBEPBE optimization and frequencies
 \\0,1\C,0.0000094149,0.0000148224,0.0000331133\C,0.8723785665,1.249955
 302,-0.1347114515\H,1.6433539959,1.2745908809,0.6392805091\H,1.3710834
 826,1.2763590066,-1.1066471553\H,0.272269426,2.1582630979,-0.040239885
 6\C,0.8734623055,-1.248866788,-0.1373965896\H,1.644331637,-1.274667408
 8,0.6366682895\H,0.2740802094,-2.1578788873,-0.0451001686\H,1.37237991
 63,-1.2726613909,-1.1092883143\C,-1.0653219207,0.0007190713,-1.0984165
 607\H,-1.7035826999,-0.8832305393,-1.0253880914\H,-1.7045492019,0.8837
 79585,-1.0233488204\H,-0.6055091514,0.0020939674,-2.0896984714\C,-0.68
 05070987,-0.0017706809,1.3705728605\H,-1.3118651565,0.881343739,1.4953
 4082\H,-1.3111364143,-0.8856743079,1.4933911815\H,0.0591196894,-0.0023
 694691,2.1749497348\\Version=AM64L-G09RevD.01\State=1-A\HF=-197.785502
 9\RMSD=3.673e-09\RMSF=5.357e-06\ZeroPoint=0.1601189\Thermal=0.1669412\
 Dipole=0.0000051,-0.0000066,-0.0000125\DipoleDeriv=0.1180695,0.0002182
 ,-0.0000318,-0.0000872,0.1180329,-0.0000408,-0.0000313,0.0000702,0.118
 1959,0.0403152,-0.0414771,0.0043323,-0.0416563,0.0098889,0.0064667,0.0
 046744,0.0064883,0.0684656,-0.0591987,-0.0372552,-0.1000684,0.0046538,
 0.0450498,0.0237437,-0.1347075,-0.0193665,-0.05475,0.0092574,-0.029592
 6,0.079659,-0.0031148,0.0451448,-0.0235959,0.1139657,0.0300117,-0.1232
 251,-0.0203446,0.1287514,0.013792,0.0608908,-0.1147123,-0.0096531,0.01
 39194,-0.0203055,0.0657684,0.0405036,0.0412811,0.0045403,0.0414961,0.0
 097476,-0.0065499,0.0047428,-0.0065989,0.0685884,-0.0592785,0.0375067,
 -0.1002344,-0.0043912,0.0449543,-0.0232658,-0.1348377,0.0195975,-0.054
 9087,-0.0202481,-0.1289168,0.0134098,-0.0606517,-0.1146857,0.0092401,0
 .013658,0.0198837,0.0657564,0.009264,0.0293909,0.0798976,0.002868,0.04
 50437,0.0236796,0.1140946,-0.0295889,-0.1233681,0.0261804,0.0001149,-0
 .0445017,-0.0000261,0.069142,0.0003427,-0.0444556,-0.0000715,0.0230144
 ,-0.0266697,-0.0902099,-0.0228201,-0.1321406,-0.0908977,-0.0049604,0.0
 118238,0.0381809,0.0484845,-0.0268647,0.0903556,-0.0225853,0.1322274,-
 0.0905599,0.004607,0.0122389,-0.0384572,0.0483531,0.0046585,-0.0001965
 ,0.1119968,-0.0000463,0.0678789,0.0002643,0.0425404,0.0003024,-0.14148
 13,0.0515094,0.0000505,0.0359397,-0.0000758,0.0695169,-0.0002722,0.035
 3775,0.0000113,-0.0023473,-0.0167049,0.097561,0.0434737,0.1244862,-0.0
 905933,-0.0445881,0.0090678,0.0088948,0.0383058,-0.0167331,-0.0977118,
 0.0432206,-0.1244363,-0.0908955,0.0443917,0.0088283,-0.0091523,0.03842
 01,-0.0537157,0.0001296,-0.1400201,0.0000037,0.0679448,0.0001905,-0.07
 08995,0.0001,-0.0832719\Polar=62.4200208,-0.0052384,62.4169406,0.00780
 96,0.0025084,62.4240375\PG=C01 [X(C5H12)]\NImag=0\\0.50561888,0.000032
 37,0.50560839,0.00005091,0.00005660,0.50556073,-0.11146997,-0.04920408
 ,0.00532007,0.54461667,-0.04926571,-0.14771196,0.00759932,-0.05206130,
 0.50658684,0.00531917,0.00758396,-0.07799020,0.00571540,0.00810875,0.5
 7997195,-0.01405395,0.00130354,-0.01370425,-0.17637390,-0.00189340,-0.
 13116479,0.19118833,-0.01844509,-0.00052627,-0.02003269,-0.00091922,-0
 .04730507,-0.00117185,0.00477762,0.05036115,0.00262641,0.00031794,0.00
 063794,-0.13198501,-0.00218208,-0.18179993,0.14513079,0.00174227,0.194
 66011,-0.00949303,0.00111831,0.01694440,-0.10052218,-0.00132406,0.1050
 7179,0.01147312,0.00014020,-0.02073915,0.10730392,-0.01147248,-0.00060
 561,0.02470436,-0.00070211,-0.04736398,0.00174900,0.00012552,-0.001083
 45,0.00005049,0.00422879,0.05044215,0.00056986,-0.00069647,-0.00389373
 ,0.10590240,0.00301644,-0.25743904,0.01097441,-0.00005387,-0.01910051,
 -0.11707021,-0.00349987,0.27835715,0.00979838,-0.01561761,-0.00182538,
 -0.13073362,0.12278107,0.01309749,-0.01221662,0.01789419,0.00343597,-0
 .00820628,0.01094175,0.00001020,0.13996755,0.01675374,-0.02225966,-0.0
 0263520,0.12114841,-0.22535721,-0.01910173,-0.00113812,0.00096173,0.00
 031975,-0.00120701,0.00101328,0.00004992,-0.13173165,0.24768358,-0.001
 79219,0.00241190,-0.00153994,0.01308840,-0.01936029,-0.04967742,-0.012
 53715,0.02004145,0.00256233,0.01595633,-0.02453583,-0.00150300,-0.0146
 9462,0.02077864,0.04889109,-0.11162688,0.04918428,0.00541473,0.0107188
 9,-0.01452264,-0.00168405,0.00053644,-0.00088470,0.00014014,0.00039460
 ,-0.00053449,-0.00025919,-0.00170300,-0.00503687,0.00026694,0.54456723
 ,0.04919644,-0.14765813,-0.00777497,0.01456593,-0.03517321,-0.00229847
 ,0.00111412,0.00140629,0.00006467,0.00104960,0.00140866,-0.00040547,-0
 .00291903,-0.00384160,0.00045159,0.05217129,0.50662069,0.00541538,-0.0
 0777027,-0.07802737,-0.00165342,0.00222254,0.00024065,0.00020161,-0.00
 099690,0.00003076,-0.00031532,0.00121850,0.00018041,0.00026817,0.00078
 000,-0.00000396,0.00578653,-0.00829154,0.58006751,-0.01404381,-0.00129
 477,-0.01373674,0.00053163,-0.00110699,0.00019913,0.00062244,0.0004162
 1,0.00011764,-0.00000226,0.00005432,0.00010357,0.00006799,-0.00007286,
 0.00028018,-0.17635278,0.00211257,-0.13119166,0.19114772,0.01842856,-0
 .00054295,0.02003625,0.00088770,0.00139994,0.00099756,-0.00041207,-0.0
 0050784,-0.00044540,-0.00006418,-0.00006016,-0.00002122,-0.00018350,0.
 00033203,-0.00022238,0.00113701,-0.04735847,0.00139848,-0.00500882,0.0
 5038694,0.00265500,-0.00031288,0.00070352,0.00014280,-0.00006474,0.000
 03291,0.00011754,0.00044123,0.00021519,-0.00013512,-0.00004063,-0.0001
 0074,0.00023903,0.00009015,0.00012927,-0.13200191,0.00240845,-0.181882
 07,0.14515084,-0.00198197,0.19474662,0.00979733,0.01564234,-0.00178811
 ,-0.00170299,0.00291152,0.00027433,0.00006733,0.00018321,0.00023963,-0
 .00007910,0.00010582,-0.00017203,0.00086107,0.00089507,-0.00003465,-0.
 13044736,-0.12271578,0.01279980,-0.01220841,-0.01790901,0.00339474,0.1
 3967729,-0.01670962,-0.02226926,0.00257906,0.00502401,-0.00381050,-0.0
 0078814,0.00007336,0.00033174,-0.00008899,0.00009993,0.00033375,0.0000
 6199,-0.00089254,-0.00174643,0.00013655,-0.12109779,-0.22554785,0.0186
 7839,0.00116184,0.00098456,-0.00032225,0.13165563,0.24791335,-0.001821
 94,-0.00246336,-0.00153753,0.00027573,-0.00045566,-0.00000658,0.000280
 23,0.00022264,0.00012955,-0.00021333,-0.00026756,0.00027411,-0.0000361
 6,-0.00014136,0.00063865,0.01279774,0.01893524,-0.04957226,-0.01251428
 ,-0.02006226,0.00249930,-0.01437785,-0.02029282,0.04878906,-0.00951488
 ,-0.00116793,0.01696571,0.00039163,-0.00104560,-0.00031668,-0.00000247
 ,0.00006532,-0.00013413,0.00051522,0.00025641,-0.00021573,-0.00007881,
 -0.00009970,-0.00021445,-0.10061845,0.00098682,0.10519702,0.01148520,-
 0.00010116,-0.02073862,-0.00820215,0.00116646,0.01593458,0.10741134,0.
 01147605,-0.00055580,-0.02468606,0.00053920,0.00141226,-0.00121756,-0.
 00005457,-0.00006023,0.00004139,-0.00026281,-0.00050036,0.00054710,-0.
 00010580,0.00033391,0.00026808,0.00034724,-0.04725323,-0.00114865,-0.0
 0015870,-0.00106462,-0.00001794,-0.01095016,0.00094610,0.02454997,-0.0
 0383383,0.05031221,0.00060392,0.00069703,-0.00392821,-0.00025760,0.000
 40698,0.00017757,0.00010333,0.00002434,-0.00009865,-0.00021336,-0.0005
 4741,0.00032166,-0.00017260,-0.00006217,0.00027497,0.10602209,-0.00241
 369,-0.25751936,0.01097715,0.00010538,-0.01910618,-0.00001718,-0.00004
 341,-0.00145116,-0.11721249,0.00285119,0.27842441,-0.12838629,0.000042
 37,-0.05280573,-0.02105786,-0.00560433,-0.01704549,-0.00162219,-0.0027
 0051,0.00052272,0.00039509,0.00080239,-0.00062069,0.00132165,0.0014273
 0,0.00033993,-0.02107636,0.00563310,-0.01705533,-0.00163864,0.00271524
 ,0.00053045,0.00131447,-0.00141765,0.00033540,0.00041641,-0.00082404,-
 0.00062504,0.52688381,0.00003557,-0.07711126,0.00003521,-0.02339096,-0
 .00330426,-0.02138012,-0.00398865,-0.00466710,-0.00022362,0.00063445,0
 .00079182,-0.00036185,-0.00058504,0.00069551,-0.00066050,0.02338480,-0
 .00331788,0.02136331,0.00399867,-0.00467554,0.00020978,0.00059249,0.00
 068099,0.00066224,-0.00065653,0.00081210,0.00036325,0.00010605,0.58101
 816,-0.05280428,0.00003509,-0.13162000,-0.00234700,-0.00306157,0.00011
 556,0.00159139,0.00110657,0.00075782,0.00127068,0.00086457,0.00078397,
 0.00026081,0.00036859,-0.00003176,-0.00230047,0.00305153,0.00016259,0.
 00160095,-0.00111783,0.00075685,0.00026087,-0.00036298,-0.00003147,0.0
 0127055,-0.00086451,0.00078243,-0.05576523,0.00002008,0.52319975,-0.01
 387979,-0.01901061,0.00328784,-0.00298108,0.00127295,-0.00416412,-0.00
 079276,-0.00148395,-0.00024228,0.00030820,0.00033612,-0.00003551,0.000
 20857,-0.00012823,-0.00003134,0.00052335,-0.00133648,0.00072312,0.0004
 1418,0.00024083,0.00004716,-0.00016951,0.00095226,-0.00032074,-0.00004
 555,-0.00001366,-0.00001585,-0.13466073,-0.12288993,0.01188940,0.14614
 243,0.00074218,-0.00136469,0.00040793,-0.00001772,0.00102521,-0.000835
 44,-0.00039438,0.00015535,-0.00001155,0.00013041,0.00000103,0.00011375
 ,0.00015170,0.00042261,0.00016896,0.00072793,0.00087392,0.00015038,-0.
 00000779,0.00017319,-0.00013310,-0.00014250,0.00034306,0.00013366,0.00
 000322,-0.00005736,-0.00007127,-0.12386739,-0.22193200,0.01652729,0.13
 651085,0.23899738,-0.01305055,-0.01995987,0.00125472,-0.00309240,0.000
 49613,-0.00356160,-0.00114278,-0.00113387,0.00039296,-0.00027607,0.000
 00844,0.00021598,0.00014899,0.00019850,-0.00010440,0.00070468,-0.00078
 215,0.00057195,0.00026735,-0.00009979,-0.00005781,0.00004349,0.0004412
 9,0.00015540,0.00004165,0.00018982,-0.00006001,0.01270356,0.01754003,-
 0.04902830,-0.01026246,-0.01846675,0.05127301,-0.01388586,0.01899094,0
 .00332408,0.00052815,0.00133455,0.00072921,0.00041443,-0.00024029,0.00
 004657,-0.00004383,0.00001560,-0.00001594,-0.00017338,-0.00095989,-0.0
 0032483,-0.00298184,-0.00127150,-0.00416750,-0.00079701,0.00148754,-0.
 00023854,0.00020878,0.00012891,-0.00003058,0.00031245,-0.00034027,-0.0
 0003590,-0.13484602,0.12292912,0.01221249,0.01195911,-0.01564538,-0.00
 191459,0.14634109,-0.00072222,-0.00138898,-0.00040543,-0.00072293,0.00
 087221,-0.00014436,0.00000728,0.00017150,0.00013361,-0.00000352,-0.000
 05650,0.00007102,0.00013911,0.00033855,-0.00013637,0.00002070,0.001022
 83,0.00084135,0.00039630,0.00015455,0.00001083,-0.00015165,0.00042308,
 -0.00016769,-0.00012990,0.00000166,-0.00011434,0.12389265,-0.22159951,
 -0.01695972,0.01568563,-0.01985594,-0.00251919,-0.13655582,0.23863724,
 -0.01307288,0.01994123,0.00129701,0.00070314,0.00078525,0.00057481,0.0
 0026687,0.00010005,-0.00005726,0.00004163,-0.00018811,-0.00006095,0.00
 004081,-0.00044803,0.00015252,-0.00309625,-0.00049041,-0.00356332,-0.0
 0114566,0.00113602,0.00039575,0.00014843,-0.00019606,-0.00010477,-0.00
 027342,-0.00001258,0.00021570,0.01302376,-0.01796496,-0.04910789,-0.00
 188100,0.00247741,-0.00081362,-0.01060977,0.01892532,0.05134919,0.0094
 8698,0.00002829,-0.02075556,0.00130953,0.00053366,-0.00058205,0.000183
 72,0.00021783,0.00016096,-0.00021885,-0.00008490,0.00025199,-0.0001065
 4,-0.00007096,0.00011801,0.00131530,-0.00053381,-0.00057741,0.00018613
 ,-0.00022082,0.00016088,-0.00010680,0.00007145,0.00011709,-0.00022648,
 0.00009294,0.00025611,-0.09724794,-0.00018078,0.10405721,-0.00815864,0
 .00138068,0.01599956,-0.00816748,-0.00142822,0.01602709,0.10403633,-0.
 00000399,-0.00181347,0.00001548,0.00041257,0.00009209,-0.00081784,0.00
 004350,-0.00007906,0.00018471,-0.00038156,0.00010342,-0.00005443,0.000
 09305,-0.00002416,-0.00008139,-0.00041576,0.00009140,0.00081085,-0.000
 04341,-0.00007794,-0.00018584,-0.00009299,-0.00002474,0.00008141,0.000
 38379,0.00010229,0.00005032,-0.00017766,-0.04762326,0.00036130,-0.0108
 9625,0.00075646,0.02454495,0.01088591,0.00081841,-0.02452628,0.0001882
 5,0.04659551,0.01198051,0.00003139,-0.02167603,0.00125312,0.00050377,0
 .00056649,-0.00011995,0.00014248,0.00042268,-0.00078879,-0.00057907,0.
 00044128,-0.00006153,0.00002762,-0.00003141,0.00125300,-0.00050472,0.0
 0057087,-0.00011774,-0.00014678,0.00042153,-0.00006213,-0.00002703,-0.
 00003075,-0.00078387,0.00057877,0.00044803,0.10243896,0.00034693,-0.26
 049726,0.00022010,-0.00007898,-0.00131269,0.00024167,0.00008639,-0.001
 35927,-0.11068819,-0.00038650,0.28554702,-0.09821146,-0.00005038,0.042
 05395,-0.01348599,-0.00445099,0.02137470,0.00024548,0.00049887,0.00079
 564,-0.00201587,-0.00290946,0.00036337,0.00102414,0.00125327,-0.000674
 32,-0.01348438,0.00440177,0.02140156,0.00025243,-0.00051586,0.00079440
 ,0.00101792,-0.00124643,-0.00067591,-0.00203319,0.00292528,0.00037188,
 0.00989948,0.00001145,-0.02176219,0.00054334,0.00024203,-0.00059860,0.
 00054999,-0.00024111,-0.00059287,-0.00301206,0.00000473,-0.00521211,0.
 55894916,-0.00002156,-0.07725941,0.00007118,-0.01578894,-0.00335133,0.
 02748963,0.00072127,0.00079205,0.00015037,-0.00373531,-0.00466977,0.00
 142069,-0.00035382,0.00070018,0.00081140,0.01575072,-0.00325673,-0.027
 44712,-0.00072852,0.00080632,-0.00014941,0.00036107,0.00069885,-0.0008
 0739,0.00375322,-0.00467930,-0.00143423,-0.00002099,0.00000896,0.00002
 716,0.00009240,0.00009539,-0.00115057,-0.00009651,0.00009410,0.0011464
 7,0.00000512,0.00003565,0.00000371,0.00007567,0.58108457,0.04206282,0.
 00007862,-0.16200322,0.00664178,0.00462572,-0.00740799,-0.00110368,-0.
 00107444,0.00093551,-0.00070863,-0.00024196,0.00115062,-0.00059765,-0.
 00078368,0.00026579,0.00667199,-0.00461142,-0.00746683,-0.00110376,0.0
 0107319,0.00093543,-0.00059485,0.00078303,0.00026615,-0.00069794,0.000
 22592,0.00114744,0.00769039,0.00004684,-0.03411420,0.00121897,0.000197
 98,0.00131412,0.00121871,-0.00020130,0.00132712,-0.00306555,0.00000154
 ,-0.00254407,0.04454343,0.00014374,0.49148158,-0.00965106,0.01201988,0
 .00018292,0.00011154,0.00102683,-0.00057458,-0.00005351,0.00007206,0.0
 0001402,0.00027913,-0.00025867,-0.00015445,-0.00006141,-0.00077411,0.0
 0039275,-0.00093113,-0.00106644,0.00332510,0.00039304,-0.00032024,-0.0
 0002100,0.00014616,0.00018099,-0.00004903,-0.00028542,0.00107101,0.000
 45886,0.00044278,-0.00043885,-0.00094424,-0.00000063,-0.00011227,0.000
 05149,0.00054939,-0.00009548,0.00017560,-0.00003906,-0.00021643,-0.000
 03052,-0.13404613,0.12238395,0.01526894,0.14351189,-0.00061553,-0.0013
 4322,0.00062075,-0.00064735,0.00087357,0.00036335,-0.00002606,-0.00005
 676,-0.00006667,-0.00003402,0.00017123,-0.00012944,0.00018144,0.000349
 31,0.00008367,-0.00024040,0.00102333,-0.00079373,-0.00009030,0.0000013
 6,0.00014807,-0.00009318,0.00042205,0.00020680,0.00037134,0.00015719,-
 0.00013052,-0.00017075,0.00009555,0.00026117,0.00012237,-0.00010360,0.
 00001149,-0.00024771,0.00026113,-0.00046550,-0.00022668,0.00020667,-0.
 00004322,0.12300742,-0.22148854,-0.02194522,-0.13565510,0.23851101,0.0
 1654239,-0.02477406,-0.00299787,-0.00055436,-0.00114767,0.00098108,-0.
 00004437,0.00017459,-0.00005178,-0.00037534,-0.00002283,0.00007697,0.0
 0002561,0.00071425,0.00004258,0.00225583,0.00086784,-0.00561357,0.0002
 1476,0.00011561,0.00013657,-0.00022926,0.00015123,-0.00004102,0.001364
 33,-0.00153573,-0.00012016,0.00086936,-0.00106398,0.00143879,-0.000069
 86,0.00004983,-0.00005927,-0.00049844,0.00052115,-0.00047494,-0.000089
 55,0.00028445,0.00035914,0.01446010,-0.02068297,-0.04988924,-0.0191946
 1,0.02393123,0.05417720,-0.00964365,-0.01200211,0.00017235,-0.00093275
 ,0.00105630,0.00332913,0.00039114,0.00031825,-0.00001993,-0.00028239,-
 0.00106990,0.00045631,0.00014652,-0.00018094,-0.00004914,0.00011580,-0
 .00103270,-0.00058237,-0.00005452,-0.00007049,0.00001414,-0.00005773,0
 .00077258,0.00038949,0.00027920,0.00025877,-0.00015420,0.00043790,0.00
 043902,-0.00094315,0.00055641,0.00009576,0.00018322,-0.00000086,0.0001
 1247,0.00005187,-0.00003872,0.00021681,-0.00003004,-0.13393206,-0.1224
 8837,0.01497870,0.01188000,0.01570181,-0.00213238,0.14336974,0.0005748
 1,-0.00140291,-0.00062484,0.00023293,0.00102389,0.00081279,0.00008961,
 0.00000177,-0.00014868,-0.00037481,0.00015261,0.00013145,0.00009365,0.
 00042354,-0.00020565,0.00064740,0.00087290,-0.00036060,0.00002588,-0.0
 0005681,0.00006685,-0.00017961,0.00034622,-0.00008381,0.00003423,0.000
 17183,0.00012962,0.00016924,0.00009324,-0.00026305,0.00025284,0.000262
 24,0.00047592,-0.00012186,-0.00010169,-0.00001444,0.00022655,0.0002077
 0,0.00004265,-0.12310451,-0.22198445,0.02156368,-0.01566434,-0.0198594
 9,0.00236190,0.13574115,0.23903729,0.01654886,0.02479550,-0.00294309,0
 .00225959,-0.00084786,-0.00561921,0.00021848,-0.00011147,0.00013495,0.
 00135959,0.00153374,-0.00011650,-0.00022981,-0.00015194,-0.00004206,-0
 .00055899,0.00115171,0.00098531,-0.00004323,-0.00017663,-0.00005192,0.
 00002400,-0.00071396,0.00004543,-0.00037584,0.00002327,0.00007739,0.00
 087203,0.00106272,0.00144514,-0.00049679,-0.00052012,-0.00046854,-0.00
 007075,-0.00005092,-0.00005950,-0.00008924,-0.00028498,0.00035863,0.01
 415857,0.02029562,-0.04975226,-0.00216417,-0.00240317,-0.00073400,-0.0
 1888298,-0.02353225,0.05401600,0.00915905,-0.00001483,0.01089881,0.001
 05230,0.00035814,0.00042142,-0.00000701,0.00009000,-0.00010996,0.00019
 453,0.00016529,-0.00008834,-0.00011621,-0.00007745,-0.00008986,0.00105
 059,-0.00035590,0.00042473,-0.00000332,-0.00009074,-0.00011177,-0.0001
 1630,0.00007661,-0.00009042,0.00019594,-0.00016665,-0.00008910,-0.0005
 7556,-0.00000089,0.00245221,0.00003309,0.00020266,0.00019347,0.0000328
 9,-0.00020331,0.00019265,0.00080457,-0.00000057,0.00050751,-0.17226080
 ,0.00009061,-0.13242367,-0.01224559,-0.00133730,-0.01254419,-0.0122340
 5,0.00135682,-0.01252931,0.18503587,0.00001648,-0.00179482,0.00003305,
 0.00064385,0.00009152,0.00065048,-0.00034859,0.00010419,0.00016180,-0.
 00001443,-0.00007814,-0.00018976,0.00011301,-0.00002516,0.00005018,-0.
 00063870,0.00008709,-0.00065500,0.00034637,0.00010544,-0.00016661,-0.0
 0011228,-0.00002498,-0.00005003,0.00001386,-0.00007865,0.00018893,-0.0
 0000502,0.00003449,0.00000631,0.00029287,0.00020773,0.00020563,-0.0002
 9334,0.00020733,-0.00020536,0.00000139,0.00063305,0.00000259,0.0000982
 4,-0.04762654,0.00011778,0.01784720,0.00077921,0.02005513,-0.01786843,
 0.00081213,-0.02006926,-0.00009249,0.04656610,-0.02183337,0.00002766,-
 0.02129672,-0.00141262,-0.00064504,0.00084095,0.00093235,0.00057946,0.
 00022833,0.00019090,-0.00020583,0.00041233,0.00009066,-0.00000332,-0.0
 0002326,-0.00141281,0.00064182,0.00083868,0.00094150,-0.00058822,0.000
 22577,0.00009076,0.00000409,-0.00002211,0.00018934,0.00020751,0.000414
 14,0.00459097,0.00000464,-0.00501201,0.00013337,-0.00010995,0.00028810
 ,0.00013412,0.00010965,0.00028942,-0.00130133,0.00000224,-0.00168418,-
 0.13080158,0.00011173,-0.18564594,0.00326292,0.00035094,0.00276952,0.0
 0321899,-0.00035153,0.00272423,0.14298582,-0.00013585,0.20465275\\0.00
 001226,-0.00000949,0.00000488,0.00000031,0.00001088,0.00000369,0.00000
 020,0.00000137,-0.00000076,0.00000344,-0.00000490,0.00000139,-0.000004
 80,0.00000267,-0.00000508,-0.00000340,-0.00000125,-0.00000330,0.000003
 40,-0.00000176,-0.00000036,-0.00000360,0.00000392,-0.00000236,0.000002
 97,-0.00000310,0.00000624,-0.00001331,0.00001788,0.00000859,0.00000227
 ,-0.00000213,-0.00000255,0.00000151,-0.00001021,-0.00000589,0.00000366
 ,-0.00000572,0.00000125,-0.00000185,0.,-0.00000370,-0.00000299,-0.0000
 0035,-0.00000272,0.00000308,0.00000304,0.00000137,-0.00000315,-0.00000
 086,-0.00000068\\\@


 Any fool can criticize, condemn, and complain -- and most do.
 -- Dale Carnegie
 Job cpu time:       0 days  1 hours 34 minutes  7.4 seconds.
 File lengths (MBytes):  RWF=     81 Int=      0 D2E=      0 Chk=      5 Scr=      1
 Normal termination of Gaussian 09 at Sat Jul 10 19:55:30 2021.
