 Entering Gaussian System, Link 0=g09
 Initial command:
 /home/minenky/programs//g09/l1.exe "/local/scratch/minenky/m1_00_31541-07-8-C32H18_wB97XD/Gau-48785.inp" -scrdir="/local/scratch/minenky/m1_00_31541-07-8-C32H18_wB97XD/"
 Entering Link 1 = /home/minenky/programs//g09/l1.exe PID=     48786.
  
 Copyright (c) 1988,1990,1992,1993,1995,1998,2003,2009,2013,
            Gaussian, Inc.  All Rights Reserved.
  
 This is part of the Gaussian(R) 09 program.  It is based on
 the Gaussian(R) 03 system (copyright 2003, Gaussian, Inc.),
 the Gaussian(R) 98 system (copyright 1998, Gaussian, Inc.),
 the Gaussian(R) 94 system (copyright 1995, Gaussian, Inc.),
 the Gaussian 92(TM) system (copyright 1992, Gaussian, Inc.),
 the Gaussian 90(TM) system (copyright 1990, Gaussian, Inc.),
 the Gaussian 88(TM) system (copyright 1988, Gaussian, Inc.),
 the Gaussian 86(TM) system (copyright 1986, Carnegie Mellon
 University), and the Gaussian 82(TM) system (copyright 1983,
 Carnegie Mellon University). Gaussian is a federally registered
 trademark of Gaussian, Inc.
  
 This software contains proprietary and confidential information,
 including trade secrets, belonging to Gaussian, Inc.
  
 This software is provided under written license and may be
 used, copied, transmitted, or stored only in accord with that
 written license.
  
 The following legend is applicable only to US Government
 contracts under FAR:
  
                    RESTRICTED RIGHTS LEGEND
  
 Use, reproduction and disclosure by the US Government is
 subject to restrictions as set forth in subparagraphs (a)
 and (c) of the Commercial Computer Software - Restricted
 Rights clause in FAR 52.227-19.
  
 Gaussian, Inc.
 340 Quinnipiac St., Bldg. 40, Wallingford CT 06492
  
  
 ---------------------------------------------------------------
 Warning -- This program may not be used in any manner that
 competes with the business of Gaussian, Inc. or will provide
 assistance to any competitor of Gaussian, Inc.  The licensee
 of this program is prohibited from giving any competitor of
 Gaussian, Inc. access to this program.  By using this program,
 the user acknowledges that Gaussian, Inc. is engaged in the
 business of creating and licensing software in the field of
 computational chemistry and represents and warrants to the
 licensee that it is not a competitor of Gaussian, Inc. and that
 it will not use this program in any manner prohibited above.
 ---------------------------------------------------------------
  

 Cite this work as:
 Gaussian 09, Revision D.01,
 M. J. Frisch, G. W. Trucks, H. B. Schlegel, G. E. Scuseria, 
 M. A. Robb, J. R. Cheeseman, G. Scalmani, V. Barone, B. Mennucci, 
 G. A. Petersson, H. Nakatsuji, M. Caricato, X. Li, H. P. Hratchian, 
 A. F. Izmaylov, J. Bloino, G. Zheng, J. L. Sonnenberg, M. Hada, 
 M. Ehara, K. Toyota, R. Fukuda, J. Hasegawa, M. Ishida, T. Nakajima, 
 Y. Honda, O. Kitao, H. Nakai, T. Vreven, J. A. Montgomery, Jr., 
 J. E. Peralta, F. Ogliaro, M. Bearpark, J. J. Heyd, E. Brothers, 
 K. N. Kudin, V. N. Staroverov, T. Keith, R. Kobayashi, J. Normand, 
 K. Raghavachari, A. Rendell, J. C. Burant, S. S. Iyengar, J. Tomasi, 
 M. Cossi, N. Rega, J. M. Millam, M. Klene, J. E. Knox, J. B. Cross, 
 V. Bakken, C. Adamo, J. Jaramillo, R. Gomperts, R. E. Stratmann, 
 O. Yazyev, A. J. Austin, R. Cammi, C. Pomelli, J. W. Ochterski, 
 R. L. Martin, K. Morokuma, V. G. Zakrzewski, G. A. Voth, 
 P. Salvador, J. J. Dannenberg, S. Dapprich, A. D. Daniels, 
 O. Farkas, J. B. Foresman, J. V. Ortiz, J. Cioslowski, 
 and D. J. Fox, Gaussian, Inc., Wallingford CT, 2013.
 
 ******************************************
 Gaussian 09:  AM64L-G09RevD.01 24-Apr-2013
                27-Jul-2019 
 ******************************************
 %Mem=32000MB
 %NProcShared=16
 Will use up to   16 processors via shared memory.
 %Chk=m1_00_31541-07-8-C32H18_wB97XD
 ----------------------------------------------------------------------
 #P wB97XD/def2tzvp opt=(tight) freq integral(Grid=ultrafine) # SCF(Max
 Cycle=380) 5d 7f GFPrint
 ----------------------------------------------------------------------
 1/7=10,14=-1,18=20,19=15,26=4,38=1/1,3;
 2/9=110,12=2,17=6,18=5,40=1/2;
 3/5=44,7=101,8=11,11=2,16=1,24=100,25=1,30=1,71=1,74=-58,75=-5/1,2,3;
 4//1;
 5/5=2,7=380,38=5/2;
 6/7=2,8=2,9=2,10=2,28=1/1;
 7//1,2,3,16;
 1/7=10,14=-1,18=20,19=15,26=4/3(2);
 2/9=110/2;
 99//99;
 2/9=110/2;
 3/5=44,7=101,8=11,11=2,16=1,25=1,30=1,71=1,74=-58,75=-5/1,2,3;
 4/5=5,16=3,69=1/1;
 5/5=2,7=380,38=5/2;
 7//1,2,3,16;
 1/7=10,14=-1,18=20,19=15,26=4/3(-5);
 2/9=110/2;
 6/7=2,8=2,9=2,10=2,19=2,28=1/1;
 99/9=1/99;
 Leave Link    1 at Sat Jul 27 15:34:22 2019, MaxMem=  4194304000 cpu:         0.9
 (Enter /home/minenky/programs//g09/l101.exe)
 ---------------------------------------
 The PBEPBE optimization and frequencies
 ---------------------------------------
 Symbolic Z-matrix:
 Charge =  0 Multiplicity = 1
 C                     2.1778    10.1331   4.6567 
 C                     2.8022    11.0051   3.7367 
 C                     2.1698    12.1743   3.3904 
 C                     0.9256    12.5397   3.9757 
 C                     0.3543    11.7338   5.0195 
 C                     0.9954    10.4855   5.2725 
 C                    -0.868     12.1806   5.6588 
 C                    -1.6227    13.2033   5.0434 
 C                    -1.0695    13.9344   3.9287 
 C                     0.2053    13.6448   3.4814 
 C                    -1.8439    14.9685   3.2878 
 C                    -3.0964    15.2601   3.7 
 C                    -3.6859    14.5835   4.8289 
 C                    -2.9434    13.5609   5.5266 
 C                    -3.5178    12.9111   6.6406 
 C                    -4.7477    13.4376   7.199 
 C                    -5.5083    14.3847   6.4315 
 C                    -4.9641    14.9074   5.2419 
 C                    -6.7636    14.8509   6.9125 
 C                    -7.2299    14.4851   8.1516 
 C                    -6.4229    13.6693   8.9761 
 C                    -5.2241    13.1671   8.5156 
 C                    -1.4048    11.5703   6.8755 
 C                    -0.6372    10.7811   7.736 
 C                    -1.2045    9.9855    8.7487 
 C                    -0.4239    9.1569    9.6057 
 C                    -1.0301    8.313     10.5047 
 C                    -2.4481    8.2544    10.594 
 C                    -3.229     9.0547    9.7954 
 C                    -2.6323    9.9558    8.8671 
 C                    -3.3821    10.8748   8.1098 
 C                    -2.7948    11.7798   7.2221 
 H                     2.6199    9.1629    4.8665 
 H                     3.7458    10.7289   3.2745 
 H                     2.5916    12.8291   2.6315 
 H                     0.5187    9.7611    5.9181 
 H                     0.6377    14.2387   2.679 
 H                    -1.3948    15.495    2.4495 
 H                    -3.685     16.026    3.2015 
 H                    -5.5398    15.6364   4.6756 
 H                    -7.3305    15.5362   6.2867 
 H                    -8.1841    14.8563   8.5152 
 H                    -6.7367    13.4517   9.9935 
 H                    -4.6079    12.6024   9.2015 
 H                     0.44      10.765    7.6292 
 H                     0.6601    9.1924    9.524 
 H                    -0.4272    7.6792    11.1494 
 H                    -2.9115    7.5754    11.3046 
 H                    -4.3134    9.0235    9.8722 
 H                    -4.4572    10.8713   8.2369 
 
 NAtoms=     50 NQM=       50 NQMF=       0 NMMI=      0 NMMIF=      0
                NMic=       0 NMicF=      0.
                    Isotopes and Nuclear Properties:
 (Nuclear quadrupole moments (NQMom) in fm**2, nuclear magnetic moments (NMagM)
  in nuclear magnetons)

  Atom         1           2           3           4           5           6           7           8           9          10
 IAtWgt=          12          12          12          12          12          12          12          12          12          12
 AtmWgt=  12.0000000  12.0000000  12.0000000  12.0000000  12.0000000  12.0000000  12.0000000  12.0000000  12.0000000  12.0000000
 NucSpn=           0           0           0           0           0           0           0           0           0           0
 AtZEff=   0.0000000   0.0000000   0.0000000   0.0000000   0.0000000   0.0000000   0.0000000   0.0000000   0.0000000   0.0000000
 NQMom=    0.0000000   0.0000000   0.0000000   0.0000000   0.0000000   0.0000000   0.0000000   0.0000000   0.0000000   0.0000000
 NMagM=    0.0000000   0.0000000   0.0000000   0.0000000   0.0000000   0.0000000   0.0000000   0.0000000   0.0000000   0.0000000
 AtZNuc=   6.0000000   6.0000000   6.0000000   6.0000000   6.0000000   6.0000000   6.0000000   6.0000000   6.0000000   6.0000000

  Atom        11          12          13          14          15          16          17          18          19          20
 IAtWgt=          12          12          12          12          12          12          12          12          12          12
 AtmWgt=  12.0000000  12.0000000  12.0000000  12.0000000  12.0000000  12.0000000  12.0000000  12.0000000  12.0000000  12.0000000
 NucSpn=           0           0           0           0           0           0           0           0           0           0
 AtZEff=   0.0000000   0.0000000   0.0000000   0.0000000   0.0000000   0.0000000   0.0000000   0.0000000   0.0000000   0.0000000
 NQMom=    0.0000000   0.0000000   0.0000000   0.0000000   0.0000000   0.0000000   0.0000000   0.0000000   0.0000000   0.0000000
 NMagM=    0.0000000   0.0000000   0.0000000   0.0000000   0.0000000   0.0000000   0.0000000   0.0000000   0.0000000   0.0000000
 AtZNuc=   6.0000000   6.0000000   6.0000000   6.0000000   6.0000000   6.0000000   6.0000000   6.0000000   6.0000000   6.0000000

  Atom        21          22          23          24          25          26          27          28          29          30
 IAtWgt=          12          12          12          12          12          12          12          12          12          12
 AtmWgt=  12.0000000  12.0000000  12.0000000  12.0000000  12.0000000  12.0000000  12.0000000  12.0000000  12.0000000  12.0000000
 NucSpn=           0           0           0           0           0           0           0           0           0           0
 AtZEff=   0.0000000   0.0000000   0.0000000   0.0000000   0.0000000   0.0000000   0.0000000   0.0000000   0.0000000   0.0000000
 NQMom=    0.0000000   0.0000000   0.0000000   0.0000000   0.0000000   0.0000000   0.0000000   0.0000000   0.0000000   0.0000000
 NMagM=    0.0000000   0.0000000   0.0000000   0.0000000   0.0000000   0.0000000   0.0000000   0.0000000   0.0000000   0.0000000
 AtZNuc=   6.0000000   6.0000000   6.0000000   6.0000000   6.0000000   6.0000000   6.0000000   6.0000000   6.0000000   6.0000000

  Atom        31          32          33          34          35          36          37          38          39          40
 IAtWgt=          12          12           1           1           1           1           1           1           1           1
 AtmWgt=  12.0000000  12.0000000   1.0078250   1.0078250   1.0078250   1.0078250   1.0078250   1.0078250   1.0078250   1.0078250
 NucSpn=           0           0           1           1           1           1           1           1           1           1
 AtZEff=   0.0000000   0.0000000   0.0000000   0.0000000   0.0000000   0.0000000   0.0000000   0.0000000   0.0000000   0.0000000
 NQMom=    0.0000000   0.0000000   0.0000000   0.0000000   0.0000000   0.0000000   0.0000000   0.0000000   0.0000000   0.0000000
 NMagM=    0.0000000   0.0000000   2.7928460   2.7928460   2.7928460   2.7928460   2.7928460   2.7928460   2.7928460   2.7928460
 AtZNuc=   6.0000000   6.0000000   1.0000000   1.0000000   1.0000000   1.0000000   1.0000000   1.0000000   1.0000000   1.0000000

  Atom        41          42          43          44          45          46          47          48          49          50
 IAtWgt=           1           1           1           1           1           1           1           1           1           1
 AtmWgt=   1.0078250   1.0078250   1.0078250   1.0078250   1.0078250   1.0078250   1.0078250   1.0078250   1.0078250   1.0078250
 NucSpn=           1           1           1           1           1           1           1           1           1           1
 AtZEff=   0.0000000   0.0000000   0.0000000   0.0000000   0.0000000   0.0000000   0.0000000   0.0000000   0.0000000   0.0000000
 NQMom=    0.0000000   0.0000000   0.0000000   0.0000000   0.0000000   0.0000000   0.0000000   0.0000000   0.0000000   0.0000000
 NMagM=    2.7928460   2.7928460   2.7928460   2.7928460   2.7928460   2.7928460   2.7928460   2.7928460   2.7928460   2.7928460
 AtZNuc=   1.0000000   1.0000000   1.0000000   1.0000000   1.0000000   1.0000000   1.0000000   1.0000000   1.0000000   1.0000000
 Leave Link  101 at Sat Jul 27 15:34:23 2019, MaxMem=  4194304000 cpu:         5.2
 (Enter /home/minenky/programs//g09/l103.exe)

 GradGradGradGradGradGradGradGradGradGradGradGradGradGradGradGradGradGrad
 Berny optimization.
 Initialization pass.
                           ----------------------------
                           !    Initial Parameters    !
                           ! (Angstroms and Degrees)  !
 --------------------------                            --------------------------
 ! Name  Definition              Value          Derivative Info.                !
 --------------------------------------------------------------------------------
 ! R1    R(1,2)                  1.413          estimate D2E/DX2                !
 ! R2    R(1,6)                  1.3789         estimate D2E/DX2                !
 ! R3    R(1,33)                 1.0866         estimate D2E/DX2                !
 ! R4    R(2,3)                  1.3736         estimate D2E/DX2                !
 ! R5    R(2,34)                 1.0864         estimate D2E/DX2                !
 ! R6    R(3,4)                  1.4227         estimate D2E/DX2                !
 ! R7    R(3,35)                 1.0875         estimate D2E/DX2                !
 ! R8    R(4,5)                  1.4371         estimate D2E/DX2                !
 ! R9    R(4,10)                 1.4087         estimate D2E/DX2                !
 ! R10   R(5,6)                  1.4259         estimate D2E/DX2                !
 ! R11   R(5,7)                  1.4499         estimate D2E/DX2                !
 ! R12   R(6,36)                 1.0811         estimate D2E/DX2                !
 ! R13   R(7,8)                  1.4122         estimate D2E/DX2                !
 ! R14   R(7,23)                 1.4632         estimate D2E/DX2                !
 ! R15   R(8,9)                  1.4433         estimate D2E/DX2                !
 ! R16   R(8,14)                 1.4511         estimate D2E/DX2                !
 ! R17   R(9,10)                 1.3817         estimate D2E/DX2                !
 ! R18   R(9,11)                 1.4422         estimate D2E/DX2                !
 ! R19   R(10,37)                1.0879         estimate D2E/DX2                !
 ! R20   R(11,12)                1.3504         estimate D2E/DX2                !
 ! R21   R(11,38)                1.087          estimate D2E/DX2                !
 ! R22   R(12,13)                1.4421         estimate D2E/DX2                !
 ! R23   R(12,39)                1.087          estimate D2E/DX2                !
 ! R24   R(13,14)                1.4435         estimate D2E/DX2                !
 ! R25   R(13,18)                1.3818         estimate D2E/DX2                !
 ! R26   R(14,15)                1.4118         estimate D2E/DX2                !
 ! R27   R(15,16)                1.4497         estimate D2E/DX2                !
 ! R28   R(15,32)                1.4631         estimate D2E/DX2                !
 ! R29   R(16,17)                1.4369         estimate D2E/DX2                !
 ! R30   R(16,22)                1.426          estimate D2E/DX2                !
 ! R31   R(17,18)                1.4087         estimate D2E/DX2                !
 ! R32   R(17,19)                1.4228         estimate D2E/DX2                !
 ! R33   R(18,40)                1.0879         estimate D2E/DX2                !
 ! R34   R(19,20)                1.3735         estimate D2E/DX2                !
 ! R35   R(19,41)                1.0875         estimate D2E/DX2                !
 ! R36   R(20,21)                1.413          estimate D2E/DX2                !
 ! R37   R(20,42)                1.0865         estimate D2E/DX2                !
 ! R38   R(21,22)                1.3789         estimate D2E/DX2                !
 ! R39   R(21,43)                1.0867         estimate D2E/DX2                !
 ! R40   R(22,44)                1.0812         estimate D2E/DX2                !
 ! R41   R(23,24)                1.3973         estimate D2E/DX2                !
 ! R42   R(23,32)                1.4478         estimate D2E/DX2                !
 ! R43   R(24,25)                1.4073         estimate D2E/DX2                !
 ! R44   R(24,45)                1.0826         estimate D2E/DX2                !
 ! R45   R(25,26)                1.4249         estimate D2E/DX2                !
 ! R46   R(25,30)                1.433          estimate D2E/DX2                !
 ! R47   R(26,27)                1.374          estimate D2E/DX2                !
 ! R48   R(26,46)                1.0877         estimate D2E/DX2                !
 ! R49   R(27,28)                1.422          estimate D2E/DX2                !
 ! R50   R(27,47)                1.0867         estimate D2E/DX2                !
 ! R51   R(28,29)                1.3741         estimate D2E/DX2                !
 ! R52   R(28,48)                1.0866         estimate D2E/DX2                !
 ! R53   R(29,30)                1.4247         estimate D2E/DX2                !
 ! R54   R(29,49)                1.0876         estimate D2E/DX2                !
 ! R55   R(30,31)                1.4072         estimate D2E/DX2                !
 ! R56   R(31,32)                1.3971         estimate D2E/DX2                !
 ! R57   R(31,50)                1.0826         estimate D2E/DX2                !
 ! A1    A(2,1,6)              120.7941         estimate D2E/DX2                !
 ! A2    A(2,1,33)             119.7962         estimate D2E/DX2                !
 ! A3    A(6,1,33)             119.3947         estimate D2E/DX2                !
 ! A4    A(1,2,3)              119.0761         estimate D2E/DX2                !
 ! A5    A(1,2,34)             120.2586         estimate D2E/DX2                !
 ! A6    A(3,2,34)             120.5974         estimate D2E/DX2                !
 ! A7    A(2,3,4)              121.1653         estimate D2E/DX2                !
 ! A8    A(2,3,35)             120.6556         estimate D2E/DX2                !
 ! A9    A(4,3,35)             118.1414         estimate D2E/DX2                !
 ! A10   A(3,4,5)              120.1602         estimate D2E/DX2                !
 ! A11   A(3,4,10)             120.2844         estimate D2E/DX2                !
 ! A12   A(5,4,10)             119.4394         estimate D2E/DX2                !
 ! A13   A(4,5,6)              116.1709         estimate D2E/DX2                !
 ! A14   A(4,5,7)              118.852          estimate D2E/DX2                !
 ! A15   A(6,5,7)              124.7882         estimate D2E/DX2                !
 ! A16   A(1,6,5)              122.0062         estimate D2E/DX2                !
 ! A17   A(1,6,36)             118.2638         estimate D2E/DX2                !
 ! A18   A(5,6,36)             119.6231         estimate D2E/DX2                !
 ! A19   A(5,7,8)              118.7861         estimate D2E/DX2                !
 ! A20   A(5,7,23)             123.1867         estimate D2E/DX2                !
 ! A21   A(8,7,23)             117.9285         estimate D2E/DX2                !
 ! A22   A(7,8,9)              119.9059         estimate D2E/DX2                !
 ! A23   A(7,8,14)             121.3169         estimate D2E/DX2                !
 ! A24   A(9,8,14)             118.764          estimate D2E/DX2                !
 ! A25   A(8,9,10)             119.8345         estimate D2E/DX2                !
 ! A26   A(8,9,11)             120.0419         estimate D2E/DX2                !
 ! A27   A(10,9,11)            120.123          estimate D2E/DX2                !
 ! A28   A(4,10,9)             121.5069         estimate D2E/DX2                !
 ! A29   A(4,10,37)            118.9362         estimate D2E/DX2                !
 ! A30   A(9,10,37)            119.4107         estimate D2E/DX2                !
 ! A31   A(9,11,12)            121.1456         estimate D2E/DX2                !
 ! A32   A(9,11,38)            117.9156         estimate D2E/DX2                !
 ! A33   A(12,11,38)           120.9296         estimate D2E/DX2                !
 ! A34   A(11,12,13)           121.115          estimate D2E/DX2                !
 ! A35   A(11,12,39)           120.9563         estimate D2E/DX2                !
 ! A36   A(13,12,39)           117.9194         estimate D2E/DX2                !
 ! A37   A(12,13,14)           120.03           estimate D2E/DX2                !
 ! A38   A(12,13,18)           120.1411         estimate D2E/DX2                !
 ! A39   A(14,13,18)           119.8283         estimate D2E/DX2                !
 ! A40   A(8,14,13)            118.8017         estimate D2E/DX2                !
 ! A41   A(8,14,15)            121.3075         estimate D2E/DX2                !
 ! A42   A(13,14,15)           119.878          estimate D2E/DX2                !
 ! A43   A(14,15,16)           118.8124         estimate D2E/DX2                !
 ! A44   A(14,15,32)           117.933          estimate D2E/DX2                !
 ! A45   A(16,15,32)           123.1581         estimate D2E/DX2                !
 ! A46   A(15,16,17)           118.8637         estimate D2E/DX2                !
 ! A47   A(15,16,22)           124.7609         estimate D2E/DX2                !
 ! A48   A(17,16,22)           116.1901         estimate D2E/DX2                !
 ! A49   A(16,17,18)           119.4158         estimate D2E/DX2                !
 ! A50   A(16,17,19)           120.1599         estimate D2E/DX2                !
 ! A51   A(18,17,19)           120.3124         estimate D2E/DX2                !
 ! A52   A(13,18,17)           121.5186         estimate D2E/DX2                !
 ! A53   A(13,18,40)           119.4066         estimate D2E/DX2                !
 ! A54   A(17,18,40)           118.9321         estimate D2E/DX2                !
 ! A55   A(17,19,20)           121.1459         estimate D2E/DX2                !
 ! A56   A(17,19,41)           118.1544         estimate D2E/DX2                !
 ! A57   A(20,19,41)           120.6626         estimate D2E/DX2                !
 ! A58   A(19,20,21)           119.0954         estimate D2E/DX2                !
 ! A59   A(19,20,42)           120.601          estimate D2E/DX2                !
 ! A60   A(21,20,42)           120.2355         estimate D2E/DX2                !
 ! A61   A(20,21,22)           120.7924         estimate D2E/DX2                !
 ! A62   A(20,21,43)           119.8007         estimate D2E/DX2                !
 ! A63   A(22,21,43)           119.3919         estimate D2E/DX2                !
 ! A64   A(16,22,21)           121.9843         estimate D2E/DX2                !
 ! A65   A(16,22,44)           119.6282         estimate D2E/DX2                !
 ! A66   A(21,22,44)           118.2831         estimate D2E/DX2                !
 ! A67   A(7,23,24)            123.1009         estimate D2E/DX2                !
 ! A68   A(7,23,32)            119.4017         estimate D2E/DX2                !
 ! A69   A(24,23,32)           117.4973         estimate D2E/DX2                !
 ! A70   A(23,24,25)           122.7531         estimate D2E/DX2                !
 ! A71   A(23,24,45)           119.6199         estimate D2E/DX2                !
 ! A72   A(25,24,45)           117.626          estimate D2E/DX2                !
 ! A73   A(24,25,26)           122.7336         estimate D2E/DX2                !
 ! A74   A(24,25,30)           118.2185         estimate D2E/DX2                !
 ! A75   A(26,25,30)           118.9528         estimate D2E/DX2                !
 ! A76   A(25,26,27)           120.5964         estimate D2E/DX2                !
 ! A77   A(25,26,46)           118.8048         estimate D2E/DX2                !
 ! A78   A(27,26,46)           120.5912         estimate D2E/DX2                !
 ! A79   A(26,27,28)           120.421          estimate D2E/DX2                !
 ! A80   A(26,27,47)           120.1083         estimate D2E/DX2                !
 ! A81   A(28,27,47)           119.4695         estimate D2E/DX2                !
 ! A82   A(27,28,29)           120.4117         estimate D2E/DX2                !
 ! A83   A(27,28,48)           119.4771         estimate D2E/DX2                !
 ! A84   A(29,28,48)           120.11           estimate D2E/DX2                !
 ! A85   A(28,29,30)           120.6005         estimate D2E/DX2                !
 ! A86   A(28,29,49)           120.5913         estimate D2E/DX2                !
 ! A87   A(30,29,49)           118.8006         estimate D2E/DX2                !
 ! A88   A(25,30,29)           118.9631         estimate D2E/DX2                !
 ! A89   A(25,30,31)           118.2219         estimate D2E/DX2                !
 ! A90   A(29,30,31)           122.7203         estimate D2E/DX2                !
 ! A91   A(30,31,32)           122.7502         estimate D2E/DX2                !
 ! A92   A(30,31,50)           117.6354         estimate D2E/DX2                !
 ! A93   A(32,31,50)           119.6133         estimate D2E/DX2                !
 ! A94   A(15,32,23)           119.417          estimate D2E/DX2                !
 ! A95   A(15,32,31)           123.0695         estimate D2E/DX2                !
 ! A96   A(23,32,31)           117.5135         estimate D2E/DX2                !
 ! D1    D(6,1,2,3)             -4.4402         estimate D2E/DX2                !
 ! D2    D(6,1,2,34)           178.5368         estimate D2E/DX2                !
 ! D3    D(33,1,2,3)           174.139          estimate D2E/DX2                !
 ! D4    D(33,1,2,34)           -2.8841         estimate D2E/DX2                !
 ! D5    D(2,1,6,5)             -0.2633         estimate D2E/DX2                !
 ! D6    D(2,1,6,36)           175.9597         estimate D2E/DX2                !
 ! D7    D(33,1,6,5)          -178.8481         estimate D2E/DX2                !
 ! D8    D(33,1,6,36)           -2.6251         estimate D2E/DX2                !
 ! D9    D(1,2,3,4)              2.1934         estimate D2E/DX2                !
 ! D10   D(1,2,3,35)          -175.5318         estimate D2E/DX2                !
 ! D11   D(34,2,3,4)           179.2061         estimate D2E/DX2                !
 ! D12   D(34,2,3,35)            1.4809         estimate D2E/DX2                !
 ! D13   D(2,3,4,5)              4.6499         estimate D2E/DX2                !
 ! D14   D(2,3,4,10)          -171.4133         estimate D2E/DX2                !
 ! D15   D(35,3,4,5)          -177.5693         estimate D2E/DX2                !
 ! D16   D(35,3,4,10)            6.3675         estimate D2E/DX2                !
 ! D17   D(3,4,5,6)             -8.9081         estimate D2E/DX2                !
 ! D18   D(3,4,5,7)            175.8469         estimate D2E/DX2                !
 ! D19   D(10,4,5,6)           167.1883         estimate D2E/DX2                !
 ! D20   D(10,4,5,7)            -8.0567         estimate D2E/DX2                !
 ! D21   D(3,4,10,9)           172.7491         estimate D2E/DX2                !
 ! D22   D(3,4,10,37)           -2.8294         estimate D2E/DX2                !
 ! D23   D(5,4,10,9)            -3.3425         estimate D2E/DX2                !
 ! D24   D(5,4,10,37)         -178.9209         estimate D2E/DX2                !
 ! D25   D(4,5,6,1)              6.8226         estimate D2E/DX2                !
 ! D26   D(4,5,6,36)          -169.3505         estimate D2E/DX2                !
 ! D27   D(7,5,6,1)           -178.2494         estimate D2E/DX2                !
 ! D28   D(7,5,6,36)             5.5776         estimate D2E/DX2                !
 ! D29   D(4,5,7,8)             14.6896         estimate D2E/DX2                !
 ! D30   D(4,5,7,23)          -169.0005         estimate D2E/DX2                !
 ! D31   D(6,5,7,8)           -160.1129         estimate D2E/DX2                !
 ! D32   D(6,5,7,23)            16.1969         estimate D2E/DX2                !
 ! D33   D(5,7,8,9)            -10.2348         estimate D2E/DX2                !
 ! D34   D(5,7,8,14)           171.1039         estimate D2E/DX2                !
 ! D35   D(23,7,8,9)           173.2603         estimate D2E/DX2                !
 ! D36   D(23,7,8,14)           -5.401          estimate D2E/DX2                !
 ! D37   D(5,7,23,24)           18.5801         estimate D2E/DX2                !
 ! D38   D(5,7,23,32)         -161.3379         estimate D2E/DX2                !
 ! D39   D(8,7,23,24)         -165.0803         estimate D2E/DX2                !
 ! D40   D(8,7,23,32)           15.0017         estimate D2E/DX2                !
 ! D41   D(7,8,9,10)            -1.0183         estimate D2E/DX2                !
 ! D42   D(7,8,9,11)           179.2565         estimate D2E/DX2                !
 ! D43   D(14,8,9,10)          177.6771         estimate D2E/DX2                !
 ! D44   D(14,8,9,11)           -2.0481         estimate D2E/DX2                !
 ! D45   D(7,8,14,13)         -177.9205         estimate D2E/DX2                !
 ! D46   D(7,8,14,15)            0.7777         estimate D2E/DX2                !
 ! D47   D(9,8,14,13)            3.4033         estimate D2E/DX2                !
 ! D48   D(9,8,14,15)         -177.8986         estimate D2E/DX2                !
 ! D49   D(8,9,10,4)             7.9946         estimate D2E/DX2                !
 ! D50   D(8,9,10,37)         -176.4475         estimate D2E/DX2                !
 ! D51   D(11,9,10,4)         -172.2804         estimate D2E/DX2                !
 ! D52   D(11,9,10,37)           3.2775         estimate D2E/DX2                !
 ! D53   D(8,9,11,12)           -0.8974         estimate D2E/DX2                !
 ! D54   D(8,9,11,38)         -179.809          estimate D2E/DX2                !
 ! D55   D(10,9,11,12)         179.3782         estimate D2E/DX2                !
 ! D56   D(10,9,11,38)           0.4666         estimate D2E/DX2                !
 ! D57   D(9,11,12,13)           2.4143         estimate D2E/DX2                !
 ! D58   D(9,11,12,39)        -178.7203         estimate D2E/DX2                !
 ! D59   D(38,11,12,13)       -178.7069         estimate D2E/DX2                !
 ! D60   D(38,11,12,39)          0.1584         estimate D2E/DX2                !
 ! D61   D(11,12,13,14)         -0.9549         estimate D2E/DX2                !
 ! D62   D(11,12,13,18)        179.3383         estimate D2E/DX2                !
 ! D63   D(39,12,13,14)       -179.8536         estimate D2E/DX2                !
 ! D64   D(39,12,13,18)          0.4395         estimate D2E/DX2                !
 ! D65   D(12,13,14,8)          -1.9923         estimate D2E/DX2                !
 ! D66   D(12,13,14,15)        179.2904         estimate D2E/DX2                !
 ! D67   D(18,13,14,8)         177.7154         estimate D2E/DX2                !
 ! D68   D(18,13,14,15)         -1.0018         estimate D2E/DX2                !
 ! D69   D(12,13,18,17)       -172.2823         estimate D2E/DX2                !
 ! D70   D(12,13,18,40)          3.3285         estimate D2E/DX2                !
 ! D71   D(14,13,18,17)          8.0102         estimate D2E/DX2                !
 ! D72   D(14,13,18,40)       -176.3789         estimate D2E/DX2                !
 ! D73   D(8,14,15,16)         171.0398         estimate D2E/DX2                !
 ! D74   D(8,14,15,32)          -5.5019         estimate D2E/DX2                !
 ! D75   D(13,14,15,16)        -10.2759         estimate D2E/DX2                !
 ! D76   D(13,14,15,32)        173.1824         estimate D2E/DX2                !
 ! D77   D(14,15,16,17)         14.7284         estimate D2E/DX2                !
 ! D78   D(14,15,16,22)       -160.1253         estimate D2E/DX2                !
 ! D79   D(32,15,16,17)       -168.9215         estimate D2E/DX2                !
 ! D80   D(32,15,16,22)         16.2248         estimate D2E/DX2                !
 ! D81   D(14,15,32,23)         15.1056         estimate D2E/DX2                !
 ! D82   D(14,15,32,31)       -164.9299         estimate D2E/DX2                !
 ! D83   D(16,15,32,23)       -161.2746         estimate D2E/DX2                !
 ! D84   D(16,15,32,31)         18.6898         estimate D2E/DX2                !
 ! D85   D(15,16,17,18)         -8.0583         estimate D2E/DX2                !
 ! D86   D(15,16,17,19)        175.7737         estimate D2E/DX2                !
 ! D87   D(22,16,17,18)        167.2311         estimate D2E/DX2                !
 ! D88   D(22,16,17,19)         -8.9368         estimate D2E/DX2                !
 ! D89   D(15,16,22,21)       -178.1608         estimate D2E/DX2                !
 ! D90   D(15,16,22,44)          5.6179         estimate D2E/DX2                !
 ! D91   D(17,16,22,21)          6.8615         estimate D2E/DX2                !
 ! D92   D(17,16,22,44)       -169.3598         estimate D2E/DX2                !
 ! D93   D(16,17,18,13)         -3.3654         estimate D2E/DX2                !
 ! D94   D(16,17,18,40)       -178.9965         estimate D2E/DX2                !
 ! D95   D(19,17,18,13)        172.7966         estimate D2E/DX2                !
 ! D96   D(19,17,18,40)         -2.8345         estimate D2E/DX2                !
 ! D97   D(16,17,19,20)          4.6445         estimate D2E/DX2                !
 ! D98   D(16,17,19,41)       -177.5572         estimate D2E/DX2                !
 ! D99   D(18,17,19,20)       -171.4889         estimate D2E/DX2                !
 ! D100  D(18,17,19,41)          6.3095         estimate D2E/DX2                !
 ! D101  D(17,19,20,21)          2.2216         estimate D2E/DX2                !
 ! D102  D(17,19,20,42)        179.2299         estimate D2E/DX2                !
 ! D103  D(41,19,20,21)       -175.5218         estimate D2E/DX2                !
 ! D104  D(41,19,20,42)          1.4865         estimate D2E/DX2                !
 ! D105  D(19,20,21,22)         -4.4572         estimate D2E/DX2                !
 ! D106  D(19,20,21,43)        174.1302         estimate D2E/DX2                !
 ! D107  D(42,20,21,22)        178.5233         estimate D2E/DX2                !
 ! D108  D(42,20,21,43)         -2.8893         estimate D2E/DX2                !
 ! D109  D(20,21,22,16)         -0.2803         estimate D2E/DX2                !
 ! D110  D(20,21,22,44)        175.9899         estimate D2E/DX2                !
 ! D111  D(43,21,22,16)       -178.8735         estimate D2E/DX2                !
 ! D112  D(43,21,22,44)         -2.6032         estimate D2E/DX2                !
 ! D113  D(7,23,24,25)        -167.0604         estimate D2E/DX2                !
 ! D114  D(7,23,24,45)          12.5731         estimate D2E/DX2                !
 ! D115  D(32,23,24,25)         12.8591         estimate D2E/DX2                !
 ! D116  D(32,23,24,45)       -167.5075         estimate D2E/DX2                !
 ! D117  D(7,23,32,15)         -20.0619         estimate D2E/DX2                !
 ! D118  D(7,23,32,31)         159.9717         estimate D2E/DX2                !
 ! D119  D(24,23,32,15)        160.0155         estimate D2E/DX2                !
 ! D120  D(24,23,32,31)        -19.9509         estimate D2E/DX2                !
 ! D121  D(23,24,25,26)        178.4946         estimate D2E/DX2                !
 ! D122  D(23,24,25,30)          2.0832         estimate D2E/DX2                !
 ! D123  D(45,24,25,26)         -1.1458         estimate D2E/DX2                !
 ! D124  D(45,24,25,30)       -177.5571         estimate D2E/DX2                !
 ! D125  D(24,25,26,27)       -174.4817         estimate D2E/DX2                !
 ! D126  D(24,25,26,46)          4.5198         estimate D2E/DX2                !
 ! D127  D(30,25,26,27)          1.9045         estimate D2E/DX2                !
 ! D128  D(30,25,26,46)       -179.094          estimate D2E/DX2                !
 ! D129  D(24,25,30,29)        173.7328         estimate D2E/DX2                !
 ! D130  D(24,25,30,31)         -9.7073         estimate D2E/DX2                !
 ! D131  D(26,25,30,29)         -2.8174         estimate D2E/DX2                !
 ! D132  D(26,25,30,31)        173.7425         estimate D2E/DX2                !
 ! D133  D(25,26,27,28)         -0.0377         estimate D2E/DX2                !
 ! D134  D(25,26,27,47)        179.5501         estimate D2E/DX2                !
 ! D135  D(46,26,27,28)       -179.0212         estimate D2E/DX2                !
 ! D136  D(46,26,27,47)          0.5666         estimate D2E/DX2                !
 ! D137  D(26,27,28,29)         -0.9155         estimate D2E/DX2                !
 ! D138  D(26,27,28,48)        179.4883         estimate D2E/DX2                !
 ! D139  D(47,27,28,29)        179.4942         estimate D2E/DX2                !
 ! D140  D(47,27,28,48)         -0.1021         estimate D2E/DX2                !
 ! D141  D(27,28,29,30)         -0.0565         estimate D2E/DX2                !
 ! D142  D(27,28,29,49)       -179.0407         estimate D2E/DX2                !
 ! D143  D(48,28,29,30)        179.5371         estimate D2E/DX2                !
 ! D144  D(48,28,29,49)          0.5529         estimate D2E/DX2                !
 ! D145  D(28,29,30,25)          1.9233         estimate D2E/DX2                !
 ! D146  D(28,29,30,31)       -174.4736         estimate D2E/DX2                !
 ! D147  D(49,29,30,25)       -179.0745         estimate D2E/DX2                !
 ! D148  D(49,29,30,31)          4.5286         estimate D2E/DX2                !
 ! D149  D(25,30,31,32)          2.0579         estimate D2E/DX2                !
 ! D150  D(25,30,31,50)       -177.5547         estimate D2E/DX2                !
 ! D151  D(29,30,31,32)        178.4802         estimate D2E/DX2                !
 ! D152  D(29,30,31,50)         -1.1324         estimate D2E/DX2                !
 ! D153  D(30,31,32,15)       -167.0773         estimate D2E/DX2                !
 ! D154  D(30,31,32,23)         12.8878         estimate D2E/DX2                !
 ! D155  D(50,31,32,15)         12.5279         estimate D2E/DX2                !
 ! D156  D(50,31,32,23)       -167.507          estimate D2E/DX2                !
 --------------------------------------------------------------------------------
 Trust Radius=3.00D-01 FncErr=1.00D-07 GrdErr=1.00D-06
 Number of steps in this run=    300 maximum allowed number of steps=    300.
 GradGradGradGradGradGradGradGradGradGradGradGradGradGradGradGradGradGrad

 Leave Link  103 at Sat Jul 27 15:34:23 2019, MaxMem=  4194304000 cpu:         0.2
 (Enter /home/minenky/programs//g09/l202.exe)
                          Input orientation:                          
 ---------------------------------------------------------------------
 Center     Atomic      Atomic             Coordinates (Angstroms)
 Number     Number       Type             X           Y           Z
 ---------------------------------------------------------------------
      1          6           0        2.177800   10.133100    4.656700
      2          6           0        2.802200   11.005100    3.736700
      3          6           0        2.169800   12.174300    3.390400
      4          6           0        0.925600   12.539700    3.975700
      5          6           0        0.354300   11.733800    5.019500
      6          6           0        0.995400   10.485500    5.272500
      7          6           0       -0.868000   12.180600    5.658800
      8          6           0       -1.622700   13.203300    5.043400
      9          6           0       -1.069500   13.934400    3.928700
     10          6           0        0.205300   13.644800    3.481400
     11          6           0       -1.843900   14.968500    3.287800
     12          6           0       -3.096400   15.260100    3.700000
     13          6           0       -3.685900   14.583500    4.828900
     14          6           0       -2.943400   13.560900    5.526600
     15          6           0       -3.517800   12.911100    6.640600
     16          6           0       -4.747700   13.437600    7.199000
     17          6           0       -5.508300   14.384700    6.431500
     18          6           0       -4.964100   14.907400    5.241900
     19          6           0       -6.763600   14.850900    6.912500
     20          6           0       -7.229900   14.485100    8.151600
     21          6           0       -6.422900   13.669300    8.976100
     22          6           0       -5.224100   13.167100    8.515600
     23          6           0       -1.404800   11.570300    6.875500
     24          6           0       -0.637200   10.781100    7.736000
     25          6           0       -1.204500    9.985500    8.748700
     26          6           0       -0.423900    9.156900    9.605700
     27          6           0       -1.030100    8.313000   10.504700
     28          6           0       -2.448100    8.254400   10.594000
     29          6           0       -3.229000    9.054700    9.795400
     30          6           0       -2.632300    9.955800    8.867100
     31          6           0       -3.382100   10.874800    8.109800
     32          6           0       -2.794800   11.779800    7.222100
     33          1           0        2.619900    9.162900    4.866500
     34          1           0        3.745800   10.728900    3.274500
     35          1           0        2.591600   12.829100    2.631500
     36          1           0        0.518700    9.761100    5.918100
     37          1           0        0.637700   14.238700    2.679000
     38          1           0       -1.394800   15.495000    2.449500
     39          1           0       -3.685000   16.026000    3.201500
     40          1           0       -5.539800   15.636400    4.675600
     41          1           0       -7.330500   15.536200    6.286700
     42          1           0       -8.184100   14.856300    8.515200
     43          1           0       -6.736700   13.451700    9.993500
     44          1           0       -4.607900   12.602400    9.201500
     45          1           0        0.440000   10.765000    7.629200
     46          1           0        0.660100    9.192400    9.524000
     47          1           0       -0.427200    7.679200   11.149400
     48          1           0       -2.911500    7.575400   11.304600
     49          1           0       -4.313400    9.023500    9.872200
     50          1           0       -4.457200   10.871300    8.236900
 ---------------------------------------------------------------------
                    Distance matrix (angstroms):
                    1          2          3          4          5
     1  C    0.000000
     2  C    1.413032   0.000000
     3  C    2.402098   1.373638   0.000000
     4  C    2.797050   2.435928   1.422718   0.000000
     5  C    2.453368   2.858110   2.478719   1.437142   0.000000
     6  C    1.378936   2.427590   2.788111   2.430288   1.425928
     7  C    3.804387   4.306581   3.791294   2.485715   1.449949
     8  C    4.900966   5.110703   4.263133   2.841510   2.463439
     9  C    5.052210   4.858778   3.725692   2.434712   2.838960
    10  C    4.195727   3.711749   2.455588   1.408691   2.457615
    11  C    6.436540   6.123422   4.891612   3.747320   4.277166
    12  C    7.417452   7.273229   6.111536   4.863442   5.107172
    13  C    7.363334   7.489545   6.493285   5.115760   4.947761
    14  C    6.223603   6.538178   5.712340   4.291538   3.803981
    15  C    6.640256   7.211648   6.592076   5.194558   4.359720
    16  C    8.083660   8.654800   7.997072   6.586518   5.803754
    17  C    8.961147   9.367393   8.549116   7.129519   6.587192
    18  C    8.610641   8.820940   7.860688   6.472853   6.197304
    19  C   10.358325  10.787975   9.968702   8.549283   7.997766
    20  C   10.938878  11.499773  10.787177   9.366691   8.654467
    21  C   10.253486  10.938544  10.357102   8.959936   8.082777
    22  C    8.881688   9.588202   9.051137   7.669624   6.737626
    23  C    4.452375   5.279239   5.028768   3.844391   2.562401
    24  C    4.222111   5.279588   5.357658   4.435637   3.044681
    25  C    5.310951   6.497182   6.699860   5.817456   4.403787
    26  C    5.675774   6.947570   7.379833   6.705325   5.317823
    27  C    6.913935   8.230416   8.704152   8.019825   6.611040
    28  C    7.757577   9.063915   9.411826   8.575986   7.143859
    29  C    7.536755   8.768539   8.938846   7.954548   6.544222
    30  C    6.394995   7.546908   7.614207   6.577308   5.185083
    31  C    6.586843   7.575391   7.401691   6.198303   4.924279
    32  C    5.832637   6.638869   6.283694   4.995792   3.843227
    33  H    1.086626   2.168728   3.383784   3.881618   3.430143
    34  H    2.173495   1.086414   2.141586   3.424063   3.944252
    35  H    3.397217   2.143081   1.087478   2.160135   3.450759
    36  H    2.117103   3.394174   3.865092   3.414543   2.173949
    37  H    4.810318   4.032364   2.667427   2.156599   3.439881
    38  H    6.810666   6.279402   4.961725   4.055532   4.879639
    39  H    8.438975   8.220684   7.010703   5.831921   6.167986
    40  H    9.478819   9.587462   8.548439   7.202833   7.077356
    41  H   11.057041  11.388809  10.485544   9.082011   8.667191
    42  H   12.023544  12.584299  11.860015  10.438406   9.740339
    43  H   10.907009  11.667220  11.160574   9.785525   8.830297
    44  H    8.532196   9.344784   8.938085   7.611343   6.547291
    45  H    3.500715   4.559517   4.790173   4.090652   2.785041
    46  H    5.184490   6.431743   6.985125   6.485256   5.180999
    47  H    7.413690   8.742926   9.335546   8.770205   7.390954
    48  H    8.754278  10.083765  10.469195   9.647818   8.213417
    49  H    8.400496   9.602232   9.693975   8.635942   7.258226
    50  H    7.575355   8.542165   8.312852   7.065120   5.852017
                    6          7          8          9         10
     6  C    0.000000
     7  C    2.548500   0.000000
     8  C    3.780658   1.412163   0.000000
     9  C    4.238457   2.471773   1.443293   0.000000
    10  C    3.716648   2.834947   2.444657   1.381688   0.000000
    11  C    5.665505   3.787665   2.499398   1.442155   2.447220
    12  C    6.481696   4.276211   2.864776   2.432716   3.682147
    13  C    6.237384   3.795158   2.491537   2.842049   4.223547
    14  C    5.003678   2.495995   1.451071   2.490841   3.755555
    15  C    5.303226   2.918733   2.495563   3.794169   4.937645
    16  C    6.738657   4.359396   3.803568   4.946800   6.196426
    17  C    7.671060   5.194950   4.291901   5.115635   6.472694
    18  C    7.420901   4.938348   3.756103   4.223640   5.605017
    19  C    9.052535   6.592448   5.712878   6.493521   7.860833
    20  C    9.588617   7.211002   6.537936   7.489104   8.820378
    21  C    8.881690   6.639098   6.222958   7.362433   8.609609
    22  C    7.509385   5.301895   5.002756   6.236113   7.419552
    23  C    3.083401   1.463209   2.463891   3.792760   4.291374
    24  C    2.970117   2.515279   3.753446   4.962431   5.197327
    25  C    4.144095   3.805152   4.925279   6.232530   6.566770
    26  C    4.749338   4.991794   6.214906   7.447794   7.618674
    27  C    6.016504   6.202205   7.354727   8.651327   8.903991
    28  C    6.719662   6.501382   7.482116   8.865053   9.310533
    29  C    6.352115   5.697107   6.509423   7.930516   8.528190
    30  C    5.134388   4.284353   5.117248   6.531416   7.118038
    31  C    5.231093   3.746093   4.233227   5.673700   6.477995
    32  C    4.454410   2.513385   2.854278   4.297144   5.145062
    33  H    2.133801   4.679711   5.861380   6.103962   5.276004
    34  H    3.408218   5.392538   6.170288   5.821539   4.591342
    35  H    3.874945   4.642621   4.870073   4.038325   2.661226
    36  H    1.081109   2.800742   4.147220   4.888407   4.595525
    37  H    4.576101   3.922004   3.431013   2.137494   1.087903
    38  H    6.227156   4.643530   3.468738   2.174701   2.654878
    39  H    7.542700   5.362920   3.951368   3.427018   4.569780
    40  H    8.342476   5.893636   4.625897   4.841306   6.196673
    41  H    9.790750   7.308777   6.290246   6.879393   8.260471
    42  H   10.671561   8.297211   7.605115   8.514894   9.858443
    43  H    9.532657   7.405873   7.121670   8.314563   9.520299
    44  H    7.163468   5.168703   5.153862   6.488214   7.548048
    45  H    2.437340   2.756313   4.109306   5.100724   5.054956
    46  H    4.456432   5.119004   6.432283   7.535613   7.519556
    47  H    6.666113   7.113620   8.320345   9.574893   9.735844
    48  H    7.753630   7.566956   8.516859   9.911294  10.380487
    49  H    7.174820   6.292122   6.930217   8.364509   9.089411
    50  H    6.218308   4.609037   4.865291   6.278509   7.214291
                   11         12         13         14         15
    11  C    0.000000
    12  C    1.350443   0.000000
    13  C    2.432320   1.442121   0.000000
    14  C    2.863994   2.499431   1.443538   0.000000
    15  C    4.275056   3.787150   2.471323   1.411797   0.000000
    16  C    5.106192   4.276833   2.838641   2.463255   1.449713
    17  C    4.863281   3.747623   2.434952   2.841866   2.485419
    18  C    3.682104   2.447480   1.381765   2.444861   2.834318
    19  C    6.111933   4.892439   3.726275   4.263654   3.791038
    20  C    7.273185   6.123985   4.859007   5.110661   4.305843
    21  C    7.417002   6.436884   5.052346   4.900788   3.803818
    22  C    6.480794   5.665488   4.238397   3.780316   2.548062
    23  C    4.961065   5.153633   4.297832   2.854700   2.513502
    24  C    6.227112   6.511406   5.674861   4.234064   3.746286
    25  C    7.420280   7.542550   6.531752   5.117537   4.284224
    26  C    8.700974   8.903291   7.931359   6.510158   5.697197
    27  C    9.850969   9.941616   8.864939   7.482155   6.500957
    28  C    9.941064   9.850247   8.650204   7.354101   6.201491
    29  C    8.901707   8.699338   7.445973   6.213699   4.990790
    30  C    7.541706   7.419563   6.231592   4.924680   3.804630
    31  C    6.509695   6.225658   4.960953   3.752401   2.514653
    32  C    5.152741   4.960710   3.792387   2.463558   1.463117
    33  H    7.491515   8.438759   8.315493   7.122390   7.407280
    34  H    7.015635   8.217574   8.514944   7.605102   8.297741
    35  H    4.968040   6.277324   6.878480   6.289146   7.307830
    36  H    6.294233   6.944632   6.490035   5.155375   5.170864
    37  H    2.657364   4.003649   4.840917   4.625204   5.892790
    38  H    1.087033   2.124705   3.426590   3.950626   5.361808
    39  H    2.124948   1.086994   2.174681   3.468830   4.643056
    40  H    4.003968   2.657744   2.137532   3.431209   3.921348
    41  H    6.278413   4.969391   4.039298   4.870956   4.642529
    42  H    8.218055   7.016687   5.822116   6.170472   5.391872
    43  H    8.438400   7.492012   6.104215   5.861249   4.679263
    44  H    6.943340   6.294005   4.888197   4.146586   2.800325
    45  H    6.460137   6.939068   6.280579   4.866763   4.609475
    46  H    8.861351   9.211257   8.366340   6.931682   6.292660
    47  H   10.814143  10.958478   9.911468   8.517132   7.566628
    48  H   10.957499  10.812897   9.573288   8.319406   7.112678
    49  H    9.208462   8.858460   7.532744   6.430330   5.117583
    50  H    6.936135   6.457306   5.098019   4.107465   2.755255
                   16         17         18         19         20
    16  C    0.000000
    17  C    1.436860   0.000000
    18  C    2.457108   1.408729   0.000000
    19  C    2.478579   1.422843   2.456073   0.000000
    20  C    2.857625   2.435720   3.711946   1.373541   0.000000
    21  C    2.453174   2.797013   4.195860   2.402228   1.413003
    22  C    1.426030   2.430389   3.716632   2.788400   2.427520
    23  C    3.842713   4.995668   5.145241   6.283346   6.637491
    24  C    4.923573   6.198005   6.478345   7.400959   7.573377
    25  C    5.183901   6.576098   7.117397   7.612315   7.543764
    26  C    6.543076   7.953399   8.527861   8.936820   8.765030
    27  C    7.142109   8.573842   9.309110   9.408563   9.059217
    28  C    6.609066   8.016970   8.901553   8.700046   8.225117
    29  C    5.315784   6.702233   7.615710   7.375666   6.942516
    30  C    4.402318   5.815383   6.564885   6.697022   6.493414
    31  C    3.043413   4.433601   5.195136   5.355132   5.276512
    32  C    2.561768   3.843649   4.290564   5.027811   5.277569
    33  H    8.831486   9.786933   9.521411  11.161968  11.667744
    34  H    9.740549  10.438864   9.858645  11.860582  12.584162
    35  H    8.665890   9.081204   8.259668  10.484961  11.387524
    36  H    6.549223   7.613540   7.550016   8.940178   9.345881
    37  H    7.076348   7.202492   6.196433   8.548482   9.586928
    38  H    6.167056   5.831807   4.569756   7.011223   8.220841
    39  H    4.879462   4.056006   2.655296   4.962878   6.280460
    40  H    3.439432   2.156601   1.087919   2.668036   4.032928
    41  H    3.450691   2.160401   2.662113   1.087491   2.143078
    42  H    3.943848   3.424050   4.591895   2.141611   1.086505
    43  H    3.430095   3.881662   5.276256   3.383939   2.168815
    44  H    2.174192   3.414705   4.595469   3.865529   3.394368
    45  H    5.851504   7.065337   7.215468   8.312646   8.540457
    46  H    7.257524   8.635548   9.090062   9.692774   9.599388
    47  H    8.211672   9.645719  10.379253  10.465876  10.078879
    48  H    7.388706   8.766815   9.732817   9.330708   8.736930
    49  H    5.178696   6.481409   7.515542   6.980107   6.426158
    50  H    2.783437   4.087574   5.051443   4.786516   4.555732
                   21         22         23         24         25
    21  C    0.000000
    22  C    1.378908   0.000000
    23  C    5.830922   4.452724   0.000000
    24  C    6.584366   5.228807   1.397321   0.000000
    25  C    6.391697   5.131676   2.461826   1.407256   0.000000
    26  C    7.533004   6.349169   3.773679   2.485820   1.424908
    27  C    7.752990   6.716282   4.890961   3.729824   2.431298
    28  C    6.909253   6.013364   5.090276   4.222764   2.819287
    29  C    5.671577   4.746593   4.264008   3.733499   2.461822
    30  C    5.307599   4.141670   2.842505   2.437403   1.433009
    31  C    4.219736   2.968548   2.432474   2.771819   2.437415
    32  C    4.450824   3.082084   1.447799   2.432433   2.842371
    33  H   10.907277   9.532989   5.101947   4.632634   5.511278
    34  H   12.023172  10.671132   6.340649   6.254470   7.417882
    35  H   11.055365   9.788873   5.963835   6.377725   7.740580
    36  H    8.532948   7.164328   2.808856   2.383540   3.321456
    37  H    9.477856   8.341159   5.376130   6.257285   7.637059
    38  H    8.438689   7.541898   5.915475   7.123334   8.370826
    39  H    6.811471   6.227503   6.208933   7.573622   8.568077
    40  H    4.810785   4.576320   6.202496   7.548210   8.204733
    41  H    3.397341   3.875249   7.154647   8.337368   8.625520
    42  H    2.173298   3.408078   7.710079   8.612207   8.514343
    43  H    1.086703   2.133810   6.456837   7.030812   6.645999
    44  H    2.117382   1.081225   4.090887   4.607742   4.316981
    45  H    7.572879   6.215933   2.149386   1.082601   2.136652
    46  H    8.397126   7.172093   4.114945   2.721011   2.169523
    47  H    8.749454   7.750110   5.861961   4.617054   3.418563
    48  H    7.408607   6.662863   6.151934   5.308847   3.905772
    49  H    5.180390   4.454117   4.891457   4.600756   3.442812
    50  H    3.498456   2.436495   3.414551   3.853756   3.409786
                   26         27         28         29         30
    26  C    0.000000
    27  C    1.373989   0.000000
    28  C    2.426650   1.422017   0.000000
    29  C    2.813364   2.426600   1.374062   0.000000
    30  C    2.461870   2.819144   2.431229   1.424701   0.000000
    31  C    3.733610   4.222590   3.729625   2.485448   1.407219
    32  C    4.264073   5.090023   4.890640   3.773138   2.461586
    33  H    5.632475   6.770091   7.701575   7.649536   6.649744
    34  H    7.742201   8.995643   9.902658   9.693963   8.517923
    35  H    8.439061   9.772367  10.475107   9.972309   8.627149
    36  H    3.853822   5.052987   5.738997   5.438539   4.320105
    37  H    8.656261   9.956759  10.391402   9.616048   8.205408
    38  H    9.608608  10.798165  10.948452   9.940020   8.567364
    39  H    9.941483  10.948771  10.797071   9.606585   8.369858
    40  H    9.615729  10.389802   9.953893   8.652799   7.634883
    41  H    9.970574  10.471924   9.768074   8.434638   7.737727
    42  H    9.689843   9.897101   8.989338   7.736310   7.413583
    43  H    7.645073   7.696288   6.764955   5.628216   5.507830
    44  H    5.435136   5.735672   5.050633   3.852306   3.319535
    45  H    2.690513   4.054873   4.840896   4.591199   3.409726
    46  H    1.087654   2.142870   3.418428   3.900989   3.442992
    47  H    2.136965   1.086660   2.173329   3.402264   3.905671
    48  H    3.402287   2.173375   1.086615   2.137012   3.418430
    49  H    3.900901   3.418322   2.142861   1.087564   2.169218
    50  H    4.591328   4.840747   4.054697   2.690248   2.136715
                   31         32         33         34         35
    31  C    0.000000
    32  C    1.397125   0.000000
    33  H    7.033747   6.458792   0.000000
    34  H    8.614428   7.711510   2.500894   0.000000
    35  H    8.337635   7.154575   4.293838   2.481223   0.000000
    36  H    4.610869   4.093269   2.424613   4.282456   4.950887
    37  H    7.547728   6.202258   5.871799   4.725844   2.409762
    38  H    7.571962   6.208093   7.877512   7.058477   4.799118
    39  H    7.121658   5.915057   9.467108   9.125864   7.066879
    40  H    6.254777   5.375226  10.417454  10.595707   8.841886
    41  H    6.375124   5.963060  11.901529  12.444593  10.914987
    42  H    6.251072   6.338889  12.745753  13.668317  12.443600
    43  H    4.630559   5.100440  11.498952  12.745250  11.899742
    44  H    2.383064   2.807495   9.102938  10.412667   9.749312
    45  H    3.853762   3.414598   3.866678   5.467452   5.819527
    46  H    4.601066   4.891801   5.053117   7.137130   8.028875
    47  H    5.308716   6.151759   7.138699   9.419589  10.401406
    48  H    4.616736   5.861519   8.635142  10.897096  11.537250
    49  H    2.720420   4.114166   8.552609  10.554086  10.704642
    50  H    1.082593   2.149131   8.022691   9.588269   9.216240
                   36         37         38         39         40
    36  H    0.000000
    37  H    5.527642   0.000000
    38  H    6.969238   2.400420   0.000000
    39  H    8.018727   4.706717   2.468295   0.000000
    40  H    8.530438   6.640895   4.707073   2.401050   0.000000
    41  H    9.751799   8.842580   7.068121   4.800837   2.410869
    42  H   10.413679  10.595604   9.126623   7.060135   4.726881
    43  H    9.103309  10.416480   9.466938   7.878525   5.872439
    44  H    6.718313   8.528587   8.017521   6.969418   5.527872
    45  H    1.985415   6.050633   7.250426   8.018620   8.259074
    46  H    3.653208   8.504097   9.695047  10.273850  10.172064
    47  H    5.709250  10.766092  11.735043  11.977122  11.461492
    48  H    6.749662  11.462869  11.976362  11.733336  10.762496
    49  H    6.287142  10.171226  10.271077   9.691653   8.499362
    50  H    5.600800   8.257581   8.015666   7.247239   6.046574
                   41         42         43         44         45
    41  H    0.000000
    42  H    2.481352   0.000000
    43  H    4.293961   2.500648   0.000000
    44  H    4.951342   4.282555   2.424946   0.000000
    45  H    9.216687   9.586388   8.019557   5.597273   0.000000
    46  H   10.703906  10.550702   8.548375   6.283624   2.472202
    47  H   11.534030  10.891247   8.629464   6.746144   4.760883
    48  H   10.396212   9.412363   7.133165   5.707147   5.908863
    49  H    8.023339   7.130591   5.049362   3.653094   5.537028
    50  H    5.815533   5.463283   3.865259   1.987428   4.935906
                   46         47         48         49         50
    46  H    0.000000
    47  H    2.472634   0.000000
    48  H    4.305990   2.491306   0.000000
    49  H    4.988534   4.305918   2.472668   0.000000
    50  H    5.537336   5.908727   4.760560   2.471690   0.000000
 Stoichiometry    C32H18
 Framework group  C1[X(C32H18)]
 Deg. of freedom   144
 Full point group                 C1      NOp   1
 Largest Abelian subgroup         C1      NOp   1
 Largest concise Abelian subgroup C1      NOp   1
                         Standard orientation:                         
 ---------------------------------------------------------------------
 Center     Atomic      Atomic             Coordinates (Angstroms)
 Number     Number       Type             X           Y           Z
 ---------------------------------------------------------------------
      1          6           0        5.107787    0.432774    0.443386
      2          6           0        5.750365   -0.783848    0.121543
      3          6           0        4.984860   -1.891218   -0.151613
      4          6           0        3.563951   -1.820052   -0.160630
      5          6           0        2.903114   -0.556677    0.019806
      6          6           0        3.733794    0.539474    0.396228
      7          6           0        1.458003   -0.501705   -0.084989
      8          6           0        0.726928   -1.709261   -0.045717
      9          6           0        1.419714   -2.972833   -0.126510
     10          6           0        2.794432   -2.995519   -0.263240
     11          6           0        0.677470   -4.208047   -0.070546
     12          6           0       -0.665078   -4.210187    0.075243
     13          6           0       -1.410863   -2.977030    0.128547
     14          6           0       -0.721224   -1.711554    0.046257
     15          6           0       -1.455849   -0.506524    0.083667
     16          6           0       -2.900480   -0.565362   -0.022393
     17          6           0       -3.558377   -1.829761    0.159353
     18          6           0       -2.785681   -3.002964    0.264488
     19          6           0       -4.979252   -1.904067    0.150599
     20          6           0       -5.746788   -0.798453   -0.123479
     21          6           0       -5.106950    0.419115   -0.447077
     22          6           0       -3.733204    0.528810   -0.400441
     23          6           0        0.706952    0.752265   -0.151773
     24          6           0        1.290966    1.974156   -0.495890
     25          6           0        0.642275    3.208421   -0.305736
     26          6           0        1.250400    4.456141   -0.627827
     27          6           0        0.623615    5.639602   -0.320571
     28          6           0       -0.643978    5.636899    0.323892
     29          6           0       -1.265969    4.450605    0.630295
     30          6           0       -0.653116    3.205745    0.307020
     31          6           0       -1.297196    1.968971    0.496264
     32          6           0       -0.708876    0.749754    0.150797
     33          1           0        5.698938    1.289894    0.754260
     34          1           0        6.834533   -0.851565    0.138591
     35          1           0        5.451185   -2.857079   -0.331225
     36          1           0        3.281237    1.468393    0.714190
     37          1           0        3.303830   -3.949441   -0.381896
     38          1           0        1.234364   -5.139616   -0.131280
     39          1           0       -1.219223   -5.143231    0.137752
     40          1           0       -3.292582   -3.957949    0.385405
     41          1           0       -5.443661   -2.870643    0.331411
     42          1           0       -6.830933   -0.868064   -0.140037
     43          1           0       -5.700024    1.274696   -0.758794
     44          1           0       -3.282372    1.458420   -0.719225
     45          1           0        2.285856    1.990398   -0.922453
     46          1           0        2.227097    4.455045   -1.106421
     47          1           0        1.097934    6.586681   -0.563247
     48          1           0       -1.122065    6.581836    0.567324
     49          1           0       -2.242432    4.445179    1.109133
     50          1           0       -2.292151    1.981025    0.922792
 ---------------------------------------------------------------------
 Rotational constants (GHZ):      0.1679567      0.1401880      0.0773656
 Leave Link  202 at Sat Jul 27 15:34:23 2019, MaxMem=  4194304000 cpu:         1.1
 (Enter /home/minenky/programs//g09/l301.exe)
 Standard basis: def2TZVP (5D, 7F)
 ======================================================================================================
                                       Pseudopotential Parameters
 ======================================================================================================
  Center     Atomic      Valence      Angular      Power
  Number     Number     Electrons     Momentum     of R      Exponent        Coefficient   SO-Coeffient
 ======================================================================================================
    1          6
                                   No pseudopotential on this center.
    2          6
                                   No pseudopotential on this center.
    3          6
                                   No pseudopotential on this center.
    4          6
                                   No pseudopotential on this center.
    5          6
                                   No pseudopotential on this center.
    6          6
                                   No pseudopotential on this center.
    7          6
                                   No pseudopotential on this center.
    8          6
                                   No pseudopotential on this center.
    9          6
                                   No pseudopotential on this center.
   10          6
                                   No pseudopotential on this center.
   11          6
                                   No pseudopotential on this center.
   12          6
                                   No pseudopotential on this center.
   13          6
                                   No pseudopotential on this center.
   14          6
                                   No pseudopotential on this center.
   15          6
                                   No pseudopotential on this center.
   16          6
                                   No pseudopotential on this center.
   17          6
                                   No pseudopotential on this center.
   18          6
                                   No pseudopotential on this center.
   19          6
                                   No pseudopotential on this center.
   20          6
                                   No pseudopotential on this center.
   21          6
                                   No pseudopotential on this center.
   22          6
                                   No pseudopotential on this center.
   23          6
                                   No pseudopotential on this center.
   24          6
                                   No pseudopotential on this center.
   25          6
                                   No pseudopotential on this center.
   26          6
                                   No pseudopotential on this center.
   27          6
                                   No pseudopotential on this center.
   28          6
                                   No pseudopotential on this center.
   29          6
                                   No pseudopotential on this center.
   30          6
                                   No pseudopotential on this center.
   31          6
                                   No pseudopotential on this center.
   32          6
                                   No pseudopotential on this center.
   33          1
                                   No pseudopotential on this center.
   34          1
                                   No pseudopotential on this center.
   35          1
                                   No pseudopotential on this center.
   36          1
                                   No pseudopotential on this center.
   37          1
                                   No pseudopotential on this center.
   38          1
                                   No pseudopotential on this center.
   39          1
                                   No pseudopotential on this center.
   40          1
                                   No pseudopotential on this center.
   41          1
                                   No pseudopotential on this center.
   42          1
                                   No pseudopotential on this center.
   43          1
                                   No pseudopotential on this center.
   44          1
                                   No pseudopotential on this center.
   45          1
                                   No pseudopotential on this center.
   46          1
                                   No pseudopotential on this center.
   47          1
                                   No pseudopotential on this center.
   48          1
                                   No pseudopotential on this center.
   49          1
                                   No pseudopotential on this center.
   50          1
                                   No pseudopotential on this center.
 ======================================================================================================
 Ernie: Thresh=  0.10000D-02 Tol=  0.10000D-05 Strict=F.
 AO basis set (Overlap normalization):
 Atom C1       Shell     1 S   6     bf    1 -     1          9.652318760390          0.817824598832          0.837878078884
      0.1357534968D+05  0.6064550360D-03
      0.2035233368D+04  0.4697908888D-02
      0.4632256236D+03  0.2433247765D-01
      0.1312001960D+03  0.9739996831D-01
      0.4285301589D+02  0.3019558425D+00
      0.1558418577D+02  0.6623360914D+00
 Atom C1       Shell     2 S   2     bf    2 -     2          9.652318760390          0.817824598832          0.837878078884
      0.6206713851D+01  0.6559530854D+00
      0.2576489653D+01  0.3758563329D+00
 Atom C1       Shell     3 S   1     bf    3 -     3          9.652318760390          0.817824598832          0.837878078884
      0.5769633942D+00  0.1000000000D+01
 Atom C1       Shell     4 S   1     bf    4 -     4          9.652318760390          0.817824598832          0.837878078884
      0.2297283136D+00  0.1000000000D+01
 Atom C1       Shell     5 S   1     bf    5 -     5          9.652318760390          0.817824598832          0.837878078884
      0.9516444003D-01  0.1000000000D+01
 Atom C1       Shell     6 P   4     bf    6 -     8          9.652318760390          0.817824598832          0.837878078884
      0.3469723224D+02  0.1132722000D-01
      0.7958262283D+01  0.7616965920D-01
      0.2378082688D+01  0.3019225220D+00
      0.8143320818D+00  0.7278502735D+00
 Atom C1       Shell     7 P   1     bf    9 -    11          9.652318760390          0.817824598832          0.837878078884
      0.2888754725D+00  0.1000000000D+01
 Atom C1       Shell     8 P   1     bf   12 -    14          9.652318760390          0.817824598832          0.837878078884
      0.1005682367D+00  0.1000000000D+01
 Atom C1       Shell     9 D   1     bf   15 -    19          9.652318760390          0.817824598832          0.837878078884
      0.1097000000D+01  0.1000000000D+01
 Atom C1       Shell    10 D   1     bf   20 -    24          9.652318760390          0.817824598832          0.837878078884
      0.3180000000D+00  0.1000000000D+01
 Atom C1       Shell    11 F   1     bf   25 -    31          9.652318760390          0.817824598832          0.837878078884
      0.7610000000D+00  0.1000000000D+01
 Atom C2       Shell    12 S   6     bf   32 -    32         10.866615309170         -1.481258493935          0.229683293726
      0.1357534968D+05  0.6064550360D-03
      0.2035233368D+04  0.4697908888D-02
      0.4632256236D+03  0.2433247765D-01
      0.1312001960D+03  0.9739996831D-01
      0.4285301589D+02  0.3019558425D+00
      0.1558418577D+02  0.6623360914D+00
 Atom C2       Shell    13 S   2     bf   33 -    33         10.866615309170         -1.481258493935          0.229683293726
      0.6206713851D+01  0.6559530854D+00
      0.2576489653D+01  0.3758563329D+00
 Atom C2       Shell    14 S   1     bf   34 -    34         10.866615309170         -1.481258493935          0.229683293726
      0.5769633942D+00  0.1000000000D+01
 Atom C2       Shell    15 S   1     bf   35 -    35         10.866615309170         -1.481258493935          0.229683293726
      0.2297283136D+00  0.1000000000D+01
 Atom C2       Shell    16 S   1     bf   36 -    36         10.866615309170         -1.481258493935          0.229683293726
      0.9516444003D-01  0.1000000000D+01
 Atom C2       Shell    17 P   4     bf   37 -    39         10.866615309170         -1.481258493935          0.229683293726
      0.3469723224D+02  0.1132722000D-01
      0.7958262283D+01  0.7616965920D-01
      0.2378082688D+01  0.3019225220D+00
      0.8143320818D+00  0.7278502735D+00
 Atom C2       Shell    18 P   1     bf   40 -    42         10.866615309170         -1.481258493935          0.229683293726
      0.2888754725D+00  0.1000000000D+01
 Atom C2       Shell    19 P   1     bf   43 -    45         10.866615309170         -1.481258493935          0.229683293726
      0.1005682367D+00  0.1000000000D+01
 Atom C2       Shell    20 D   1     bf   46 -    50         10.866615309170         -1.481258493935          0.229683293726
      0.1097000000D+01  0.1000000000D+01
 Atom C2       Shell    21 D   1     bf   51 -    55         10.866615309170         -1.481258493935          0.229683293726
      0.3180000000D+00  0.1000000000D+01
 Atom C2       Shell    22 F   1     bf   56 -    62         10.866615309170         -1.481258493935          0.229683293726
      0.7610000000D+00  0.1000000000D+01
 Atom C3       Shell    23 S   6     bf   63 -    63          9.420019503602         -3.573884984069         -0.286507823584
      0.1357534968D+05  0.6064550360D-03
      0.2035233368D+04  0.4697908888D-02
      0.4632256236D+03  0.2433247765D-01
      0.1312001960D+03  0.9739996831D-01
      0.4285301589D+02  0.3019558425D+00
      0.1558418577D+02  0.6623360914D+00
 Atom C3       Shell    24 S   2     bf   64 -    64          9.420019503602         -3.573884984069         -0.286507823584
      0.6206713851D+01  0.6559530854D+00
      0.2576489653D+01  0.3758563329D+00
 Atom C3       Shell    25 S   1     bf   65 -    65          9.420019503602         -3.573884984069         -0.286507823584
      0.5769633942D+00  0.1000000000D+01
 Atom C3       Shell    26 S   1     bf   66 -    66          9.420019503602         -3.573884984069         -0.286507823584
      0.2297283136D+00  0.1000000000D+01
 Atom C3       Shell    27 S   1     bf   67 -    67          9.420019503602         -3.573884984069         -0.286507823584
      0.9516444003D-01  0.1000000000D+01
 Atom C3       Shell    28 P   4     bf   68 -    70          9.420019503602         -3.573884984069         -0.286507823584
      0.3469723224D+02  0.1132722000D-01
      0.7958262283D+01  0.7616965920D-01
      0.2378082688D+01  0.3019225220D+00
      0.8143320818D+00  0.7278502735D+00
 Atom C3       Shell    29 P   1     bf   71 -    73          9.420019503602         -3.573884984069         -0.286507823584
      0.2888754725D+00  0.1000000000D+01
 Atom C3       Shell    30 P   1     bf   74 -    76          9.420019503602         -3.573884984069         -0.286507823584
      0.1005682367D+00  0.1000000000D+01
 Atom C3       Shell    31 D   1     bf   77 -    81          9.420019503602         -3.573884984069         -0.286507823584
      0.1097000000D+01  0.1000000000D+01
 Atom C3       Shell    32 D   1     bf   82 -    86          9.420019503602         -3.573884984069         -0.286507823584
      0.3180000000D+00  0.1000000000D+01
 Atom C3       Shell    33 F   1     bf   87 -    93          9.420019503602         -3.573884984069         -0.286507823584
      0.7610000000D+00  0.1000000000D+01
 Atom C4       Shell    34 S   6     bf   94 -    94          6.734891613240         -3.439399608430         -0.303546008849
      0.1357534968D+05  0.6064550360D-03
      0.2035233368D+04  0.4697908888D-02
      0.4632256236D+03  0.2433247765D-01
      0.1312001960D+03  0.9739996831D-01
      0.4285301589D+02  0.3019558425D+00
      0.1558418577D+02  0.6623360914D+00
 Atom C4       Shell    35 S   2     bf   95 -    95          6.734891613240         -3.439399608430         -0.303546008849
      0.6206713851D+01  0.6559530854D+00
      0.2576489653D+01  0.3758563329D+00
 Atom C4       Shell    36 S   1     bf   96 -    96          6.734891613240         -3.439399608430         -0.303546008849
      0.5769633942D+00  0.1000000000D+01
 Atom C4       Shell    37 S   1     bf   97 -    97          6.734891613240         -3.439399608430         -0.303546008849
      0.2297283136D+00  0.1000000000D+01
 Atom C4       Shell    38 S   1     bf   98 -    98          6.734891613240         -3.439399608430         -0.303546008849
      0.9516444003D-01  0.1000000000D+01
 Atom C4       Shell    39 P   4     bf   99 -   101          6.734891613240         -3.439399608430         -0.303546008849
      0.3469723224D+02  0.1132722000D-01
      0.7958262283D+01  0.7616965920D-01
      0.2378082688D+01  0.3019225220D+00
      0.8143320818D+00  0.7278502735D+00
 Atom C4       Shell    40 P   1     bf  102 -   104          6.734891613240         -3.439399608430         -0.303546008849
      0.2888754725D+00  0.1000000000D+01
 Atom C4       Shell    41 P   1     bf  105 -   107          6.734891613240         -3.439399608430         -0.303546008849
      0.1005682367D+00  0.1000000000D+01
 Atom C4       Shell    42 D   1     bf  108 -   112          6.734891613240         -3.439399608430         -0.303546008849
      0.1097000000D+01  0.1000000000D+01
 Atom C4       Shell    43 D   1     bf  113 -   117          6.734891613240         -3.439399608430         -0.303546008849
      0.3180000000D+00  0.1000000000D+01
 Atom C4       Shell    44 F   1     bf  118 -   124          6.734891613240         -3.439399608430         -0.303546008849
      0.7610000000D+00  0.1000000000D+01
 Atom C5       Shell    45 S   6     bf  125 -   125          5.486091158500         -1.051967970140          0.037427016871
      0.1357534968D+05  0.6064550360D-03
      0.2035233368D+04  0.4697908888D-02
      0.4632256236D+03  0.2433247765D-01
      0.1312001960D+03  0.9739996831D-01
      0.4285301589D+02  0.3019558425D+00
      0.1558418577D+02  0.6623360914D+00
 Atom C5       Shell    46 S   2     bf  126 -   126          5.486091158500         -1.051967970140          0.037427016871
      0.6206713851D+01  0.6559530854D+00
      0.2576489653D+01  0.3758563329D+00
[...]
 00053678,-0.00248872,0.00367713,0.00636054,0.01303181,-0.00712414,0.01
 113090,0.09026510,-0.14226637,0.10865933,-0.00264827,0.00389440,-0.001
 80112,-0.00079563,0.00331432,0.00202835,-0.00049430,-0.00053630,-0.000
 36027,-0.00003145,-0.00023247,-0.00052091,-0.00003479,0.00012545,0.000
 00296,0.00000160,0.00000516,0.00000259,-0.00000250,0.00000145,0.000004
 48,-0.00000081,-0.00000139,0.00000286,0.00001349,-0.00000425,-0.000004
 54,-0.00000096,-0.00000023,0.00000354,-0.00000054,-0.00000202,0.000003
 20,0.00000234,-0.00000162,0.00000195,0.00000257,-0.00000073,0.00000172
 ,0.00000195,-0.00000037,0.00000169,0.00000362,-0.00000057,0.00000032,0
 .00000361,0.00000162,-0.00000230,-0.00000409,0.00000796,0.00001471,-0.
 00002413,0.00012533,0.00005496,-0.00031278,-0.00238747,-0.00308088,-0.
 09732130,0.14320018,0.00000927,0.00001143,-0.00000563,0.00000731,-0.00
 001515,0.00000136,-0.00000808,0.00000057,0.00000422,0.00000507,-0.0000
 1624,0.00000832,0.00000217,0.00001273,-0.00001300,-0.00000369,-0.00000
 813,-0.00000812,-0.00013607,-0.00002132,0.00006802,-0.00002093,0.00005
 137,-0.00001837,0.00002320,0.00000205,-0.00000789,-0.00001474,0.000030
 89,-0.00001731,0.00000555,0.00000327,-0.00000261,0.00000012,-0.0000042
 9,0.00000303,-0.00003336,0.00000972,0.00000092,0.00006904,-0.00001283,
 -0.00003335,0.00005796,-0.00005839,0.00007382,-0.00003565,0.00002324,-
 0.00000234,-0.00001006,-0.00001524,0.00002187,0.00001980,0.00000692,-0
 .00002594,0.00000855,-0.00000073,-0.00000812,0.00000159,-0.00000511,0.
 00001099,-0.00001477,0.00000802,-0.00000286,0.00001879,0.00000204,-0.0
 0000227,-0.00020584,-0.00013237,-0.00066866,-0.00075729,0.00005880,0.0
 0024427,0.00309119,0.00663073,0.00275886,-0.01335353,0.01140445,-0.008
 05548,-0.09337770,0.10858667,-0.14959026,0.00272127,-0.00173712,0.0039
 8531,0.00073252,0.00185474,0.00334008,0.00037670,-0.00030351,-0.000510
 89,-0.00009753,-0.00056246,-0.00013919,0.00027479,0.00017704,-0.000169
 20,0.00000877,-0.00000627,-0.00000573,0.00000441,0.00000079,-0.0000035
 4,0.00000230,0.00000116,-0.00000058,-0.00001461,0.00002065,0.00000801,
 0.00000080,0.00000022,-0.00000255,0.00000091,0.00000234,-0.00000273,-0
 .00000187,0.00000252,-0.00000098,-0.00000076,0.00000378,-0.00000054,-0
 .00000104,0.00000240,-0.00000160,-0.00000248,0.00000136,0.00000085,0.0
 0000064,-0.00000173,0.00000084,0.00000121,-0.00000346,-0.00000598,0.00
 002953,0.00015389,0.00008509,0.00018768,-0.00310147,-0.00210113,0.1006
 0568,-0.12152360,0.15153325,0.00001319,-0.00000187,-0.00000172,0.00000
 233,-0.00001074,0.00000420,-0.00001168,0.00000383,0.00000372,0.0000094
 5,-0.00002049,0.00001147,0.00001936,0.00000131,-0.00000839,0.00000122,
 0.00002088,0.00000215,-0.00000157,-0.00002423,0.00006004,-0.00006813,0
 .00001412,0.00002317,0.00002523,0.00000233,-0.00002153,-0.00002494,0.0
 0002001,-0.00000017,-0.00000353,0.00000256,-0.00000128,0.00000136,0.00
 000120,-0.00000207,-0.00002127,0.00002052,-0.00001328,0.00005041,0.000
 00029,-0.00002586,0.00009550,-0.00001735,-0.00001904,-0.00002874,0.000
 00237,0.00000721,-0.00000830,-0.00001723,0.00002796,0.00002720,-0.0000
 0077,-0.00002037,0.00000970,0.00000055,-0.00000918,-0.00000099,-0.0000
 0530,0.00001250,-0.00001159,0.00000604,-0.00000759,0.00001222,-0.00000
 499,-0.00000946,-0.00030943,0.00016198,-0.00014232,0.00012869,-0.00037
 027,0.00039007,-0.00051049,0.00076754,-0.00085240,-0.00591325,0.000507
 92,-0.00051507,-0.00764816,-0.02070173,0.02135887,-0.11161848,-0.07615
 626,0.07852722,0.01188444,0.01254392,-0.01298182,-0.00201935,0.0025166
 8,-0.00243825,0.00073405,0.00004556,-0.00011971,0.00010098,0.00035115,
 -0.00024747,0.00000179,-0.00000177,-0.00000458,-0.00000215,-0.00000101
 ,0.00000102,-0.00000024,-0.00000142,0.00000089,-0.00000735,-0.00000769
 ,-0.00001461,-0.00000073,-0.00000098,0.00000124,-0.00000042,-0.0000007
 7,0.00000119,0.00000111,-0.00000045,-0.00000034,0.00000095,-0.00000011
 ,0.00000013,0.00000012,0.,0.00000112,0.00000084,0.00000099,-0.00000012
 ,-0.00000093,0.00000366,0.00000223,0.00000494,0.00000115,-0.00000133,0
 .00003667,0.00005384,-0.00005302,-0.00058144,-0.00095786,0.00104492,0.
 00088388,0.00032724,-0.00034542,0.11394019,-0.00001223,-0.00000420,0.0
 0000936,0.00000020,0.00000976,-0.00000519,0.00000809,-0.00000691,-0.00
 000100,-0.00001288,0.00001797,-0.00001369,-0.00003098,-0.00000479,0.00
 002614,0.00001941,0.00000166,-0.00000003,0.00004339,0.00007594,-0.0000
 5941,0.00006355,-0.00002527,-0.00001705,-0.00002952,-0.00000218,0.0000
 1097,0.00002053,-0.00002139,0.00000530,-0.00000092,0.00000312,-0.00000
 455,0.00000616,-0.00000178,0.00000263,0.00002192,-0.00000331,-0.000001
 36,-0.00000856,-0.00001694,0.00005146,-0.00013294,0.00005051,-0.000012
 36,0.00000187,-0.00001174,0.00001307,0.00000178,0.00000661,-0.00001411
 ,-0.00000698,-0.00001744,0.00003038,-0.00000762,0.00000339,0.00000039,
 0.00000538,0.00000097,-0.00001478,0.00000976,-0.00000380,0.00000984,-0
 .00000224,-0.00000918,-0.00000837,0.00027674,-0.00011686,0.00014049,-0
 .00012693,-0.00022310,-0.00051277,0.00033091,-0.00041409,-0.00043152,-
 0.00007190,0.00359040,0.00172084,0.00124579,0.00198694,0.00020823,-0.0
 7549699,-0.15999837,0.12653364,-0.00969473,-0.00737047,0.01144843,0.00
 318042,0.00375429,0.00606558,-0.00067357,0.00018894,0.00010827,-0.0001
 4782,-0.00066077,-0.00013120,0.00000066,0.00000060,-0.00000227,-0.0000
 0255,0.00000056,0.00000169,-0.00000060,-0.00000172,0.00000263,0.000000
 59,-0.00000640,-0.00000474,-0.00000032,-0.00000052,0.00000397,-0.00000
 149,-0.00000110,0.00000282,0.00000153,-0.00000251,0.00000222,0.0000011
 6,-0.00000238,0.00000021,0.00000244,-0.00000023,0.00000101,0.00000486,
 -0.00000283,0.00000044,0.00000863,-0.00000460,-0.00000669,-0.00001237,
 0.00000730,0.00002170,0.00001148,0.00002285,0.00002403,0.00008610,0.00
 000482,0.00006815,-0.00030977,-0.00094625,-0.00154019,0.08122672,0.162
 37175,-0.00000333,0.00000355,-0.00000502,0.00000304,-0.00000191,-0.000
 00240,0.00000165,-0.00000236,0.00000113,0.00000175,-0.00000300,-0.0000
 0672,-0.00000922,0.00000879,-0.00000321,0.00000497,-0.00001255,-0.0000
 1330,-0.00000501,0.00003381,0.00002701,-0.00000326,-0.00000454,-0.0000
 0714,0.00000220,-0.00000974,0.00000028,0.00000029,0.00000339,-0.000006
 08,0.00000411,-0.00000110,-0.00000125,-0.00000503,-0.00000028,0.000004
 25,0.00000213,-0.00000398,0.00001120,-0.00001689,0.00006180,0.00000485
 ,0.00006462,-0.00002711,-0.00006673,0.00000288,0.00001144,-0.00002067,
 0.00000779,0.00000841,-0.00000369,-0.00001095,0.00001177,-0.00001381,-
 0.00000822,-0.00000257,0.00000218,-0.00000272,-0.00000034,-0.00000572,
 -0.00000067,-0.00000780,0.00000253,0.00000358,0.00000616,0.00000598,-0
 .00000021,-0.00000834,0.00013858,-0.00000816,-0.00048609,-0.00023645,-
 0.00046832,-0.00049588,-0.00036900,-0.00004837,0.00188261,0.00333444,-
 0.00129042,0.00014499,0.00200084,0.07782273,0.12660464,-0.16774565,0.0
 1016450,0.01119083,-0.00790012,-0.00268644,0.00583799,0.00379978,0.000
 80199,0.00061029,-0.00046706,-0.00044418,-0.00012808,-0.00045632,0.000
 00379,-0.00000170,0.00000185,0.00000383,0.00000075,-0.00000114,0.00000
 177,0.00000209,-0.00000082,-0.00000408,0.00001563,0.00000971,0.0000023
 9,0.00000208,-0.00000133,0.00000205,0.00000225,-0.00000215,-0.00000126
 ,0.00000321,-0.00000209,-0.00000151,0.00000353,-0.00000024,-0.00000136
 ,0.00000273,-0.00000153,-0.00000309,0.00000428,0.00000159,0.00000163,0
 .00000274,0.00000494,0.00001342,-0.00000369,-0.00000625,0.00003943,0.0
 0002837,0.00000745,-0.00008509,0.00006833,0.00002518,0.00031256,-0.001
 54197,-0.00084653,-0.08382412,-0.14078210,0.17086394,-0.00000234,0.000
 00297,0.00000324,0.00000553,0.00000100,-0.00000430,-0.00000201,-0.0000
 0332,0.00000053,0.00000191,0.00000490,-0.00000713,-0.00000987,-0.00000
 964,0.00002402,0.00001584,0.00001916,0.00001693,0.00008575,-0.00000284
 ,-0.00010097,0.00002768,-0.00003150,0.00004012,-0.00002515,0.00001648,
 0.00000151,0.00000998,-0.00003592,0.00002633,-0.00000526,0.00001388,-0
 .00001161,0.00000885,-0.00000932,0.00000923,0.00001931,-0.00000464,-0.
 00000953,-0.00006708,-0.00001602,0.00003226,-0.00009273,0.00008368,-0.
 00002582,-0.00002392,0.00000557,0.00002519,0.00000394,0.00000070,-0.00
 002611,-0.00000522,-0.00001063,0.00002458,-0.00001217,0.00001258,-0.00
 001304,0.00002072,-0.00000558,-0.00001364,0.00000656,-0.00000340,-0.00
 000611,0.00006853,-0.00002949,0.00001849,0.00026700,-0.00012716,0.0000
 2437,-0.00065932,0.00042655,-0.00049351,0.00104527,-0.00168854,0.00175
 336,0.00063081,-0.00002277,0.00001469,0.00030162,0.00252764,-0.0024231
 5,-0.01340337,-0.00293227,0.00332021,-0.33695653,-0.01154591,0.0177848
 8,-0.01057408,0.00124724,-0.00091084,0.00106707,0.00120165,-0.00111111
 ,0.00001930,-0.00023604,0.00034903,-0.00000149,0.00000049,-0.00000350,
 -0.00000445,0.,0.00000207,-0.00000105,-0.00000255,0.00000216,0.0000000
 1,-0.00001597,-0.00001024,-0.00000125,-0.00000067,0.00000340,-0.000000
 71,-0.00000361,0.00000278,0.00000265,-0.00000290,0.00000083,0.00000221
 ,-0.00000145,-0.00000134,0.00000268,-0.00000011,-0.00000106,0.00000097
 ,0.00000036,-0.00000179,0.00001723,-0.00001418,-0.00000950,-0.00003798
 ,-0.00008074,0.00004289,-0.00008674,-0.00010816,0.00016062,-0.00010385
 ,-0.00001785,0.00000270,-0.00075991,-0.00015739,0.00016368,0.00082081,
 0.00016949,-0.00032037,0.35806855,0.00001905,-0.00000202,-0.00000961,0
 .00000035,-0.00002255,0.00000696,-0.00002247,0.00000765,0.00000749,0.0
 0002378,-0.00000857,-0.00000843,-0.00000012,0.00000415,0.00001247,-0.0
 0000260,0.00002704,0.00002032,0.00005715,-0.00000829,-0.00000421,-0.00
 005393,-0.00000568,0.00004690,0.00001664,0.00000917,-0.00002291,-0.000
 01528,0.00000113,0.00001217,-0.00000174,0.00001378,-0.00001474,0.00000
 570,-0.00001543,0.00001321,-0.00002058,0.00000278,-0.00001455,0.000021
 46,0.00000507,-0.00000657,0.00003309,0.00001176,0.00010261,-0.00008971
 ,0.00004930,0.00003237,-0.00001731,-0.00002320,-0.00000548,0.00001645,
 0.00000200,-0.00001312,-0.00000444,0.00001605,-0.00003616,0.00003464,-
 0.00001654,0.00000354,-0.00001262,0.00001953,-0.00000984,0.00013397,-0
 .00002654,0.00002154,-0.00024986,0.00012244,-0.00025665,-0.00120638,0.
 00002784,0.00005080,-0.00079379,0.00017763,0.00482511,0.00019688,-0.00
 121646,0.00036877,0.00202074,0.00276783,0.00644105,0.01905402,0.005435
 54,-0.00163267,-0.01189821,-0.04939575,0.01261810,-0.01964531,0.003070
 21,0.00044310,-0.00132360,-0.00046119,-0.00204003,0.00047564,0.0001452
 1,-0.00027600,0.00000272,0.00000136,0.00000327,-0.00000041,-0.00000111
 ,0.00000130,-0.00000015,0.00000034,0.00000013,-0.00000503,-0.00001404,
 0.00000773,0.00000057,0.00000056,0.00000074,0.00000239,-0.00000106,0.0
 0000005,0.00000018,0.00000166,-0.00000124,0.00000228,0.00000779,-0.000
 00184,0.00000117,0.00000568,-0.00000554,-0.00000533,0.00000572,-0.0000
 0042,0.00002127,-0.00002923,-0.00001815,-0.00007136,-0.00009066,0.0000
 1520,-0.00012366,-0.00004018,0.00035556,-0.00002176,-0.00055641,-0.000
 65911,0.00093823,0.00011885,-0.00002461,-0.00027099,-0.00230949,-0.003
 08815,0.01206210,0.04235757,-0.00000416,-0.00000217,0.00000233,-0.0000
 0427,0.00000103,0.00000110,0.00000196,0.00000176,-0.00000119,-0.000007
 60,0.00000674,-0.00000425,-0.00001258,-0.00000319,0.00000662,-0.000006
 45,-0.00000588,-0.00000380,-0.00005145,0.00004446,0.00003401,0.0000200
 0,0.00001352,-0.00003807,-0.00000759,-0.00000562,0.00000856,0.00000878
 ,0.00000679,-0.00001149,0.00000256,-0.00000418,0.00000090,-0.00000129,
 0.00000172,-0.00000314,0.00000090,-0.00001268,-0.00000944,0.00003479,-
 0.00001594,0.00000140,0.00001922,0.00008234,0.00009690,-0.00002179,0.0
 0000259,-0.00001136,-0.00000884,-0.00000366,-0.00001360,-0.00000383,-0
 .00000377,0.00001064,0.00000226,-0.00000025,-0.00000527,0.00000047,0.0
 0000284,-0.00000339,-0.00003252,-0.00000792,0.00002271,0.00002399,-0.0
 0003595,-0.00002153,0.00005740,-0.00012545,-0.00001287,0.00095047,-0.0
 0023462,0.00020160,0.00063935,0.00503767,-0.00011892,-0.00002470,-0.00
 011465,-0.00072249,-0.00145496,0.00668493,0.00226341,-0.01998017,-0.00
 087117,0.00531488,0.01848281,0.01183380,-0.04881689,0.02089833,0.00056
 784,0.00221520,0.00070295,-0.00212058,-0.00079840,-0.00026031,-0.00007
 426,-0.00010049,0.00000203,0.00000048,0.00000112,0.00000064,0.00000045
 ,-0.00000022,0.00000004,0.00000035,0.00000095,-0.00000340,0.00000678,0
 .00001198,0.00000012,0.00000002,0.00000095,-0.00000057,0.00000128,0.00
 000072,-0.00000018,0.00000025,0.00000157,0.00000149,0.00000319,0.00000
 180,0.00000126,0.00000243,-0.00000050,0.00000297,-0.00000058,0.0000025
 5,0.00001450,-0.00000770,-0.00000327,0.00000366,-0.00000409,0.00004743
 ,0.00012144,0.00027038,-0.00012441,0.00001019,-0.00069135,-0.00051160,
 -0.00091630,-0.00001907,0.00008963,0.00020928,-0.00310117,-0.00217709,
 -0.01884439,-0.01756359,0.04323768,-0.00002652,0.00001606,-0.00000636,
 0.00001120,0.00001388,-0.00001275,0.00000292,-0.00003570,0.00000152,-0
 .00005213,0.00006041,0.00000968,0.00004051,-0.00011445,0.00021218,0.00
 002725,-0.00003689,-0.00000757,-0.00054322,0.00035886,-0.00027893,-0.0
 0003262,-0.00003481,-0.00001429,-0.00002371,0.00004241,-0.00001440,0.0
 0002141,-0.00005417,0.00004074,0.00000532,0.00001371,-0.00001933,0.000
 01809,-0.00004544,0.00003008,0.00009263,-0.00003984,0.00005550,0.00000
 672,0.00008356,-0.00003982,-0.00022809,0.00063628,-0.00046855,0.000458
 83,0.00023598,-0.00052246,0.00029957,-0.00036783,-0.00013225,-0.000076
 14,-0.00000197,0.00009372,-0.00031868,0.00013982,0.00018366,-0.0002966
 0,-0.00011881,-0.00032605,-0.00020594,0.00032831,-0.00022455,-0.000025
 81,0.00343150,0.00292752,0.00094746,-0.00137419,0.00194406,0.00074412,
 -0.00017625,-0.00006952,0.00051783,0.00274439,-0.00187937,-0.00065832,
 -0.00059991,0.00057895,0.00031903,0.00016362,-0.00011682,-0.00020444,0
 .00005584,-0.00026399,0.00128096,-0.00169371,0.00090364,-0.01447811,-0
 .00068962,0.00325540,-0.34286786,-0.00319372,0.03406947,-0.00943697,0.
 00203397,0.00036361,-0.00000535,0.00000066,-0.00000190,-0.00000111,0.0
 0000386,0.00000372,-0.00000687,0.,0.00000479,0.00001326,0.00001328,-0.
 00000224,-0.00000198,-0.00000168,0.00000401,0.00000340,-0.00000652,0.0
 0000341,0.00000162,-0.00000358,0.00000257,0.00000175,-0.00000021,-0.00
 000396,0.00002699,0.00003399,0.00001685,-0.00005019,0.00001824,-0.0000
 4140,0.00008125,0.00011664,0.00007390,-0.00071334,0.00282414,-0.000410
 80,-0.00013275,-0.00011094,-0.00005997,-0.00014694,0.00014236,-0.00015
 543,0.00004371,0.00004619,0.00000494,-0.00001348,0.00003435,-0.0000167
 9,0.00031568,0.00071619,-0.00056650,0.36526565,0.00000540,0.00001659,-
 0.00002659,0.00000931,-0.00001781,0.00000632,-0.00003542,-0.00004624,0
 .00001501,-0.00007293,0.00006445,0.00005454,0.00007150,-0.00022006,0.0
 0037615,-0.00002247,-0.00007227,-0.00000644,-0.00118218,0.00077321,0.0
 0012279,-0.00039193,0.00004090,-0.00003292,0.00005118,0.00008482,-0.00
 011544,-0.00002981,-0.00000472,0.00004755,0.00002069,0.00002024,-0.000
 04217,0.00000468,-0.00006617,0.00006118,0.00027363,0.00000292,0.000041
 41,0.00033751,0.00045021,-0.00056762,-0.00035775,-0.00187161,-0.002206
 34,-0.00062949,-0.00130544,0.00118705,0.00023208,0.00035881,-0.0000657
 4,-0.00007585,-0.00007106,0.00012247,-0.00029520,0.00006510,0.00001128
 ,0.00014576,0.00011017,-0.00027270,0.00047506,-0.00031532,0.00005513,0
 .00152357,-0.00357296,-0.00184200,-0.00150807,0.00078102,0.00556984,0.
 00035545,-0.00242104,0.00140238,0.00257317,0.00042708,0.00405087,0.001
 11105,0.00002963,0.00016273,0.00056793,0.00024320,-0.00038521,-0.00095
 145,0.00018152,-0.00028062,0.00100433,-0.00118015,-0.00187980,0.020448
 61,0.00467830,-0.00359320,-0.00016600,-0.05208544,0.01413955,-0.018482
 86,0.00780929,-0.00053203,-0.00000432,0.00000350,0.00000418,0.00000018
 ,0.00000327,0.00000461,-0.00001301,0.00000323,0.00000906,0.00003476,0.
 00000514,-0.00000397,-0.00000327,-0.00000417,0.00000355,0.00001014,-0.
 00000821,0.00000482,0.00000328,0.00000517,-0.00000393,-0.00000353,0.00
 000110,-0.00003639,-0.00000682,-0.00000783,-0.00002333,-0.00002545,0.0
 0004315,-0.00000625,-0.00001284,0.00001357,0.00002199,0.00125888,-0.00
 497492,-0.00198067,-0.00007910,-0.00030378,-0.00030138,0.00019079,-0.0
 0007257,0.00032414,-0.00004504,0.00000859,0.00003044,-0.00003006,0.000
 09224,0.00005682,-0.00067588,-0.00017123,0.00045584,-0.00560824,0.0524
 7658,0.00001280,0.00001799,-0.00001685,0.00000198,-0.00000013,0.000010
 15,-0.00000602,0.00001625,-0.00003706,0.00006027,-0.00003824,-0.000002
 30,0.00004032,0.00022469,-0.00012721,-0.00005110,-0.00011129,0.0000153
 9,0.00051195,-0.00041574,0.00014036,-0.00030837,-0.00003657,0.00000819
 ,-0.00001500,0.00009944,-0.00002444,0.00000777,0.00001780,-0.00001406,
 0.00004974,-0.00007295,0.00002579,-0.00003717,0.00002050,-0.00000110,0
 .00047650,-0.00011328,0.00016916,0.00029602,0.00045493,-0.00079131,-0.
 00035347,-0.00347506,-0.00155303,-0.00021908,-0.00011929,0.00040129,-0
 .00007089,0.00050424,-0.00046524,-0.00027621,-0.00007651,0.00026192,-0
 .00011559,0.00001764,0.00003933,0.00009672,-0.00002248,-0.00010899,-0.
 00001831,-0.00014993,0.00012526,0.00003080,-0.00069677,0.00006948,-0.0
 0024313,0.00657687,0.00106459,0.00043480,-0.00170249,0.00080693,0.0000
 5660,0.00569341,0.00028956,-0.00064656,-0.00053039,0.00046069,0.000323
 10,0.00009548,-0.00026860,-0.00034331,0.00002677,-0.00009166,-0.001484
 20,-0.00292632,-0.00096458,-0.01817819,0.00274399,0.00465097,0.0342788
 5,0.00898618,-0.04625079,0.02363954,0.00255749,-0.00230735,0.00000037,
 -0.00000111,0.00000060,0.00000406,0.00000282,-0.00000142,0.00000602,-0
 .00000106,-0.00000551,0.00002132,0.00003721,-0.00001791,-0.00000135,0.
 00000071,-0.00000465,-0.00000227,0.00000549,-0.00000092,0.00000133,0.0
 0000287,0.00000144,-0.00001205,-0.00002040,0.00000154,0.00002067,-0.00
 000624,-0.00000844,-0.00000697,0.00000460,-0.00000438,0.00007681,-0.00
 000098,-0.00003492,0.00072813,-0.00362605,-0.00040066,-0.00006554,-0.0
 0055615,-0.00025955,-0.00013271,0.00024559,-0.00003183,0.00005006,0.00
 002970,0.00001467,-0.00001006,0.00015062,0.00012183,0.00049896,0.00030
 310,-0.00006298,-0.03912792,-0.01413694,0.04517861\\0.00000055,0.00000
 062,0.00000015,0.00000016,-0.00000051,0.00000062,-0.00000047,0.0000010
 4,0.00000026,0.00000050,-0.00000088,0.00000111,0.00000086,-0.00000029,
 -0.00000081,-0.00000022,0.00000037,0.00000003,-0.00000042,0.00000028,0
 .00000181,-0.00000084,-0.00000059,0.00000062,0.00000055,0.00000010,0.0
 0000002,-0.00000077,0.00000131,-0.00000034,-0.00000042,0.00000004,0.00
 000013,0.00000039,0.,-0.00000010,-0.00000057,-0.00000017,-0.00000004,0
 .00000096,-0.00000031,0.00000022,0.00000052,-0.00000179,-0.00000020,-0
 .00000086,0.00000069,0.00000030,-0.00000026,-0.00000101,0.00000091,0.0
 0000057,0.00000041,-0.00000133,0.00000026,-0.00000017,-0.00000104,-0.0
 0000009,-0.00000056,0.00000039,-0.00000058,-0.00000017,-0.00000050,0.0
 0000024,0.00000005,-0.00000014,-0.00000397,0.00000334,-0.00000194,0.00
 000156,-0.00000386,0.00000351,0.00000022,0.00000246,-0.00000366,-0.000
 00018,-0.00000256,0.00000311,0.00000339,0.00000134,-0.00000145,-0.0000
 0364,0.00000105,-0.00000103,0.00000082,-0.00000296,0.00000257,-0.00000
 104,0.00000342,-0.00000242,-0.00000077,-0.00000365,0.00000405,0.000003
 62,0.00000206,-0.00000367,0.00000037,0.00000030,0.00000020,0.00000025,
 0.00000031,0.00000027,0.00000021,0.00000036,0.00000019,-0.00000007,0.0
 0000042,0.00000038,0.00000029,-0.00000004,0.00000022,0.00000028,-0.000
 00007,0.00000009,-0.00000027,-0.00000016,0.00000005,-0.00000026,-0.000
 00026,0.00000004,-0.00000021,-0.00000025,-0.00000029,-0.00000025,-0.00
 000030,-0.00000026,-0.00000041,-0.00000028,-0.00000022,0.,-0.00000031,
 -0.00000038,0.00000007,0.00000036,-0.00000037,0.00000012,0.00000055,-0
 .00000030,-0.00000038,-0.00000010,0.00000022,0.00000041,-0.00000017,0.
 00000007,-0.00000019,0.00000026,-0.00000055,-0.00000004,0.00000028,-0.
 00000051\\\@


 BLACK HOLES SUCK.
 Job cpu time:       9 days  2 hours 37 minutes 53.5 seconds.
 File lengths (MBytes):  RWF=   4673 Int=      0 D2E=      0 Chk=     87 Scr=      1
 Normal termination of Gaussian 09 at Sun Jul 28 13:00:05 2019.
