 Entering Gaussian System, Link 0=/home/minenky/programs/g09/g09
 Input=m1_00_96-38-80_C6H8_wB97XD.inp
 Output=m1_00_96-38-80_C6H8_wB97XD.out
 Initial command:
 /home/minenky/programs//g09/l1.exe "/home/minenky/tmp/Gau-21187.inp" -scrdir="/home/minenky/tmp/"
 Entering Link 1 = /home/minenky/programs//g09/l1.exe PID=     21189.
  
 Copyright (c) 1988,1990,1992,1993,1995,1998,2003,2009,2013,
            Gaussian, Inc.  All Rights Reserved.
  
 This is part of the Gaussian(R) 09 program.  It is based on
 the Gaussian(R) 03 system (copyright 2003, Gaussian, Inc.),
 the Gaussian(R) 98 system (copyright 1998, Gaussian, Inc.),
 the Gaussian(R) 94 system (copyright 1995, Gaussian, Inc.),
 the Gaussian 92(TM) system (copyright 1992, Gaussian, Inc.),
 the Gaussian 90(TM) system (copyright 1990, Gaussian, Inc.),
 the Gaussian 88(TM) system (copyright 1988, Gaussian, Inc.),
 the Gaussian 86(TM) system (copyright 1986, Carnegie Mellon
 University), and the Gaussian 82(TM) system (copyright 1983,
 Carnegie Mellon University). Gaussian is a federally registered
 trademark of Gaussian, Inc.
  
 This software contains proprietary and confidential information,
 including trade secrets, belonging to Gaussian, Inc.
  
 This software is provided under written license and may be
 used, copied, transmitted, or stored only in accord with that
 written license.
  
 The following legend is applicable only to US Government
 contracts under FAR:
  
                    RESTRICTED RIGHTS LEGEND
  
 Use, reproduction and disclosure by the US Government is
 subject to restrictions as set forth in subparagraphs (a)
 and (c) of the Commercial Computer Software - Restricted
 Rights clause in FAR 52.227-19.
  
 Gaussian, Inc.
 340 Quinnipiac St., Bldg. 40, Wallingford CT 06492
  
  
 ---------------------------------------------------------------
 Warning -- This program may not be used in any manner that
 competes with the business of Gaussian, Inc. or will provide
 assistance to any competitor of Gaussian, Inc.  The licensee
 of this program is prohibited from giving any competitor of
 Gaussian, Inc. access to this program.  By using this program,
 the user acknowledges that Gaussian, Inc. is engaged in the
 business of creating and licensing software in the field of
 computational chemistry and represents and warrants to the
 licensee that it is not a competitor of Gaussian, Inc. and that
 it will not use this program in any manner prohibited above.
 ---------------------------------------------------------------
  

 Cite this work as:
 Gaussian 09, Revision D.01,
 M. J. Frisch, G. W. Trucks, H. B. Schlegel, G. E. Scuseria, 
 M. A. Robb, J. R. Cheeseman, G. Scalmani, V. Barone, B. Mennucci, 
 G. A. Petersson, H. Nakatsuji, M. Caricato, X. Li, H. P. Hratchian, 
 A. F. Izmaylov, J. Bloino, G. Zheng, J. L. Sonnenberg, M. Hada, 
 M. Ehara, K. Toyota, R. Fukuda, J. Hasegawa, M. Ishida, T. Nakajima, 
 Y. Honda, O. Kitao, H. Nakai, T. Vreven, J. A. Montgomery, Jr., 
 J. E. Peralta, F. Ogliaro, M. Bearpark, J. J. Heyd, E. Brothers, 
 K. N. Kudin, V. N. Staroverov, T. Keith, R. Kobayashi, J. Normand, 
 K. Raghavachari, A. Rendell, J. C. Burant, S. S. Iyengar, J. Tomasi, 
 M. Cossi, N. Rega, J. M. Millam, M. Klene, J. E. Knox, J. B. Cross, 
 V. Bakken, C. Adamo, J. Jaramillo, R. Gomperts, R. E. Stratmann, 
 O. Yazyev, A. J. Austin, R. Cammi, C. Pomelli, J. W. Ochterski, 
 R. L. Martin, K. Morokuma, V. G. Zakrzewski, G. A. Voth, 
 P. Salvador, J. J. Dannenberg, S. Dapprich, A. D. Daniels, 
 O. Farkas, J. B. Foresman, J. V. Ortiz, J. Cioslowski, 
 and D. J. Fox, Gaussian, Inc., Wallingford CT, 2013.
 
 ******************************************
 Gaussian 09:  AM64L-G09RevD.01 24-Apr-2013
                28-Sep-2023 
 ******************************************
 %chk=m1_00_96-38-80_C6H8_wB97XD
 %NProcLinda=1
 Will use up to    1 processors via Linda.
 %Nprocshared=16
 Will use up to   16 processors via shared memory.
 %mem=48000MB
 ----------------------------------------------------------------------
 #P wB97XD/def2tzvp opt=(tight) freq integral(Grid=ultrafine) # SCF(Max
 Cycle=380) 5d 7f GFPrint
 ----------------------------------------------------------------------
 1/7=10,14=-1,18=20,19=15,26=4,38=1/1,3;
 2/9=110,12=2,17=6,18=5,40=1/2;
 3/5=44,7=101,8=11,11=2,16=1,24=100,25=1,30=1,71=1,74=-58,75=-5/1,2,3;
 4//1;
 5/5=2,7=380,38=5/2;
 6/7=2,8=2,9=2,10=2,28=1/1;
 7//1,2,3,16;
 1/7=10,14=-1,18=20,19=15,26=4/3(2);
 2/9=110/2;
 99//99;
 2/9=110/2;
 3/5=44,7=101,8=11,11=2,16=1,25=1,30=1,71=1,74=-58,75=-5/1,2,3;
 4/5=5,16=3,69=1/1;
 5/5=2,7=380,38=5/2;
 7//1,2,3,16;
 1/7=10,14=-1,18=20,19=15,26=4/3(-5);
 2/9=110/2;
 6/7=2,8=2,9=2,10=2,19=2,28=1/1;
 99/9=1/99;
 Leave Link    1 at Thu Sep 28 16:39:02 2023, MaxMem=  6291456000 cpu:         0.3
 (Enter /home/minenky/programs//g09/l101.exe)
 ---------------------------------------
 The PBEPBE optimization and frequencies
 ---------------------------------------
 Symbolic Z-matrix:
 Charge =  0 Multiplicity = 1
 C                    -0.73888   0.       -0.44406 
 C                     0.16757   1.17645  -0.17485 
 C                     0.16757  -1.17645  -0.17485 
 C                     1.38658   0.7348    0.18117 
 C                     1.38658  -0.7348    0.18117 
 H                    -1.01711   0.       -1.51109 
 C                    -2.03899   0.        0.38178 
 H                    -0.15381   2.20631  -0.26365 
 H                    -0.15381  -2.20631  -0.26365 
 H                     2.24591   1.34547   0.43019 
 H                     2.24591  -1.34547   0.43019 
 H                    -1.8153    0.        1.45242 
 H                    -2.64297  -0.88499   0.1582 
 H                    -2.64297   0.88499   0.1582 
 
 NAtoms=     14 NQM=       14 NQMF=       0 NMMI=      0 NMMIF=      0
                NMic=       0 NMicF=      0.
                    Isotopes and Nuclear Properties:
 (Nuclear quadrupole moments (NQMom) in fm**2, nuclear magnetic moments (NMagM)
  in nuclear magnetons)

  Atom         1           2           3           4           5           6           7           8           9          10
 IAtWgt=          12          12          12          12          12           1          12           1           1           1
 AtmWgt=  12.0000000  12.0000000  12.0000000  12.0000000  12.0000000   1.0078250  12.0000000   1.0078250   1.0078250   1.0078250
 NucSpn=           0           0           0           0           0           1           0           1           1           1
 AtZEff=   0.0000000   0.0000000   0.0000000   0.0000000   0.0000000   0.0000000   0.0000000   0.0000000   0.0000000   0.0000000
 NQMom=    0.0000000   0.0000000   0.0000000   0.0000000   0.0000000   0.0000000   0.0000000   0.0000000   0.0000000   0.0000000
 NMagM=    0.0000000   0.0000000   0.0000000   0.0000000   0.0000000   2.7928460   0.0000000   2.7928460   2.7928460   2.7928460
 AtZNuc=   6.0000000   6.0000000   6.0000000   6.0000000   6.0000000   1.0000000   6.0000000   1.0000000   1.0000000   1.0000000

  Atom        11          12          13          14
 IAtWgt=           1           1           1           1
 AtmWgt=   1.0078250   1.0078250   1.0078250   1.0078250
 NucSpn=           1           1           1           1
 AtZEff=   0.0000000   0.0000000   0.0000000   0.0000000
 NQMom=    0.0000000   0.0000000   0.0000000   0.0000000
 NMagM=    2.7928460   2.7928460   2.7928460   2.7928460
 AtZNuc=   1.0000000   1.0000000   1.0000000   1.0000000
 Leave Link  101 at Thu Sep 28 16:39:02 2023, MaxMem=  6291456000 cpu:         4.5
 (Enter /home/minenky/programs//g09/l103.exe)

 GradGradGradGradGradGradGradGradGradGradGradGradGradGradGradGradGradGrad
 Berny optimization.
 Initialization pass.
                           ----------------------------
                           !    Initial Parameters    !
                           ! (Angstroms and Degrees)  !
 --------------------------                            --------------------------
 ! Name  Definition              Value          Derivative Info.                !
 --------------------------------------------------------------------------------
 ! R1    R(1,2)                  1.5094         estimate D2E/DX2                !
 ! R2    R(1,3)                  1.5094         estimate D2E/DX2                !
 ! R3    R(1,6)                  1.1027         estimate D2E/DX2                !
 ! R4    R(1,7)                  1.5402         estimate D2E/DX2                !
 ! R5    R(2,4)                  1.3445         estimate D2E/DX2                !
 ! R6    R(2,8)                  1.0825         estimate D2E/DX2                !
 ! R7    R(3,5)                  1.3445         estimate D2E/DX2                !
 ! R8    R(3,9)                  1.0825         estimate D2E/DX2                !
 ! R9    R(4,5)                  1.4696         estimate D2E/DX2                !
 ! R10   R(4,10)                 1.0832         estimate D2E/DX2                !
 ! R11   R(5,11)                 1.0832         estimate D2E/DX2                !
 ! R12   R(7,12)                 1.0938         estimate D2E/DX2                !
 ! R13   R(7,13)                 1.0945         estimate D2E/DX2                !
 ! R14   R(7,14)                 1.0945         estimate D2E/DX2                !
 ! A1    A(2,1,3)              102.418          estimate D2E/DX2                !
 ! A2    A(2,1,6)              108.9121         estimate D2E/DX2                !
 ! A3    A(2,1,7)              114.2864         estimate D2E/DX2                !
 ! A4    A(3,1,6)              108.9121         estimate D2E/DX2                !
 ! A5    A(3,1,7)              114.2864         estimate D2E/DX2                !
 ! A6    A(6,1,7)              107.8096         estimate D2E/DX2                !
 ! A7    A(1,2,4)              109.6144         estimate D2E/DX2                !
 ! A8    A(1,2,8)              123.2718         estimate D2E/DX2                !
 ! A9    A(4,2,8)              127.1136         estimate D2E/DX2                !
 ! A10   A(1,3,5)              109.6144         estimate D2E/DX2                !
 ! A11   A(1,3,9)              123.2718         estimate D2E/DX2                !
 ! A12   A(5,3,9)              127.1136         estimate D2E/DX2                !
 ! A13   A(2,4,5)              109.1762         estimate D2E/DX2                !
 ! A14   A(2,4,10)             126.508          estimate D2E/DX2                !
 ! A15   A(5,4,10)             124.3157         estimate D2E/DX2                !
 ! A16   A(3,5,4)              109.1762         estimate D2E/DX2                !
 ! A17   A(3,5,11)             126.508          estimate D2E/DX2                !
 ! A18   A(4,5,11)             124.3157         estimate D2E/DX2                !
 ! A19   A(1,7,12)             110.6225         estimate D2E/DX2                !
 ! A20   A(1,7,13)             110.8708         estimate D2E/DX2                !
 ! A21   A(1,7,14)             110.8708         estimate D2E/DX2                !
 ! A22   A(12,7,13)            108.2288         estimate D2E/DX2                !
 ! A23   A(12,7,14)            108.2288         estimate D2E/DX2                !
 ! A24   A(13,7,14)            107.9114         estimate D2E/DX2                !
 ! D1    D(3,1,2,4)              0.261          estimate D2E/DX2                !
 ! D2    D(3,1,2,8)           -179.597          estimate D2E/DX2                !
 ! D3    D(6,1,2,4)           -114.9694         estimate D2E/DX2                !
 ! D4    D(6,1,2,8)             65.1726         estimate D2E/DX2                !
 ! D5    D(7,1,2,4)            124.4137         estimate D2E/DX2                !
 ! D6    D(7,1,2,8)            -55.4443         estimate D2E/DX2                !
 ! D7    D(2,1,3,5)             -0.261          estimate D2E/DX2                !
 ! D8    D(2,1,3,9)            179.597          estimate D2E/DX2                !
 ! D9    D(6,1,3,5)            114.9694         estimate D2E/DX2                !
 ! D10   D(6,1,3,9)            -65.1726         estimate D2E/DX2                !
 ! D11   D(7,1,3,5)           -124.4137         estimate D2E/DX2                !
 ! D12   D(7,1,3,9)             55.4443         estimate D2E/DX2                !
 ! D13   D(2,1,7,12)           -58.7722         estimate D2E/DX2                !
 ! D14   D(2,1,7,13)          -178.8506         estimate D2E/DX2                !
 ! D15   D(2,1,7,14)            61.3061         estimate D2E/DX2                !
 ! D16   D(3,1,7,12)            58.7722         estimate D2E/DX2                !
 ! D17   D(3,1,7,13)           -61.3061         estimate D2E/DX2                !
 ! D18   D(3,1,7,14)           178.8506         estimate D2E/DX2                !
 ! D19   D(6,1,7,12)           180.0            estimate D2E/DX2                !
 ! D20   D(6,1,7,13)            59.9216         estimate D2E/DX2                !
 ! D21   D(6,1,7,14)           -59.9216         estimate D2E/DX2                !
 ! D22   D(1,2,4,5)             -0.1731         estimate D2E/DX2                !
 ! D23   D(1,2,4,10)           179.7035         estimate D2E/DX2                !
 ! D24   D(8,2,4,5)            179.678          estimate D2E/DX2                !
 ! D25   D(8,2,4,10)            -0.4453         estimate D2E/DX2                !
 ! D26   D(1,3,5,4)              0.1731         estimate D2E/DX2                !
 ! D27   D(1,3,5,11)          -179.7035         estimate D2E/DX2                !
 ! D28   D(9,3,5,4)           -179.678          estimate D2E/DX2                !
 ! D29   D(9,3,5,11)             0.4453         estimate D2E/DX2                !
 ! D30   D(2,4,5,3)              0.0            estimate D2E/DX2                !
 ! D31   D(2,4,5,11)           179.88           estimate D2E/DX2                !
 ! D32   D(10,4,5,3)          -179.88           estimate D2E/DX2                !
 ! D33   D(10,4,5,11)            0.0            estimate D2E/DX2                !
 --------------------------------------------------------------------------------
 Trust Radius=3.00D-01 FncErr=1.00D-07 GrdErr=1.00D-06
 Number of steps in this run=     81 maximum allowed number of steps=    100.
 GradGradGradGradGradGradGradGradGradGradGradGradGradGradGradGradGradGrad

 Leave Link  103 at Thu Sep 28 16:39:02 2023, MaxMem=  6291456000 cpu:         0.1
 (Enter /home/minenky/programs//g09/l202.exe)
                          Input orientation:                          
 ---------------------------------------------------------------------
 Center     Atomic      Atomic             Coordinates (Angstroms)
 Number     Number       Type             X           Y           Z
 ---------------------------------------------------------------------
      1          6           0       -0.738884    0.000000   -0.444055
      2          6           0        0.167568    1.176448   -0.174845
      3          6           0        0.167568   -1.176448   -0.174845
      4          6           0        1.386577    0.734801    0.181173
      5          6           0        1.386577   -0.734801    0.181173
      6          1           0       -1.017111    0.000000   -1.511092
      7          6           0       -2.038994    0.000000    0.381780
      8          1           0       -0.153811    2.206311   -0.263651
      9          1           0       -0.153811   -2.206311   -0.263651
     10          1           0        2.245908    1.345472    0.430193
     11          1           0        2.245908   -1.345472    0.430193
     12          1           0       -1.815300    0.000000    1.452419
     13          1           0       -2.642967   -0.884989    0.158198
     14          1           0       -2.642967    0.884989    0.158198
 ---------------------------------------------------------------------
                    Distance matrix (angstroms):
                    1          2          3          4          5
     1  C    0.000000
     2  C    1.509357   0.000000
     3  C    1.509357   2.352896   0.000000
     4  C    2.334187   1.344539   2.294691   0.000000
     5  C    2.334187   2.294691   1.344539   1.469602   0.000000
     6  H    1.102714   2.138469   2.138469   3.030084   3.030084
     7  C    1.540224   2.561792   2.561792   3.509232   3.509232
     8  H    2.289686   1.082492   3.399151   2.176236   3.349747
     9  H    2.289686   3.399151   1.082492   3.349747   2.176236
    10  H    3.388744   2.171206   3.323499   1.083227   2.264508
    11  H    3.388744   3.323499   2.171206   2.264508   1.083227
    12  H    2.180662   2.822018   2.822018   3.522501   3.522501
    13  H    2.184364   3.501364   2.845167   4.342980   4.032407
    14  H    2.184364   2.845167   3.501364   4.032407   4.342980
                    6          7          8          9         10
     6  H    0.000000
     7  C    2.151095   0.000000
     8  H    2.677537   2.972929   0.000000
     9  H    2.677537   2.972929   4.412622   0.000000
    10  H    4.028173   4.491439   2.642180   4.342261   0.000000
    11  H    4.028173   4.491439   4.342261   2.642180   2.690944
    12  H    3.069121   1.093758   3.251653   3.251653   4.398710
    13  H    2.492618   1.094522   3.991239   2.849517   5.380524
    14  H    2.492618   1.094522   2.849517   3.991239   4.918041
                   11         12         13         14
    11  H    0.000000
    12  H    4.398710   0.000000
    13  H    4.918041   1.772920   0.000000
    14  H    5.380524   1.772920   1.769978   0.000000
 Stoichiometry    C6H8
 Framework group  CS[SG(C2H2),X(C4H6)]
 Deg. of freedom    20
 Full point group                 CS      NOp   2
 Largest Abelian subgroup         CS      NOp   2
 Largest concise Abelian subgroup CS      NOp   2
                         Standard orientation:                         
 ---------------------------------------------------------------------
 Center     Atomic      Atomic             Coordinates (Angstroms)
 Number     Number       Type             X           Y           Z
 ---------------------------------------------------------------------
      1          6           0        0.237936    0.793032    0.000000
      2          6           0        0.233639   -0.152542    1.176448
      3          6           0        0.233639   -0.152542   -1.176448
      4          6           0        0.233639   -1.422476    0.734801
      5          6           0        0.233639   -1.422476   -0.734801
      6          1           0        1.184185    1.359240    0.000000
      7          6           0       -0.919261    1.809490    0.000000
      8          1           0        0.228788    0.180846    2.206311
      9          1           0        0.228788    0.180846   -2.206311
     10          1           0        0.235513   -2.317158    1.345472
     11          1           0        0.235513   -2.317158   -1.345472
     12          1           0       -1.884255    1.294619    0.000000
     13          1           0       -0.873964    2.451923   -0.884989
     14          1           0       -0.873964    2.451923    0.884989
 ---------------------------------------------------------------------
 Rotational constants (GHZ):      7.0345780      3.5454347      2.6167754
 Leave Link  202 at Thu Sep 28 16:39:02 2023, MaxMem=  6291456000 cpu:         0.0
 (Enter /home/minenky/programs//g09/l301.exe)
 Standard basis: def2TZVP (5D, 7F)
 ======================================================================================================
                                       Pseudopotential Parameters
 ======================================================================================================
  Center     Atomic      Valence      Angular      Power
  Number     Number     Electrons     Momentum     of R      Exponent        Coefficient   SO-Coeffient
 ======================================================================================================
    1          6
                                   No pseudopotential on this center.
    2          6
                                   No pseudopotential on this center.
    3          6
                                   No pseudopotential on this center.
    4          6
                                   No pseudopotential on this center.
    5          6
                                   No pseudopotential on this center.
    6          1
                                   No pseudopotential on this center.
    7          6
                                   No pseudopotential on this center.
    8          1
                                   No pseudopotential on this center.
    9          1
                                   No pseudopotential on this center.
   10          1
                                   No pseudopotential on this center.
   11          1
                                   No pseudopotential on this center.
   12          1
                                   No pseudopotential on this center.
   13          1
                                   No pseudopotential on this center.
   14          1
                                   No pseudopotential on this center.
 ======================================================================================================
 Ernie: Thresh=  0.10000D-02 Tol=  0.10000D-05 Strict=F.
 AO basis set (Overlap normalization):
 Atom C1       Shell     1 S   6     bf    1 -     1          0.449633582809          1.498613946680          0.000000000000
      0.1357534968D+05  0.6064550360D-03
      0.2035233368D+04  0.4697908888D-02
      0.4632256236D+03  0.2433247765D-01
      0.1312001960D+03  0.9739996831D-01
      0.4285301589D+02  0.3019558425D+00
      0.1558418577D+02  0.6623360914D+00
 Atom C1       Shell     2 S   2     bf    2 -     2          0.449633582809          1.498613946680          0.000000000000
      0.6206713851D+01  0.6559530854D+00
      0.2576489653D+01  0.3758563329D+00
 Atom C1       Shell     3 S   1     bf    3 -     3          0.449633582809          1.498613946680          0.000000000000
      0.5769633942D+00  0.1000000000D+01
 Atom C1       Shell     4 S   1     bf    4 -     4          0.449633582809          1.498613946680          0.000000000000
      0.2297283136D+00  0.1000000000D+01
 Atom C1       Shell     5 S   1     bf    5 -     5          0.449633582809          1.498613946680          0.000000000000
      0.9516444003D-01  0.1000000000D+01
 Atom C1       Shell     6 P   4     bf    6 -     8          0.449633582809          1.498613946680          0.000000000000
      0.3469723224D+02  0.1132722000D-01
      0.7958262283D+01  0.7616965920D-01
      0.2378082688D+01  0.3019225220D+00
      0.8143320818D+00  0.7278502735D+00
 Atom C1       Shell     7 P   1     bf    9 -    11          0.449633582809          1.498613946680          0.000000000000
      0.2888754725D+00  0.1000000000D+01
 Atom C1       Shell     8 P   1     bf   12 -    14          0.449633582809          1.498613946680          0.000000000000
      0.1005682367D+00  0.1000000000D+01
 Atom C1       Shell     9 D   1     bf   15 -    19          0.449633582809          1.498613946680          0.000000000000
      0.1097000000D+01  0.1000000000D+01
 Atom C1       Shell    10 D   1     bf   20 -    24          0.449633582809          1.498613946680          0.000000000000
      0.3180000000D+00  0.1000000000D+01
 Atom C1       Shell    11 F   1     bf   25 -    31          0.449633582809          1.498613946680          0.000000000000
      0.7610000000D+00  0.1000000000D+01
 Atom C2       Shell    12 S   6     bf   32 -    32          0.441514501934         -0.288262554839          2.223164529581
      0.1357534968D+05  0.6064550360D-03
      0.2035233368D+04  0.4697908888D-02
      0.4632256236D+03  0.2433247765D-01
      0.1312001960D+03  0.9739996831D-01
      0.4285301589D+02  0.3019558425D+00
      0.1558418577D+02  0.6623360914D+00
 Atom C2       Shell    13 S   2     bf   33 -    33          0.441514501934         -0.288262554839          2.223164529581
      0.6206713851D+01  0.6559530854D+00
      0.2576489653D+01  0.3758563329D+00
 Atom C2       Shell    14 S   1     bf   34 -    34          0.441514501934         -0.288262554839          2.223164529581
      0.5769633942D+00  0.1000000000D+01
 Atom C2       Shell    15 S   1     bf   35 -    35          0.441514501934         -0.288262554839          2.223164529581
      0.2297283136D+00  0.1000000000D+01
 Atom C2       Shell    16 S   1     bf   36 -    36          0.441514501934         -0.288262554839          2.223164529581
      0.9516444003D-01  0.1000000000D+01
 Atom C2       Shell    17 P   4     bf   37 -    39          0.441514501934         -0.288262554839          2.223164529581
      0.3469723224D+02  0.1132722000D-01
      0.7958262283D+01  0.7616965920D-01
      0.2378082688D+01  0.3019225220D+00
      0.8143320818D+00  0.7278502735D+00
 Atom C2       Shell    18 P   1     bf   40 -    42          0.441514501934         -0.288262554839          2.223164529581
      0.2888754725D+00  0.1000000000D+01
 Atom C2       Shell    19 P   1     bf   43 -    45          0.441514501934         -0.288262554839          2.223164529581
      0.1005682367D+00  0.1000000000D+01
 Atom C2       Shell    20 D   1     bf   46 -    50          0.441514501934         -0.288262554839          2.223164529581
      0.1097000000D+01  0.1000000000D+01
 Atom C2       Shell    21 D   1     bf   51 -    55          0.441514501934         -0.288262554839          2.223164529581
      0.3180000000D+00  0.1000000000D+01
 Atom C2       Shell    22 F   1     bf   56 -    62          0.441514501934         -0.288262554839          2.223164529581
      0.7610000000D+00  0.1000000000D+01
 Atom C3       Shell    23 S   6     bf   63 -    63          0.441514501934         -0.288262554839         -2.223164529581
      0.1357534968D+05  0.6064550360D-03
      0.2035233368D+04  0.4697908888D-02
      0.4632256236D+03  0.2433247765D-01
      0.1312001960D+03  0.9739996831D-01
      0.4285301589D+02  0.3019558425D+00
      0.1558418577D+02  0.6623360914D+00
 Atom C3       Shell    24 S   2     bf   64 -    64          0.441514501934         -0.288262554839         -2.223164529581
      0.6206713851D+01  0.6559530854D+00
      0.2576489653D+01  0.3758563329D+00
 Atom C3       Shell    25 S   1     bf   65 -    65          0.441514501934         -0.288262554839         -2.223164529581
      0.5769633942D+00  0.1000000000D+01
 Atom C3       Shell    26 S   1     bf   66 -    66          0.441514501934         -0.288262554839         -2.223164529581
      0.2297283136D+00  0.1000000000D+01
 Atom C3       Shell    27 S   1     bf   67 -    67          0.441514501934         -0.288262554839         -2.223164529581
      0.9516444003D-01  0.1000000000D+01
 Atom C3       Shell    28 P   4     bf   68 -    70          0.441514501934         -0.288262554839         -2.223164529581
      0.3469723224D+02  0.1132722000D-01
      0.7958262283D+01  0.7616965920D-01
      0.2378082688D+01  0.3019225220D+00
      0.8143320818D+00  0.7278502735D+00
 Atom C3       Shell    29 P   1     bf   71 -    73          0.441514501934         -0.288262554839         -2.223164529581
      0.2888754725D+00  0.1000000000D+01
 Atom C3       Shell    30 P   1     bf   74 -    76          0.441514501934         -0.288262554839         -2.223164529581
      0.1005682367D+00  0.1000000000D+01
 Atom C3       Shell    31 D   1     bf   77 -    81          0.441514501934         -0.288262554839         -2.223164529581
      0.1097000000D+01  0.1000000000D+01
 Atom C3       Shell    32 D   1     bf   82 -    86          0.441514501934         -0.288262554839         -2.223164529581
      0.3180000000D+00  0.1000000000D+01
 Atom C3       Shell    33 F   1     bf   87 -    93          0.441514501934         -0.288262554839         -2.223164529581
      0.7610000000D+00  0.1000000000D+01
 Atom C4       Shell    34 S   6     bf   94 -    94          0.441514501934         -2.688089570836          1.388572652171
      0.1357534968D+05  0.6064550360D-03
      0.2035233368D+04  0.4697908888D-02
      0.4632256236D+03  0.2433247765D-01
      0.1312001960D+03  0.9739996831D-01
      0.4285301589D+02  0.3019558425D+00
      0.1558418577D+02  0.6623360914D+00
 Atom C4       Shell    35 S   2     bf   95 -    95          0.441514501934         -2.688089570836          1.388572652171
      0.6206713851D+01  0.6559530854D+00
      0.2576489653D+01  0.3758563329D+00
 Atom C4       Shell    36 S   1     bf   96 -    96          0.441514501934         -2.688089570836          1.388572652171
      0.5769633942D+00  0.1000000000D+01
 Atom C4       Shell    37 S   1     bf   97 -    97          0.441514501934         -2.688089570836          1.388572652171
      0.2297283136D+00  0.1000000000D+01
 Atom C4       Shell    38 S   1     bf   98 -    98          0.441514501934         -2.688089570836          1.388572652171
      0.9516444003D-01  0.1000000000D+01
 Atom C4       Shell    39 P   4     bf   99 -   101          0.441514501934         -2.688089570836          1.388572652171
      0.3469723224D+02  0.1132722000D-01
      0.7958262283D+01  0.7616965920D-01
      0.2378082688D+01  0.3019225220D+00
      0.8143320818D+00  0.7278502735D+00
 Atom C4       Shell    40 P   1     bf  102 -   104          0.441514501934         -2.688089570836          1.388572652171
      0.2888754725D+00  0.1000000000D+01
 Atom C4       Shell    41 P   1     bf  105 -   107          0.441514501934         -2.688089570836          1.388572652171
      0.1005682367D+00  0.1000000000D+01
 Atom C4       Shell    42 D   1     bf  108 -   112          0.441514501934         -2.688089570836          1.388572652171
      0.1097000000D+01  0.1000000000D+01
 Atom C4       Shell    43 D   1     bf  113 -   117          0.441514501934         -2.688089570836          1.388572652171
      0.3180000000D+00  0.1000000000D+01
 Atom C4       Shell    44 F   1     bf  118 -   124          0.441514501934         -2.688089570836          1.388572652171
      0.7610000000D+00  0.1000000000D+01
 Atom C5       Shell    45 S   6     bf  125 -   125          0.441514501934         -2.688089570836         -1.388572652171
      0.1357534968D+05  0.6064550360D-03
      0.2035233368D+04  0.4697908888D-02
      0.4632256236D+03  0.2433247765D-01
      0.1312001960D+03  0.9739996831D-01
      0.4285301589D+02  0.3019558425D+00
      0.1558418577D+02  0.6623360914D+00
 Atom C5       Shell    46 S   2     bf  126 -   126          0.441514501934         -2.688089570836         -1.388572652171
      0.6206713851D+01  0.6559530854D+00
      0.2576489653D+01  0.3758563329D+00
 Atom C5       Shell    47 S   1     bf  127 -   127          0.441514501934         -2.688089570836         -1.388572652171
      0.5769633942D+00  0.1000000000D+01
 Atom C5       Shell    48 S   1     bf  128 -   128          0.441514501934         -2.688089570836         -1.388572652171
      0.2297283136D+00  0.1000000000D+01
 Atom C5       Shell    49 S   1     bf  129 -   129          0.441514501934         -2.688089570836         -1.388572652171
      0.9516444003D-01  0.1000000000D+01
 Atom C5       Shell    50 P   4     bf  130 -   132          0.441514501934         -2.688089570836         -1.388572652171
      0.3469723224D+02  0.1132722000D-01
      0.7958262283D+01  0.7616965920D-01
      0.2378082688D+01  0.3019225220D+00
      0.8143320818D+00  0.7278502735D+00
 Atom C5       Shell    51 P   1     bf  133 -   135          0.441514501934         -2.688089570836         -1.388572652171
      0.2888754725D+00  0.1000000000D+01
 Atom C5       Shell    52 P   1     bf  136 -   138          0.441514501934         -2.688089570836         -1.388572652171
      0.1005682367D+00  0.1000000000D+01
 Atom C5       Shell    53 D   1     bf  139 -   143          0.441514501934         -2.688089570836         -1.388572652171
      0.1097000000D+01  0.1000000000D+01
 Atom C5       Shell    54 D   1     bf  144 -   148          0.441514501934         -2.688089570836         -1.388572652171
      0.3180000000D+00  0.1000000000D+01
 Atom C5       Shell    55 F   1     bf  149 -   155          0.441514501934         -2.688089570836         -1.388572652171
      0.7610000000D+00  0.1000000000D+01
 Atom H6       Shell    56 S   3     bf  156 -   156          2.237785543980          2.568590424369          0.000000000000
      0.3406134100D+02  0.2543930721D-01
      0.5123574600D+01  0.1900859489D+00
      0.1164662600D+01  0.8524411301D+00
 Atom H6       Shell    57 S   1     bf  157 -   157          2.237785543980          2.568590424369          0.000000000000
      0.3272304100D+00  0.1000000000D+01
 Atom H6       Shell    58 S   1     bf  158 -   158          2.237785543980          2.568590424369          0.000000000000
      0.1030724100D+00  0.1000000000D+01
 Atom H6       Shell    59 P   1     bf  159 -   161          2.237785543980          2.568590424369          0.000000000000
      0.8000000000D+00  0.1000000000D+01
 Atom C7       Shell    60 S   6     bf  162 -   162         -1.737150817970          3.419440202246          0.000000000000
      0.1357534968D+05  0.6064550360D-03
      0.2035233368D+04  0.4697908888D-02
      0.4632256236D+03  0.2433247765D-01
      0.1312001960D+03  0.9739996831D-01
      0.4285301589D+02  0.3019558425D+00
      0.1558418577D+02  0.6623360914D+00
 Atom C7       Shell    61 S   2     bf  163 -   163         -1.737150817970          3.419440202246          0.000000000000
      0.6206713851D+01  0.6559530854D+00
      0.2576489653D+01  0.3758563329D+00
 Atom C7       Shell    62 S   1     bf  164 -   164         -1.737150817970          3.419440202246          0.000000000000
      0.5769633942D+00  0.1000000000D+01
 Atom C7       Shell    63 S   1     bf  165 -   165         -1.737150817970          3.419440202246          0.000000000000
      0.2297283136D+00  0.1000000000D+01
 Atom C7       Shell    64 S   1     bf  166 -   166         -1.737150817970          3.419440202246          0.000000000000
      0.9516444003D-01  0.1000000000D+01
 Atom C7       Shell    65 P   4     bf  167 -   169         -1.737150817970          3.419440202246          0.000000000000
      0.3469723224D+02  0.1132722000D-01
      0.7958262283D+01  0.7616965920D-01
      0.2378082688D+01  0.3019225220D+00
      0.8143320818D+00  0.7278502735D+00
 Atom C7       Shell    66 P   1     bf  170 -   172         -1.737150817970          3.419440202246          0.000000000000
      0.2888754725D+00  0.1000000000D+01
 Atom C7       Shell    67 P   1     bf  173 -   175         -1.737150817970          3.419440202246          0.000000000000
      0.1005682367D+00  0.1000000000D+01
 Atom C7       Shell    68 D   1     bf  176 -   180         -1.737150817970          3.419440202246          0.000000000000
      0.1097000000D+01  0.1000000000D+01
 Atom C7       Shell    69 D   1     bf  181 -   185         -1.737150817970          3.419440202246          0.000000000000
      0.3180000000D+00  0.1000000000D+01
 Atom C7       Shell    70 F   1     bf  186 -   192         -1.737150817970          3.419440202246          0.000000000000
      0.7610000000D+00  0.1000000000D+01
 Atom H8       Shell    71 S   3     bf  193 -   193          0.432346031441          0.341749090724          4.169323553973
      0.3406134100D+02  0.2543930721D-01
      0.5123574600D+01  0.1900859489D+00
      0.1164662600D+01  0.8524411301D+00
 Atom H8       Shell    72 S   1     bf  194 -   194          0.432346031441          0.341749090724          4.169323553973
      0.3272304100D+00  0.1000000000D+01
 Atom H8       Shell    73 S   1     bf  195 -   195          0.432346031441          0.341749090724          4.169323553973
      0.1030724100D+00  0.1000000000D+01
 Atom H8       Shell    74 P   1     bf  196 -   198          0.432346031441          0.341749090724          4.169323553973
      0.8000000000D+00  0.1000000000D+01
 Atom H9       Shell    75 S   3     bf  199 -   199          0.432346031441          0.341749090724         -4.169323553973
      0.3406134100D+02  0.2543930721D-01
      0.5123574600D+01  0.1900859489D+00
      0.1164662600D+01  0.8524411301D+00
 Atom H9       Shell    76 S   1     bf  200 -   200          0.432346031441          0.341749090724         -4.169323553973
      0.3272304100D+00  0.1000000000D+01
 Atom H9       Shell    77 S   1     bf  201 -   201          0.432346031441          0.341749090724         -4.169323553973
      0.1030724100D+00  0.1000000000D+01
 Atom H9       Shell    78 P   1     bf  202 -   204          0.432346031441          0.341749090724         -4.169323553973
      0.8000000000D+00  0.1000000000D+01
 Atom H10      Shell    79 S   3     bf  205 -   205          0.445055591139         -4.378794937234          2.542573599466
      0.3406134100D+02  0.2543930721D-01
      0.5123574600D+01  0.1900859489D+00
      0.1164662600D+01  0.8524411301D+00
 Atom H10      Shell    80 S   1     bf  206 -   206          0.445055591139         -4.378794937234          2.542573599466
      0.3272304100D+00  0.1000000000D+01
 Atom H10      Shell    81 S   1     bf  207 -   207          0.445055591139         -4.378794937234          2.542573599466
      0.1030724100D+00  0.1000000000D+01
 Atom H10      Shell    82 P   1     bf  208 -   210          0.445055591139         -4.378794937234          2.542573599466
      0.8000000000D+00  0.1000000000D+01
 Atom H11      Shell    83 S   3     bf  211 -   211          0.445055591139         -4.378794937234         -2.542573599466
      0.3406134100D+02  0.2543930721D-01
      0.5123574600D+01  0.1900859489D+00
      0.1164662600D+01  0.8524411301D+00
 Atom H11      Shell    84 S   1     bf  212 -   212          0.445055591139         -4.378794937234         -2.542573599466
      0.3272304100D+00  0.1000000000D+01
 Atom H11      Shell    85 S   1     bf  213 -   213          0.445055591139         -4.378794937234         -2.542573599466
      0.1030724100D+00  0.1000000000D+01
 Atom H11      Shell    86 P   1     bf  214 -   216          0.445055591139         -4.378794937234         -2.542573599466
      0.8000000000D+00  0.1000000000D+01
 Atom H12      Shell    87 S   3     bf  217 -   217         -3.560726724718          2.446475481161          0.000000000000
      0.3406134100D+02  0.2543930721D-01
      0.5123574600D+01  0.1900859489D+00
      0.1164662600D+01  0.8524411301D+00
 Atom H12      Shell    88 S   1     bf  218 -   218         -3.560726724718          2.446475481161          0.000000000000
      0.3272304100D+00  0.1000000000D+01
 Atom H12      Shell    89 S   1     bf  219 -   219         -3.560726724718          2.446475481161          0.000000000000
      0.1030724100D+00  0.1000000000D+01
 Atom H12      Shell    90 P   1     bf  220 -   222         -3.560726724718          2.446475481161          0.000000000000
      0.8000000000D+00  0.1000000000D+01
 Atom H13      Shell    91 S   3     bf  223 -   223         -1.651553349933          4.633463201016         -1.672386840616
      0.3406134100D+02  0.2543930721D-01
      0.5123574600D+01  0.1900859489D+00
      0.1164662600D+01  0.8524411301D+00
 Atom H13      Shell    92 S   1     bf  224 -   224         -1.651553349933          4.633463201016         -1.672386840616
      0.3272304100D+00  0.1000000000D+01
 Atom H13      Shell    93 S   1     bf  225 -   225         -1.651553349933          4.633463201016         -1.672386840616
      0.1030724100D+00  0.1000000000D+01
 Atom H13      Shell    94 P   1     bf  226 -   228         -1.651553349933          4.633463201016         -1.672386840616
      0.8000000000D+00  0.1000000000D+01
 Atom H14      Shell    95 S   3     bf  229 -   229         -1.651553349933          4.633463201016          1.672386840616
      0.3406134100D+02  0.2543930721D-01
      0.5123574600D+01  0.1900859489D+00
      0.1164662600D+01  0.8524411301D+00
 Atom H14      Shell    96 S   1     bf  230 -   230         -1.651553349933          4.633463201016          1.672386840616
      0.3272304100D+00  0.1000000000D+01
 Atom H14      Shell    97 S   1     bf  231 -   231         -1.651553349933          4.633463201016          1.672386840616
      0.1030724100D+00  0.1000000000D+01
 Atom H14      Shell    98 P   1     bf  232 -   234         -1.651553349933          4.633463201016          1.672386840616
      0.8000000000D+00  0.1000000000D+01
 There are   150 symmetry adapted cartesian basis functions of A'  symmetry.
 There are   114 symmetry adapted cartesian basis functions of A"  symmetry.
 There are   132 symmetry adapted basis functions of A'  symmetry.
 There are   102 symmetry adapted basis functions of A"  symmetry.
   234 basis functions,   370 primitive gaussians,   264 cartesian basis functions
    22 alpha electrons       22 beta electrons
       nuclear repulsion energy       218.2622330383 Hartrees.
 IExCor= 4639 DFT=T Ex+Corr=wB97XD ExCW=0 ScaHFX=  1.000000
 ScaDFX=  1.000000  1.000000  1.000000  1.000000 ScalE2=  1.000000  1.000000
 IRadAn=      5 IRanWt=     -1 IRanGd=            0 ICorTp=0 IEmpDi=121
  HFx wShort=  0.000000 wLong=  0.200000 cFull=  0.222036 cShort=  0.000000 cLong=  0.777964
  DFx wShort=  0.000000 wLong=  0.200000 cFull=  0.000000 cShort=  0.000000 cLong=  1.000000
 NAtoms=   14 NActive=   14 NUniq=    9 SFac= 2.42D+00 NAtFMM=   60 NAOKFM=F Big=F
 Integral buffers will be    131072 words long.
 Raffenetti 2 integral format.
 Two-electron integral symmetry is turned on.
 R6Disp:  Grimme-D2 Dispersion energy=       -0.0062953433 Hartrees.
 Nuclear repulsion after empirical dispersion term =      218.2559376950 Hartrees.
 Leave Link  301 at Thu Sep 28 16:39:02 2023, MaxMem=  6291456000 cpu:         0.3
 (Enter /home/minenky/programs//g09/l302.exe)
 NPDir=0 NMtPBC=     1 NCelOv=     1 NCel=       1 NClECP=     1 NCelD=      1
         NCelK=      1 NCelE2=     1 NClLst=     1 CellRange=     0.0.
 One-electron integrals computed using PRISM.
 One-electron integral symmetry used in STVInt
   2 Symmetry operations used in ECPInt.
 ECPInt:  NShTT=    4851 NPrTT=   14352 LenC2=    4823 LenP2D=   12046.
 LDataN:  DoStor=T MaxTD1= 6 Len=  172
 NBasis=   234 RedAO= T EigKep=  4.62D-05  NBF=   132   102
 NBsUse=   234 1.00D-06 EigRej= -1.00D+00 NBFU=   132   102
 Precomputing XC quadrature grid using
 IXCGrd= 4 IRadAn=           5 IRanWt=          -1 IRanGd=           0 AccXCQ= 0.00D+00.
 Generated NRdTot=       0 NPtTot=           0 NUsed=           0 NTot=          32
 NSgBfM=   263   263   263   263   263 MxSgAt=    14 MxSgA2=    14.
 Leave Link  302 at Thu Sep 28 16:39:03 2023, MaxMem=  6291456000 cpu:         2.6
 (Enter /home/minenky/programs//g09/l303.exe)
 DipDrv:  MaxL=1.
 Leave Link  303 at Thu Sep 28 16:39:03 2023, MaxMem=  6291456000 cpu:         0.3
 (Enter /home/minenky/programs//g09/l401.exe)
 ExpMin= 9.52D-02 ExpMax= 1.36D+04 ExpMxC= 4.63D+02 IAcc=3 IRadAn=         5 AccDes= 0.00D+00
 Harris functional with IExCor= 4639 and IRadAn=       5 diagonalized for initial guess.
 HarFok:  IExCor= 4639 AccDes= 0.00D+00 IRadAn=         5 IDoV= 1 UseB2=F ITyADJ=14
 ICtDFT=  3500011 ScaDFX=  1.000000  1.000000  1.000000  1.000000
 FoFCou: FMM=F IPFlag=           0 FMFlag=      100000 FMFlg1=           0
         NFxFlg=           0 DoJE=T BraDBF=F KetDBF=T FulRan=T
         wScrn=  0.000000 ICntrl=     500 IOpCl=  0 I1Cent=   200000004 NGrid=           0
         NMat0=    1 NMatS0=      1 NMatT0=    0 NMatD0=    1 NMtDS0=    0 NMtDT0=    0
 Petite list used in FoFCou.
 Harris En= -222.326508072070    
 JPrj=0 DoOrth=F DoCkMO=F.
 Initial guess orbital symmetries:
       Occupied  (A') (A') (A") (A") (A') (A') (A') (A') (A") (A')
                 (A') (A") (A') (A') (A") (A") (A') (A') (A") (A')
                 (A') (A")
       Virtual   (A') (A") (A') (A') (A') (A") (A') (A") (A') (A")
                 (A') (A") (A') (A') (A') (A") (A") (A') (A') (A")
                 (A') (A") (A') (A') (A") (A') (A") (A') (A") (A')
                 (A') (A") (A') (A') (A") (A') (A") (A') (A") (A')
                 (A') (A") (A') (A") (A") (A') (A") (A') (A') (A')
                 (A") (A") (A') (A") (A') (A') (A') (A') (A") (A")
                 (A') (A') (A") (A') (A") (A') (A") (A') (A") (A')
                 (A') (A') (A") (A") (A") (A') (A") (A') (A') (A")
                 (A') (A") (A") (A') (A") (A') (A') (A") (A') (A")
                 (A') (A') (A") (A') (A") (A') (A") (A") (A') (A')
                 (A') (A") (A") (A') (A') (A') (A') (A") (A') (A")
                 (A') (A") (A') (A") (A') (A') (A") (A') (A") (A")
                 (A') (A') (A") (A') (A') (A") (A') (A") (A") (A')
                 (A') (A") (A') (A') (A") (A') (A') (A") (A') (A")
                 (A') (A") (A') (A") (A") (A') (A') (A') (A") (A")
                 (A') (A") (A') (A') (A") (A') (A") (A') (A") (A")
                 (A') (A") (A") (A') (A") (A') (A") (A') (A') (A")
                 (A') (A") (A') (A') (A") (A') (A') (A") (A') (A")
                 (A") (A') (A') (A") (A") (A') (A") (A') (A') (A")
                 (A') (A") (A') (A') (A") (A') (A") (A') (A") (A')
                 (A") (A') (A') (A") (A") (A") (A') (A') (A") (A')
                 (A') (A")
 The electronic state of the initial guess is 1-A'.
 Leave Link  401 at Thu Sep 28 16:39:03 2023, MaxMem=  6291456000 cpu:         9.0
 (Enter /home/minenky/programs//g09/l502.exe)
 Closed shell SCF:
 Using DIIS extrapolation, IDIIS=  1040.
 Integral symmetry usage will be decided dynamically.
 Keep R1 ints in memory in symmetry-blocked form, NReq=1134598996.
 IVT=      363418 IEndB=      363418 NGot=  6291456000 MDV=  6101947635
 LenX=  6101947635 LenY=  6101877498
 Requested convergence on RMS density matrix=1.00D-08 within 380 cycles.
 Requested convergence on MAX density matrix=1.00D-06.
 Requested convergence on             energy=1.00D-06.
 No special actions if energy rises.
 FoFCou: FMM=F IPFlag=           0 FMFlag=           0 FMFlg1=           0
         NFxFlg=           0 DoJE=F BraDBF=F KetDBF=F FulRan=T
         wScrn=  0.000000 ICntrl=     600 IOpCl=  0 I1Cent=           0 NGrid=           0
         NMat0=    1 NMatS0=  27495 NMatT0=    0 NMatD0=    1 NMtDS0=    0 NMtDT0=    0
 Petite list used in FoFCou.
 Integral accuracy reduced to 1.0D-05 until final iterations.

 Cycle   1  Pass 0  IDiag  1:
 E= -233.353376633850    
 DIIS: error= 4.28D-02 at cycle   1 NSaved=   1.
 NSaved= 1 IEnMin= 1 EnMin= -233.353376633850     IErMin= 1 ErrMin= 4.28D-02
 ErrMax= 4.28D-02  0.00D+00 EMaxC= 1.00D-01 BMatC= 4.99D-01 BMatP= 4.99D-01
 IDIUse=3 WtCom= 5.72D-01 WtEn= 4.28D-01
 Coeff-Com:  0.100D+01
 Coeff-En:   0.100D+01
 Coeff:      0.100D+01
 Gap=     0.336 Goal=   None    Shift=    0.000
 GapD=    0.336 DampG=1.000 DampE=0.500 DampFc=0.5000 IDamp=-1.
 Damping current iteration by 5.00D-01
 RMSDP=1.38D-03 MaxDP=4.82D-02              OVMax= 5.35D-02

 Cycle   2  Pass 0  IDiag  1:
 E= -233.387575837709     Delta-E=       -0.034199203859 Rises=F Damp=T
 DIIS: error= 2.07D-02 at cycle   2 NSaved=   2.
 NSaved= 2 IEnMin= 2 EnMin= -233.387575837709     IErMin= 2 ErrMin= 2.07D-02
 ErrMax= 2.07D-02  0.00D+00 EMaxC= 1.00D-01 BMatC= 1.12D-01 BMatP= 4.99D-01
 IDIUse=3 WtCom= 7.93D-01 WtEn= 2.07D-01
 Coeff-Com: -0.848D+00 0.185D+01
 Coeff-En:   0.000D+00 0.100D+01
 Coeff:     -0.673D+00 0.167D+01
 Gap=     0.348 Goal=   None    Shift=    0.000
 RMSDP=8.26D-04 MaxDP=2.42D-02 DE=-3.42D-02 OVMax= 2.78D-02

 Cycle   3  Pass 0  IDiag  1:
 E= -233.417295200426     Delta-E=       -0.029719362717 Rises=F Damp=F
 DIIS: error= 3.20D-03 at cycle   3 NSaved=   3.
 NSaved= 3 IEnMin= 3 EnMin= -233.417295200426     IErMin= 3 ErrMin= 3.20D-03
 ErrMax= 3.20D-03  0.00D+00 EMaxC= 1.00D-01 BMatC= 3.02D-03 BMatP= 1.12D-01
 IDIUse=3 WtCom= 9.68D-01 WtEn= 3.20D-02
 Coeff-Com: -0.320D+00 0.687D+00 0.633D+00
 Coeff-En:   0.000D+00 0.000D+00 0.100D+01
 Coeff:     -0.309D+00 0.665D+00 0.645D+00
 Gap=     0.343 Goal=   None    Shift=    0.000
 RMSDP=1.52D-04 MaxDP=4.53D-03 DE=-2.97D-02 OVMax= 1.04D-02

 Cycle   4  Pass 0  IDiag  1:
 E= -233.420098607799     Delta-E=       -0.002803407374 Rises=F Damp=F
 DIIS: error= 3.02D-04 at cycle   4 NSaved=   4.
 NSaved= 4 IEnMin= 4 EnMin= -233.420098607799     IErMin= 4 ErrMin= 3.02D-04
 ErrMax= 3.02D-04  0.00D+00 EMaxC= 1.00D-01 BMatC= 1.63D-05 BMatP= 3.02D-03
 IDIUse=3 WtCom= 9.97D-01 WtEn= 3.02D-03
 Coeff-Com: -0.173D-01 0.368D-01 0.715D-01 0.909D+00
 Coeff-En:   0.000D+00 0.000D+00 0.000D+00 0.100D+01
 Coeff:     -0.173D-01 0.367D-01 0.713D-01 0.909D+00
 Gap=     0.343 Goal=   None    Shift=    0.000
 RMSDP=4.48D-05 MaxDP=1.23D-03 DE=-2.80D-03 OVMax= 2.23D-03

 Cycle   5  Pass 0  IDiag  1:
 E= -233.420117799436     Delta-E=       -0.000019191637 Rises=F Damp=F
 DIIS: error= 1.31D-04 at cycle   5 NSaved=   5.
 NSaved= 5 IEnMin= 5 EnMin= -233.420117799436     IErMin= 5 ErrMin= 1.31D-04
 ErrMax= 1.31D-04  0.00D+00 EMaxC= 1.00D-01 BMatC= 4.93D-06 BMatP= 1.63D-05
 IDIUse=3 WtCom= 9.99D-01 WtEn= 1.31D-03
 Coeff-Com:  0.259D-01-0.558D-01-0.364D-01 0.372D+00 0.695D+00
 Coeff-En:   0.000D+00 0.000D+00 0.000D+00 0.000D+00 0.100D+01
 Coeff:      0.259D-01-0.557D-01-0.364D-01 0.371D+00 0.695D+00
 Gap=     0.343 Goal=   None    Shift=    0.000
 RMSDP=1.49D-05 MaxDP=3.89D-04 DE=-1.92D-05 OVMax= 1.03D-03

 Cycle   6  Pass 0  IDiag  1:
 E= -233.420123349128     Delta-E=       -0.000005549692 Rises=F Damp=F
 DIIS: error= 6.16D-05 at cycle   6 NSaved=   6.
 NSaved= 6 IEnMin= 6 EnMin= -233.420123349128     IErMin= 6 ErrMin= 6.16D-05
 ErrMax= 6.16D-05  0.00D+00 EMaxC= 1.00D-01 BMatC= 3.49D-07 BMatP= 4.93D-06
 IDIUse=1 WtCom= 1.00D+00 WtEn= 0.00D+00
 Coeff-Com:  0.937D-02-0.201D-01-0.170D-01 0.355D-01 0.222D+00 0.770D+00
 Coeff:      0.937D-02-0.201D-01-0.170D-01 0.355D-01 0.222D+00 0.770D+00
 Gap=     0.343 Goal=   None    Shift=    0.000
 RMSDP=4.87D-06 MaxDP=1.01D-04 DE=-5.55D-06 OVMax= 5.89D-04

 Initial convergence to 1.0D-05 achieved.  Increase integral accuracy.
 Cycle   7  Pass 1  IDiag  1:
 E= -233.420239652986     Delta-E=       -0.000116303858 Rises=F Damp=F
 DIIS: error= 3.73D-05 at cycle   1 NSaved=   1.
 NSaved= 1 IEnMin= 1 EnMin= -233.420239652986     IErMin= 1 ErrMin= 3.73D-05
 ErrMax= 3.73D-05  0.00D+00 EMaxC= 1.00D-01 BMatC= 6.48D-07 BMatP= 6.48D-07
 IDIUse=1 WtCom= 1.00D+00 WtEn= 0.00D+00
 Coeff-Com:  0.100D+01
 Coeff:      0.100D+01
 Gap=     0.343 Goal=   None    Shift=    0.000
 RMSDP=4.87D-06 MaxDP=1.01D-04 DE=-1.16D-04 OVMax= 3.06D-04

 Cycle   8  Pass 1  IDiag  1:
 E= -233.420240085928     Delta-E=       -0.000000432942 Rises=F Damp=F
 DIIS: error= 2.21D-05 at cycle   2 NSaved=   2.
 NSaved= 2 IEnMin= 2 EnMin= -233.420240085928     IErMin= 2 ErrMin= 2.21D-05
 ErrMax= 2.21D-05  0.00D+00 EMaxC= 1.00D-01 BMatC= 8.98D-08 BMatP= 6.48D-07
 IDIUse=1 WtCom= 1.00D+00 WtEn= 0.00D+00
 Coeff-Com:  0.151D+00 0.849D+00
 Coeff:      0.151D+00 0.849D+00
 Gap=     0.343 Goal=   None    Shift=    0.000
 RMSDP=1.57D-06 MaxDP=4.37D-05 DE=-4.33D-07 OVMax= 2.27D-04

 Cycle   9  Pass 1  IDiag  1:
 E= -233.420240123943     Delta-E=       -0.000000038015 Rises=F Damp=F
 DIIS: error= 1.37D-05 at cycle   3 NSaved=   3.
 NSaved= 3 IEnMin= 3 EnMin= -233.420240123943     IErMin= 3 ErrMin= 1.37D-05
 ErrMax= 1.37D-05  0.00D+00 EMaxC= 1.00D-01 BMatC= 6.09D-08 BMatP= 8.98D-08
 IDIUse=1 WtCom= 1.00D+00 WtEn= 0.00D+00
 Coeff-Com: -0.356D-01 0.452D+00 0.583D+00
 Coeff:     -0.356D-01 0.452D+00 0.583D+00
 Gap=     0.343 Goal=   None    Shift=    0.000
 RMSDP=8.13D-07 MaxDP=2.25D-05 DE=-3.80D-08 OVMax= 1.12D-04

 Cycle  10  Pass 1  IDiag  1:
 E= -233.420240184882     Delta-E=       -0.000000060940 Rises=F Damp=F
 DIIS: error= 2.95D-06 at cycle   4 NSaved=   4.
 NSaved= 4 IEnMin= 4 EnMin= -233.420240184882     IErMin= 4 ErrMin= 2.95D-06
 ErrMax= 2.95D-06  0.00D+00 EMaxC= 1.00D-01 BMatC= 8.91D-10 BMatP= 6.09D-08
 IDIUse=1 WtCom= 1.00D+00 WtEn= 0.00D+00
 Coeff-Com: -0.136D-01 0.708D-01 0.136D+00 0.806D+00
 Coeff:     -0.136D-01 0.708D-01 0.136D+00 0.806D+00
 Gap=     0.343 Goal=   None    Shift=    0.000
 RMSDP=2.26D-07 MaxDP=4.20D-06 DE=-6.09D-08 OVMax= 2.75D-05

 Cycle  11  Pass 1  IDiag  1:
 E= -233.420240186779     Delta-E=       -0.000000001897 Rises=F Damp=F
 DIIS: error= 8.90D-07 at cycle   5 NSaved=   5.
 NSaved= 5 IEnMin= 5 EnMin= -233.420240186779     IErMin= 5 ErrMin= 8.90D-07
 ErrMax= 8.90D-07  0.00D+00 EMaxC= 1.00D-01 BMatC= 1.93D-10 BMatP= 8.91D-10
 IDIUse=1 WtCom= 1.00D+00 WtEn= 0.00D+00
 Coeff-Com:  0.424D-02-0.775D-01-0.880D-01 0.218D+00 0.944D+00
 Coeff:      0.424D-02-0.775D-01-0.880D-01 0.218D+00 0.944D+00
 Gap=     0.343 Goal=   None    Shift=    0.000
 RMSDP=1.61D-07 MaxDP=3.23D-06 DE=-1.90D-09 OVMax= 1.66D-05

 Cycle  12  Pass 1  IDiag  1:
 E= -233.420240187381     Delta-E=       -0.000000000602 Rises=F Damp=F
 DIIS: error= 2.61D-07 at cycle   6 NSaved=   6.
 NSaved= 6 IEnMin= 6 EnMin= -233.420240187381     IErMin= 6 ErrMin= 2.61D-07
 ErrMax= 2.61D-07  0.00D+00 EMaxC= 1.00D-01 BMatC= 1.41D-11 BMatP= 1.93D-10
 IDIUse=1 WtCom= 1.00D+00 WtEn= 0.00D+00
 Coeff-Com:  0.213D-02-0.191D-01-0.306D-01-0.724D-01 0.161D+00 0.959D+00
 Coeff:      0.213D-02-0.191D-01-0.306D-01-0.724D-01 0.161D+00 0.959D+00
 Gap=     0.343 Goal=   None    Shift=    0.000
 RMSDP=4.94D-08 MaxDP=1.11D-06 DE=-6.02D-10 OVMax= 5.58D-06

 Cycle  13  Pass 1  IDiag  1:
 E= -233.420240187440     Delta-E=       -0.000000000058 Rises=F Damp=F
 DIIS: error= 5.64D-08 at cycle   7 NSaved=   7.
 NSaved= 7 IEnMin= 7 EnMin= -233.420240187440     IErMin= 7 ErrMin= 5.64D-08
 ErrMax= 5.64D-08  0.00D+00 EMaxC= 1.00D-01 BMatC= 5.65D-13 BMatP= 1.41D-11
 IDIUse=1 WtCom= 1.00D+00 WtEn= 0.00D+00
 Coeff-Com:  0.681D-05 0.256D-02 0.152D-02-0.246D-01-0.392D-01 0.115D+00
 Coeff-Com:  0.945D+00
 Coeff:      0.681D-05 0.256D-02 0.152D-02-0.246D-01-0.392D-01 0.115D+00
 Coeff:      0.945D+00
 Gap=     0.343 Goal=   None    Shift=    0.000
 RMSDP=9.12D-09 MaxDP=2.07D-07 DE=-5.84D-11 OVMax= 9.82D-07

 SCF Done:  E(RwB97XD) =  -233.420240187     A.U. after   13 cycles
            NFock= 13  Conv=0.91D-08     -V/T= 2.0058
 KE= 2.320826824171D+02 PE=-9.773502184581D+02 EE= 2.935913581585D+02
 Leave Link  502 at Thu Sep 28 16:39:15 2023, MaxMem=  6291456000 cpu:       164.2
 (Enter /home/minenky/programs//g09/l601.exe)
 Copying SCF densities to generalized density rwf, IOpCl= 0 IROHF=0.

 **********************************************************************

            Population analysis using the SCF density.

 **********************************************************************

 Orbital symmetries:
       Occupied  (A') (A') (A") (A') (A") (A') (A') (A') (A") (A')
                 (A') (A") (A') (A') (A") (A") (A') (A') (A') (A")
                 (A') (A")
       Virtual   (A') (A') (A") (A') (A') (A") (A') (A") (A') (A")
                 (A') (A') (A") (A') (A') (A") (A") (A') (A') (A")
                 (A') (A") (A') (A') (A") (A') (A") (A') (A') (A")
                 (A") (A') (A') (A") (A') (A') (A") (A") (A') (A')
                 (A') (A') (A") (A") (A") (A') (A") (A') (A') (A")
                 (A') (A") (A') (A") (A') (A') (A') (A') (A") (A")
                 (A') (A") (A') (A') (A") (A') (A") (A') (A") (A')
                 (A') (A') (A") (A") (A") (A') (A") (A') (A") (A')
                 (A") (A') (A") (A") (A') (A') (A') (A") (A") (A')
                 (A') (A') (A") (A') (A") (A') (A") (A') (A") (A')
                 (A') (A") (A") (A') (A') (A') (A') (A") (A') (A")
                 (A') (A") (A') (A") (A') (A') (A") (A') (A") (A")
                 (A') (A') (A") (A') (A') (A") (A') (A") (A") (A')
                 (A') (A") (A') (A') (A") (A') (A') (A") (A') (A")
                 (A') (A") (A') (A") (A") (A') (A') (A") (A') (A")
                 (A') (A") (A') (A') (A") (A') (A") (A') (A") (A")
                 (A') (A") (A") (A') (A") (A') (A") (A') (A') (A")
                 (A') (A") (A') (A') (A") (A') (A') (A") (A') (A")
                 (A") (A') (A') (A") (A") (A') (A") (A') (A') (A")
                 (A') (A") (A') (A') (A") (A') (A") (A') (A") (A')
                 (A") (A') (A') (A") (A") (A") (A') (A") (A') (A')
                 (A') (A")
 The electronic state is 1-A'.
 Alpha  occ. eigenvalues --  -10.29500 -10.28132 -10.28101 -10.28004 -10.27823
 Alpha  occ. eigenvalues --  -10.27822  -0.96067  -0.84508  -0.80217  -0.73967
 Alpha  occ. eigenvalues --   -0.63178  -0.62474  -0.60031  -0.52842  -0.49873
 Alpha  occ. eigenvalues --   -0.47923  -0.46946  -0.45213  -0.41909  -0.41833
 Alpha  occ. eigenvalues --   -0.38118  -0.29832
 Alpha virt. eigenvalues --    0.04468   0.12485   0.13726   0.15230   0.16122
 Alpha virt. eigenvalues --    0.16770   0.17718   0.18234   0.20015   0.20937
 Alpha virt. eigenvalues --    0.22154   0.24621   0.25365   0.28169   0.28534
 Alpha virt. eigenvalues --    0.28573   0.31306   0.31512   0.33334   0.33616
 Alpha virt. eigenvalues --    0.38189   0.38475   0.39356   0.42860   0.44326
 Alpha virt. eigenvalues --    0.44749   0.45658   0.46613   0.47880   0.48023
 Alpha virt. eigenvalues --    0.49368   0.49656   0.50308   0.50952   0.51181
 Alpha virt. eigenvalues --    0.52468   0.54154   0.55817   0.56127   0.57971
 Alpha virt. eigenvalues --    0.63716   0.64672   0.65686   0.68815   0.71880
 Alpha virt. eigenvalues --    0.72122   0.74433   0.75761   0.78857   0.84639
 Alpha virt. eigenvalues --    0.84652   0.90449   0.94761   0.95347   0.96144
 Alpha virt. eigenvalues --    1.01422   1.02412   1.04118   1.07576   1.09821
 Alpha virt. eigenvalues --    1.10516   1.12656   1.12883   1.16548   1.19945
 Alpha virt. eigenvalues --    1.21222   1.21306   1.22096   1.26186   1.27276
 Alpha virt. eigenvalues --    1.33845   1.34968   1.35193   1.39698   1.42414
 Alpha virt. eigenvalues --    1.46625   1.50820   1.51609   1.53909   1.55196
 Alpha virt. eigenvalues --    1.56843   1.57296   1.62806   1.64171   1.64427
 Alpha virt. eigenvalues --    1.67927   1.70027   1.70220   1.74083   1.74402
 Alpha virt. eigenvalues --    1.77057   1.85787   1.87288   1.89200   1.93700
 Alpha virt. eigenvalues --    1.95302   2.02348   2.03582   2.03706   2.05640
 Alpha virt. eigenvalues --    2.07328   2.12324   2.16354   2.17798   2.20865
 Alpha virt. eigenvalues --    2.24029   2.28890   2.29578   2.32608   2.32693
 Alpha virt. eigenvalues --    2.37896   2.38222   2.42400   2.46713   2.50364
 Alpha virt. eigenvalues --    2.52538   2.55530   2.59512   2.60631   2.62243
 Alpha virt. eigenvalues --    2.63560   2.64527   2.66374   2.68318   2.72223
 Alpha virt. eigenvalues --    2.75477   2.76631   2.77395   2.77964   2.79229
 Alpha virt. eigenvalues --    2.84751   2.86506   2.87891   2.90015   2.92162
 Alpha virt. eigenvalues --    2.95055   2.98584   3.00077   3.00822   3.04530
 Alpha virt. eigenvalues --    3.07032   3.09528   3.12968   3.13777   3.18289
 Alpha virt. eigenvalues --    3.18550   3.19174   3.23371   3.23494   3.24903
 Alpha virt. eigenvalues --    3.26998   3.29800   3.30592   3.33712   3.33911
 Alpha virt. eigenvalues --    3.38903   3.40168   3.41434   3.42689   3.44026
 Alpha virt. eigenvalues --    3.48163   3.49504   3.51705   3.55964   3.56639
 Alpha virt. eigenvalues --    3.59361   3.61664   3.63500   3.66933   3.69760
 Alpha virt. eigenvalues --    3.75645   3.76056   3.81809   3.86868   3.92303
 Alpha virt. eigenvalues --    3.93272   4.03062   4.05783   4.10527   4.13508
 Alpha virt. eigenvalues --    4.15729   4.16782   4.20086   4.21386   4.23657
 Alpha virt. eigenvalues --    4.30776   4.36031   4.37850   4.42243   4.45340
 Alpha virt. eigenvalues --    4.46700   4.55522   4.57085   4.58566   4.68118
 Alpha virt. eigenvalues --    4.76476   4.76848   4.82208   4.82270   4.89388
 Alpha virt. eigenvalues --    4.94777   5.05174   5.16599   5.21917   5.32120
 Alpha virt. eigenvalues --    5.42558  22.08669  22.43461  22.44150  22.71020
 Alpha virt. eigenvalues --   22.84352  22.93610
          Condensed to atoms (all electrons):
               1          2          3          4          5          6
     1  C    4.799942   0.350334   0.350334  -0.073628  -0.073628   0.416914
     2  C    0.350334   5.060084  -0.105545   0.632090  -0.048356  -0.031465
     3  C    0.350334  -0.105545   5.060084  -0.048356   0.632090  -0.031465
     4  C   -0.073628   0.632090  -0.048356   4.881326   0.366968   0.000841
     5  C   -0.073628  -0.048356   0.632090   0.366968   4.881326   0.000841
     6  H    0.416914  -0.031465  -0.031465   0.000841   0.000841   0.601464
     7  C    0.300808  -0.017194  -0.017194   0.003267   0.003267  -0.050136
     8  H   -0.041077   0.414795   0.006366  -0.027389   0.004464  -0.000473
     9  H   -0.041077   0.006366   0.414795   0.004464  -0.027389  -0.000473
    10  H    0.006470  -0.034635   0.006024   0.421032  -0.043123  -0.000335
    11  H    0.006470   0.006024  -0.034635  -0.043123   0.421032  -0.000335
    12  H   -0.032984  -0.001198  -0.001198   0.000814   0.000814   0.007359
    13  H   -0.037717   0.010768  -0.012178  -0.001298   0.002070  -0.004524
    14  H   -0.037717  -0.012178   0.010768   0.002070  -0.001298  -0.004524
               7          8          9         10         11         12
     1  C    0.300808  -0.041077  -0.041077   0.006470   0.006470  -0.032984
     2  C   -0.017194   0.414795   0.006366  -0.034635   0.006024  -0.001198
     3  C   -0.017194   0.006366   0.414795   0.006024  -0.034635  -0.001198
     4  C    0.003267  -0.027389   0.004464   0.421032  -0.043123   0.000814
     5  C    0.003267   0.004464  -0.027389  -0.043123   0.421032   0.000814
     6  H   -0.050136  -0.000473  -0.000473  -0.000335  -0.000335   0.007359
     7  C    4.919493   0.000824   0.000824  -0.000295  -0.000295   0.400515
     8  H    0.000824   0.515788  -0.000062  -0.003699  -0.000120   0.000339
     9  H    0.000824  -0.000062   0.515788  -0.000120  -0.003699   0.000339
    10  H   -0.000295  -0.003699  -0.000120   0.525872  -0.001043  -0.000069
    11  H   -0.000295  -0.000120  -0.003699  -0.001043   0.525872  -0.000069
    12  H    0.400515   0.000339   0.000339  -0.000069  -0.000069   0.544376
    13  H    0.414719  -0.000185   0.000930   0.000012   0.000007  -0.022751
    14  H    0.414719   0.000930  -0.000185   0.000007   0.000012  -0.022751
              13         14
     1  C   -0.037717  -0.037717
     2  C    0.010768  -0.012178
     3  C   -0.012178   0.010768
     4  C   -0.001298   0.002070
     5  C    0.002070  -0.001298
     6  H   -0.004524  -0.004524
     7  C    0.414719   0.414719
     8  H   -0.000185   0.000930
     9  H    0.000930  -0.000185
    10  H    0.000012   0.000007
    11  H    0.000007   0.000012
    12  H   -0.022751  -0.022751
    13  H    0.557623  -0.025048
    14  H   -0.025048   0.557623
 Mulliken charges:
               1
     1  C    0.106557
     2  C   -0.229893
     3  C   -0.229893
     4  C   -0.119079
     5  C   -0.119079
     6  H    0.096309
     7  C   -0.373322
     8  H    0.129497
     9  H    0.129497
    10  H    0.123901
    11  H    0.123901
    12  H    0.126462
    13  H    0.117572
    14  H    0.117572
 Sum of Mulliken charges =   0.00000
 Mulliken charges with hydrogens summed into heavy atoms:
               1
     1  C    0.202866
     2  C   -0.100396
     3  C   -0.100396
     4  C    0.004821
     5  C    0.004821
     7  C   -0.011717
 Electronic spatial extent (au):  <R**2>=            529.9409
 Charge=              0.0000 electrons
 Dipole moment (field-independent basis, Debye):
    X=             -0.0117    Y=              0.4785    Z=              0.0000  Tot=              0.4786
 Quadrupole moment (field-independent basis, Debye-Ang):
   XX=            -39.6170   YY=            -33.9942   ZZ=            -35.1416
   XY=              0.2784   XZ=              0.0000   YZ=              0.0000
 Traceless Quadrupole moment (field-independent basis, Debye-Ang):
   XX=             -3.3660   YY=              2.2567   ZZ=              1.1093
   XY=              0.2784   XZ=              0.0000   YZ=              0.0000
 Octapole moment (field-independent basis, Debye-Ang**2):
  XXX=             -2.2527  YYY=             -5.8960  ZZZ=              0.0000  XYY=              1.2481
  XXY=              3.3539  XXZ=              0.0000  XZZ=              0.2698  YZZ=              0.8913
  YYZ=              0.0000  XYZ=              0.0000
 Hexadecapole moment (field-independent basis, Debye-Ang**3):
 XXXX=           -111.1567 YYYY=           -385.6794 ZZZZ=           -208.3625 XXXY=             53.0832
 XXXZ=              0.0000 YYYX=             48.6165 YYYZ=              0.0000 ZZZX=              0.0000
 ZZZY=              0.0000 XXYY=            -90.6662 XXZZ=            -62.6675 YYZZ=            -96.2813
 XXYZ=              0.0000 YYXZ=              0.0000 ZZXY=             15.7038
 N-N= 2.182559376950D+02 E-N=-9.773502114937D+02  KE= 2.320826824171D+02
 Symmetry A'   KE= 1.527241245648D+02
 Symmetry A"   KE= 7.935855785233D+01
 No NMR shielding tensors so no spin-rotation constants.
 Leave Link  601 at Thu Sep 28 16:39:15 2023, MaxMem=  6291456000 cpu:         2.1
 (Enter /home/minenky/programs//g09/l701.exe)
 Compute integral first derivatives.
 ... and contract with generalized density number  0.
 R6Disp: Adding Grimme-D2 dispersion energy 1st derivatives to the gradient.
   2 Symmetry operations used in ECPInt.
 ECPInt:  NShTT=    4851 NPrTT=   14352 LenC2=    4823 LenP2D=   12046.
 LDataN:  DoStor=T MaxTD1= 7 Len=  274
 Leave Link  701 at Thu Sep 28 16:39:15 2023, MaxMem=  6291456000 cpu:         2.3
 (Enter /home/minenky/programs//g09/l702.exe)
 L702 exits ... SP integral derivatives will be done elsewhere.
 Leave Link  702 at Thu Sep 28 16:39:15 2023, MaxMem=  6291456000 cpu:         0.2
 (Enter /home/minenky/programs//g09/l703.exe)
 Compute integral first derivatives, UseDBF=F ICtDFT=           0.
 Integral derivatives from FoFJK, PRISM(SPDF).
 Calling FoFJK, ICntrl=      2127 FMM=F ISym2X=1 I1Cent= 0 IOpClX= 0 NMat=1 NMatS=1 NMatT=0.
 FoFJK:  IHMeth= 1 ICntrl=    2127 DoSepK=T KAlg= 0 I1Cent=   0 FoldK=F
 IRaf=         1 NMat=   1 IRICut=       1 DoRegI=T DoRafI=F ISym2E= 1.
 FoFCou: FMM=F IPFlag=           0 FMFlag=      100000 FMFlg1=         800
         NFxFlg=           0 DoJE=F BraDBF=F KetDBF=F FulRan=T
         wScrn=  0.000000 ICntrl=    2527 IOpCl=  0 I1Cent=           0 NGrid=           0
         NMat0=    1 NMatS0=      1 NMatT0=    0 NMatD0=    1 NMtDS0=    0 NMtDT0=    0
 Petite list used in FoFCou.
 Leave Link  703 at Thu Sep 28 16:39:20 2023, MaxMem=  6291456000 cpu:        73.8
 (Enter /home/minenky/programs//g09/l716.exe)
 Dipole        =-4.59801004D-03 1.88245860D-01 0.00000000D+00
 ***** Axes restored to original set *****
 -------------------------------------------------------------------
 Center     Atomic                   Forces (Hartrees/Bohr)
 Number     Number              X              Y              Z
 -------------------------------------------------------------------
      1        6          -0.000070471    0.000000000    0.001380816
      2        6           0.003243277   -0.005711943    0.001346137
      3        6           0.003243277    0.005711943    0.001346137
      4        6          -0.005809583    0.000103345   -0.001881009
      5        6          -0.005809583   -0.000103345   -0.001881009
      6        1           0.001456649    0.000000000    0.002265843
      7        6           0.001720348    0.000000000   -0.000750143
      8        1           0.000814266   -0.001078802    0.000224713
      9        1           0.000814266    0.001078802    0.000224713
     10        1          -0.001491184   -0.000412610   -0.000365454
     11        1          -0.001491184    0.000412610   -0.000365454
     12        1           0.000162467    0.000000000   -0.001877203
     13        1           0.001608728    0.001631417    0.000165956
     14        1           0.001608728   -0.001631417    0.000165956
 -------------------------------------------------------------------
 Cartesian Forces:  Max     0.005809583 RMS     0.002182825
 Leave Link  716 at Thu Sep 28 16:39:20 2023, MaxMem=  6291456000 cpu:         0.2
 (Enter /home/minenky/programs//g09/l103.exe)

 GradGradGradGradGradGradGradGradGradGradGradGradGradGradGradGradGradGrad
 Berny optimization.
 FormGI is forming the generalized inverse of G from B-inverse, IUseBI=4.
 Internal  Forces:  Max     0.008075404 RMS     0.001910191
 Search for a local minimum.
 Step number   1 out of a maximum of   81
 All quantities printed in internal units (Hartrees-Bohrs-Radians)
 RMS Force = .19102D-02 SwitMx=.10000D-02 MixMth= 1
 Mixed Optimization -- RFO/linear search
 Second derivative matrix not updated -- first step.
 ITU=  0
     Eigenvalues ---    0.00234   0.00902   0.01330   0.01596   0.01876
     Eigenvalues ---    0.01941   0.02307   0.04516   0.04945   0.05468
     Eigenvalues ---    0.05480   0.07105   0.14059   0.16000   0.16000
     Eigenvalues ---    0.16000   0.16000   0.16000   0.16000   0.16000
     Eigenvalues ---    0.19953   0.22000   0.28499   0.29491   0.30624
     Eigenvalues ---    0.33384   0.34295   0.34295   0.34382   0.34636
     Eigenvalues ---    0.35607   0.35607   0.35695   0.35695   0.51159
     Eigenvalues ---    0.55489
 RFO step:  Lambda=-6.65301856D-04 EMin= 2.33863224D-03
 Linear search not attempted -- first point.
 Iteration  1 RMS(Cart)=  0.01050172 RMS(Int)=  0.00001556
 Iteration  2 RMS(Cart)=  0.00001445 RMS(Int)=  0.00000488
 Iteration  3 RMS(Cart)=  0.00000000 RMS(Int)=  0.00000488
 ITry= 1 IFail=0 DXMaxC= 3.53D-02 DCOld= 1.00D+10 DXMaxT= 3.00D-01 DXLimC= 3.00D+00 Rises=F
 ClnCor:  largest displacement from symmetrization is 6.87D-10 for atom     5.
 Variable       Old X    -DE/DX   Delta X   Delta X   Delta X     New X
                                 (Linear)    (Quad)   (Total)
    R1        2.85227  -0.00532   0.00000  -0.01597  -0.01597   2.83631
    R2        2.85227  -0.00532   0.00000  -0.01597  -0.01597   2.83631
    R3        2.08383  -0.00256   0.00000  -0.00765  -0.00765   2.07617
    R4        2.91060  -0.00554   0.00000  -0.01938  -0.01938   2.89122
    R5        2.54081  -0.00808   0.00000  -0.01457  -0.01457   2.52624
    R6        2.04561  -0.00129   0.00000  -0.00360  -0.00360   2.04202
    R7        2.54081  -0.00808   0.00000  -0.01457  -0.01457   2.52624
    R8        2.04561  -0.00129   0.00000  -0.00360  -0.00360   2.04202
    R9        2.77715  -0.00293   0.00000  -0.00921  -0.00922   2.76793
   R10        2.04700  -0.00150   0.00000  -0.00420  -0.00420   2.04280
   R11        2.04700  -0.00150   0.00000  -0.00420  -0.00420   2.04280
   R12        2.06690  -0.00181   0.00000  -0.00524  -0.00524   2.06166
   R13        2.06835  -0.00224   0.00000  -0.00652  -0.00652   2.06183
   R14        2.06835  -0.00224   0.00000  -0.00652  -0.00652   2.06183
    A1        1.78753   0.00003   0.00000  -0.00006  -0.00007   1.78746
    A2        1.90087  -0.00013   0.00000  -0.00104  -0.00104   1.89984
    A3        1.99467  -0.00024   0.00000  -0.00361  -0.00362   1.99106
    A4        1.90087  -0.00013   0.00000  -0.00104  -0.00104   1.89984
    A5        1.99467  -0.00024   0.00000  -0.00361  -0.00362   1.99106
    A6        1.88163   0.00065   0.00000   0.00884   0.00885   1.89048
    A7        1.91313  -0.00002   0.00000   0.00131   0.00131   1.91445
    A8        2.15150   0.00049   0.00000   0.00235   0.00235   2.15384
    A9        2.21855  -0.00047   0.00000  -0.00365  -0.00366   2.21489
   A10        1.91313  -0.00002   0.00000   0.00131   0.00131   1.91445
   A11        2.15150   0.00049   0.00000   0.00235   0.00235   2.15384
   A12        2.21855  -0.00047   0.00000  -0.00365  -0.00366   2.21489
   A13        1.90548   0.00000   0.00000  -0.00130  -0.00130   1.90418
   A14        2.20798  -0.00054   0.00000  -0.00269  -0.00268   2.20530
   A15        2.16972   0.00054   0.00000   0.00399   0.00399   2.17371
   A16        1.90548   0.00000   0.00000  -0.00130  -0.00130   1.90418
   A17        2.20798  -0.00054   0.00000  -0.00269  -0.00268   2.20530
   A18        2.16972   0.00054   0.00000   0.00399   0.00399   2.17371
   A19        1.93073  -0.00057   0.00000  -0.00374  -0.00374   1.92698
   A20        1.93506  -0.00048   0.00000  -0.00289  -0.00290   1.93216
   A21        1.93506  -0.00048   0.00000  -0.00289  -0.00290   1.93216
   A22        1.88895   0.00053   0.00000   0.00309   0.00308   1.89203
   A23        1.88895   0.00053   0.00000   0.00309   0.00308   1.89203
   A24        1.88341   0.00055   0.00000   0.00380   0.00380   1.88720
    D1        0.00456   0.00011   0.00000   0.00508   0.00508   0.00963
    D2       -3.13456   0.00007   0.00000   0.00287   0.00287  -3.13169
    D3       -2.00660   0.00029   0.00000   0.00670   0.00670  -1.99990
    D4        1.13748   0.00025   0.00000   0.00450   0.00449   1.14197
    D5        2.17143  -0.00030   0.00000  -0.00149  -0.00149   2.16994
    D6       -0.96769  -0.00033   0.00000  -0.00369  -0.00370  -0.97138
    D7       -0.00456  -0.00011   0.00000  -0.00508  -0.00508  -0.00963
    D8        3.13456  -0.00007   0.00000  -0.00287  -0.00287   3.13169
    D9        2.00660  -0.00029   0.00000  -0.00670  -0.00670   1.99990
   D10       -1.13748  -0.00025   0.00000  -0.00450  -0.00449  -1.14197
   D11       -2.17143   0.00030   0.00000   0.00149   0.00149  -2.16994
   D12        0.96769   0.00033   0.00000   0.00369   0.00370   0.97138
   D13       -1.02577   0.00016   0.00000   0.00272   0.00272  -1.02305
   D14       -3.12153   0.00018   0.00000   0.00321   0.00320  -3.11833
   D15        1.06999   0.00013   0.00000   0.00224   0.00223   1.07223
   D16        1.02577  -0.00016   0.00000  -0.00272  -0.00272   1.02305
   D17       -1.06999  -0.00013   0.00000  -0.00224  -0.00223  -1.07223
   D18        3.12153  -0.00018   0.00000  -0.00321  -0.00320   3.11833
   D19        3.14159   0.00000   0.00000   0.00000   0.00000   3.14159
   D20        1.04583   0.00003   0.00000   0.00048   0.00048   1.04631
   D21       -1.04583  -0.00003   0.00000  -0.00048  -0.00048  -1.04631
   D22       -0.00302  -0.00007   0.00000  -0.00337  -0.00336  -0.00639
   D23        3.13642   0.00000   0.00000   0.00003   0.00003   3.13644
   D24        3.13597  -0.00003   0.00000  -0.00105  -0.00105   3.13492
   D25       -0.00777   0.00004   0.00000   0.00235   0.00234  -0.00543
   D26        0.00302   0.00007   0.00000   0.00337   0.00336   0.00639
   D27       -3.13642   0.00000   0.00000  -0.00003  -0.00003  -3.13644
   D28       -3.13597   0.00003   0.00000   0.00105   0.00105  -3.13492
   D29        0.00777  -0.00004   0.00000  -0.00235  -0.00234   0.00543
   D30        0.00000   0.00000   0.00000   0.00000   0.00000   0.00000
   D31        3.13950   0.00007   0.00000   0.00329   0.00331  -3.14038
   D32       -3.13950  -0.00007   0.00000  -0.00329  -0.00331   3.14038
   D33        0.00000   0.00000   0.00000   0.00000   0.00000   0.00000
         Item               Value     Threshold  Converged?
 Maximum Force            0.008075     0.000015     NO 
 RMS     Force            0.001910     0.000010     NO 
 Maximum Displacement     0.035297     0.000060     NO 
 RMS     Displacement     0.010505     0.000040     NO 
 Predicted change in Energy=-3.333503D-04
 Lowest energy point so far.  Saving SCF results.
 GradGradGradGradGradGradGradGradGradGradGradGradGradGradGradGradGradGrad

 Leave Link  103 at Thu Sep 28 16:39:20 2023, MaxMem=  6291456000 cpu:         0.1
 (Enter /home/minenky/programs//g09/l202.exe)
                          Input orientation:                          
 ---------------------------------------------------------------------
 Center     Atomic      Atomic             Coordinates (Angstroms)
 Number     Number       Type             X           Y           Z
 ---------------------------------------------------------------------
      1          6           0       -0.738073    0.000000   -0.444236
      2          6           0        0.162282    1.169831   -0.172973
      3          6           0        0.162282   -1.169831   -0.172973
      4          6           0        1.375243    0.732362    0.179809
      5          6           0        1.375243   -0.732362    0.179809
      6          1           0       -1.009117    0.000000   -1.508941
      7          6           0       -2.027009    0.000000    0.380046
      8          1           0       -0.156565    2.198658   -0.259706
      9          1           0       -0.156565   -2.198658   -0.259706
     10          1           0        2.229923    1.345336    0.429511
     11          1           0        2.229923   -1.345336    0.429511
     12          1           0       -1.796622    0.000000    1.446428
     13          1           0       -2.627342   -0.883416    0.157305
     14          1           0       -2.627342    0.883416    0.157305
 ---------------------------------------------------------------------
                    Distance matrix (angstroms):
                    1          2          3          4          5
     1  C    0.000000
     2  C    1.500909   0.000000
     3  C    1.500909   2.339663   0.000000
     4  C    2.322044   1.336828   2.283434   0.000000
     5  C    2.322044   2.283434   1.336828   1.464725   0.000000
     6  H    1.098664   2.127320   2.127320   3.012210   3.012210
     7  C    1.529966   2.543094   2.543094   3.485938   3.485938
     8  H    2.281732   1.080588   3.384658   2.165556   3.336239
     9  H    2.281732   3.384658   1.080588   3.336239   2.165556
    10  H    3.373776   2.160771   3.311223   1.081002   2.260456
    11  H    3.373776   3.311223   2.160771   2.260456   1.081002
    12  H    2.166826   2.797904   2.797904   3.493051   3.493051
    13  H    2.170625   3.479498   2.823671   4.316472   4.005497
    14  H    2.170625   2.823671   3.479498   4.005497   4.316472
                    6          7          8          9         10
     6  H    0.000000
     7  C    2.145781   0.000000
     8  H    2.668620   2.956677   0.000000
     9  H    2.668620   2.956677   4.397316   0.000000
    10  H    4.007357   4.464734   2.626501   4.327845   0.000000
    11  H    4.007357   4.464734   4.327845   2.626501   2.690672
    12  H    3.058491   1.090985   3.230290   3.230290   4.365445
    13  H    2.485045   1.091071   3.972130   2.829929   5.351117
    14  H    2.485045   1.091071   2.829929   3.972130   4.886767
                   11         12         13         14
    11  H    0.000000
    12  H    4.365445   0.000000
    13  H    4.886767   1.769846   0.000000
    14  H    5.351117   1.769846   1.766832   0.000000
 Stoichiometry    C6H8
 Framework group  CS[SG(C2H2),X(C4H6)]
 Deg. of freedom    20
 Full point group                 CS      NOp   2
 RotChk:  IX=0 Diff= 1.58D-03
 Largest Abelian subgroup         CS      NOp   2
 Largest concise Abelian subgroup CS      NOp   2
                         Standard orientation:                         
 ---------------------------------------------------------------------
 Center     Atomic      Atomic             Coordinates (Angstroms)
 Number     Number       Type             X           Y           Z
 ---------------------------------------------------------------------
      1          6           0        0.239772    0.789778    0.000000
      2          6           0        0.230746   -0.150509    1.169831
      3          6           0        0.230746   -0.150509   -1.169831
      4          6           0        0.230746   -1.413731    0.732362
      5          6           0        0.230746   -1.413731   -0.732362
      6          1           0        1.186420    1.347381    0.000000
      7          6           0       -0.911677    1.797232    0.000000
      8          1           0        0.224983    0.179874    2.198658
      9          1           0        0.224983    0.179874   -2.198658
     10          1           0        0.229668   -2.304140    1.345336
[...]
    -- Stationary point found.
                           ----------------------------
                           !   Optimized Parameters   !
                           ! (Angstroms and Degrees)  !
 --------------------------                            --------------------------
 ! Name  Definition              Value          Derivative Info.                !
 --------------------------------------------------------------------------------
 ! R1    R(1,2)                  1.5014         -DE/DX =    0.0                 !
 ! R2    R(1,3)                  1.5014         -DE/DX =    0.0                 !
 ! R3    R(1,6)                  1.0989         -DE/DX =    0.0                 !
 ! R4    R(1,7)                  1.5303         -DE/DX =    0.0                 !
 ! R5    R(2,4)                  1.3377         -DE/DX =    0.0                 !
 ! R6    R(2,8)                  1.0809         -DE/DX =    0.0                 !
 ! R7    R(3,5)                  1.3377         -DE/DX =    0.0                 !
 ! R8    R(3,9)                  1.0809         -DE/DX =    0.0                 !
 ! R9    R(4,5)                  1.4657         -DE/DX =    0.0                 !
 ! R10   R(4,10)                 1.0811         -DE/DX =    0.0                 !
 ! R11   R(5,11)                 1.0811         -DE/DX =    0.0                 !
 ! R12   R(7,12)                 1.0911         -DE/DX =    0.0                 !
 ! R13   R(7,13)                 1.0911         -DE/DX =    0.0                 !
 ! R14   R(7,14)                 1.0911         -DE/DX =    0.0                 !
 ! A1    A(2,1,3)              102.3474         -DE/DX =    0.0                 !
 ! A2    A(2,1,6)              108.7417         -DE/DX =    0.0                 !
 ! A3    A(2,1,7)              114.1451         -DE/DX =    0.0                 !
 ! A4    A(3,1,6)              108.7417         -DE/DX =    0.0                 !
 ! A5    A(3,1,7)              114.1451         -DE/DX =    0.0                 !
 ! A6    A(6,1,7)              108.4459         -DE/DX =    0.0                 !
 ! A7    A(1,2,4)              109.7669         -DE/DX =    0.0                 !
 ! A8    A(1,2,8)              123.462          -DE/DX =    0.0                 !
 ! A9    A(4,2,8)              126.771          -DE/DX =    0.0                 !
 ! A10   A(1,3,5)              109.7669         -DE/DX =    0.0                 !
 ! A11   A(1,3,9)              123.462          -DE/DX =    0.0                 !
 ! A12   A(5,3,9)              126.771          -DE/DX =    0.0                 !
 ! A13   A(2,4,5)              109.0586         -DE/DX =    0.0                 !
 ! A14   A(2,4,10)             126.269          -DE/DX =    0.0                 !
 ! A15   A(5,4,10)             124.6724         -DE/DX =    0.0                 !
 ! A16   A(3,5,4)              109.0586         -DE/DX =    0.0                 !
 ! A17   A(3,5,11)             126.269          -DE/DX =    0.0                 !
 ! A18   A(4,5,11)             124.6724         -DE/DX =    0.0                 !
 ! A19   A(1,7,12)             110.3404         -DE/DX =    0.0                 !
 ! A20   A(1,7,13)             110.8286         -DE/DX =    0.0                 !
 ! A21   A(1,7,14)             110.8286         -DE/DX =    0.0                 !
 ! A22   A(12,7,13)            108.3368         -DE/DX =    0.0                 !
 ! A23   A(12,7,14)            108.3368         -DE/DX =    0.0                 !
 ! A24   A(13,7,14)            108.0786         -DE/DX =    0.0                 !
 ! D1    D(3,1,2,4)              0.3758         -DE/DX =    0.0                 !
 ! D2    D(3,1,2,8)           -179.5145         -DE/DX =    0.0                 !
 ! D3    D(6,1,2,4)           -114.5598         -DE/DX =    0.0                 !
 ! D4    D(6,1,2,8)             65.5499         -DE/DX =    0.0                 !
 ! D5    D(7,1,2,4)            124.225          -DE/DX =    0.0                 !
 ! D6    D(7,1,2,8)            -55.6653         -DE/DX =    0.0                 !
 ! D7    D(2,1,3,5)             -0.3758         -DE/DX =    0.0                 !
 ! D8    D(2,1,3,9)            179.5145         -DE/DX =    0.0                 !
 ! D9    D(6,1,3,5)            114.5598         -DE/DX =    0.0                 !
 ! D10   D(6,1,3,9)            -65.5499         -DE/DX =    0.0                 !
 ! D11   D(7,1,3,5)           -124.225          -DE/DX =    0.0                 !
 ! D12   D(7,1,3,9)             55.6653         -DE/DX =    0.0                 !
 ! D13   D(2,1,7,12)           -58.6211         -DE/DX =    0.0                 !
 ! D14   D(2,1,7,13)          -178.6222         -DE/DX =    0.0                 !
 ! D15   D(2,1,7,14)            61.3801         -DE/DX =    0.0                 !
 ! D16   D(3,1,7,12)            58.6211         -DE/DX =    0.0                 !
 ! D17   D(3,1,7,13)           -61.3801         -DE/DX =    0.0                 !
 ! D18   D(3,1,7,14)           178.6222         -DE/DX =    0.0                 !
 ! D19   D(6,1,7,12)           180.0            -DE/DX =    0.0                 !
 ! D20   D(6,1,7,13)            59.9989         -DE/DX =    0.0                 !
 ! D21   D(6,1,7,14)           -59.9989         -DE/DX =    0.0                 !
 ! D22   D(1,2,4,5)             -0.2493         -DE/DX =    0.0                 !
 ! D23   D(1,2,4,10)           179.7956         -DE/DX =    0.0                 !
 ! D24   D(8,2,4,5)            179.6364         -DE/DX =    0.0                 !
 ! D25   D(8,2,4,10)            -0.3187         -DE/DX =    0.0                 !
 ! D26   D(1,3,5,4)              0.2493         -DE/DX =    0.0                 !
 ! D27   D(1,3,5,11)          -179.7956         -DE/DX =    0.0                 !
 ! D28   D(9,3,5,4)           -179.6364         -DE/DX =    0.0                 !
 ! D29   D(9,3,5,11)             0.3187         -DE/DX =    0.0                 !
 ! D30   D(2,4,5,3)              0.0            -DE/DX =    0.0                 !
 ! D31   D(2,4,5,11)          -179.956          -DE/DX =    0.0                 !
 ! D32   D(10,4,5,3)           179.956          -DE/DX =    0.0                 !
 ! D33   D(10,4,5,11)            0.0            -DE/DX =    0.0                 !
 --------------------------------------------------------------------------------
 GradGradGradGradGradGradGradGradGradGradGradGradGradGradGradGradGradGrad

 Leave Link  103 at Thu Sep 28 16:43:14 2023, MaxMem=  6291456000 cpu:         0.1
 (Enter /home/minenky/programs//g09/l9999.exe)
 1\1\GINC-PC1\Freq\RwB97XD\def2TZVP\C6H8\MINENKY\28-Sep-2023\0\\#P Geom
 =AllCheck Guess=TCheck SCRF=Check GenChk RwB97XD/def2TZVP Freq\\The PB
 EPBE optimization and frequencies\\0,1\C,-0.7390649474,0.,-0.444484044
 1\C,0.1626717154,1.1696512774,-0.1744263342\C,0.1626717154,-1.16965127
 74,-0.1744263342\C,1.3762260557,0.7328496687,0.1803967643\C,1.37622605
 57,-0.7328496687,0.1803967643\H,-1.0078330695,0.,-1.5100302589\C,-2.02
 82711611,0.,0.3800804422\H,-0.1545022848,2.1992606274,-0.2614390135\H,
 -0.1545022848,-2.1992606274,-0.2614390135\H,2.2294528962,1.347893428,0
 .4305771854\H,2.2294528962,-1.347893428,0.4305771854\H,-1.7965322456,0
 .,1.4463065601\H,-2.6298671699,-0.8831800662,0.1595490468\H,-2.6298671
 699,0.8831800662,0.1595490468\\Version=AM64L-G09RevD.01\State=1-A'\HF=
 -233.4205534\RMSD=1.344e-09\RMSF=1.054e-06\ZeroPoint=0.1218479\Thermal
 =0.1273275\Dipole=-0.1806391,0.,-0.0493891\DipoleDeriv=-0.1450768,0.,-
 0.0802912,0.,-0.0447458,0.,-0.1074743,0.,0.1651344,0.0307867,0.0462853
 ,0.091674,0.0141252,-0.0991044,-0.0135061,0.1503524,0.0261379,-0.22255
 61,0.0307866,-0.0462853,0.091674,-0.0141251,-0.0991043,0.0135061,0.150
 3524,-0.0261379,-0.2225561,-0.0622741,0.1361173,0.052447,0.1252624,0.1
 210343,0.0306351,0.0238147,0.0377838,-0.1478733,-0.0622741,-0.1361173,
 0.052447,-0.1252623,0.1210344,-0.0306351,0.0238147,-0.0377839,-0.14787
 33,0.0228407,0.,-0.0272603,0.,0.0839525,0.,-0.0275327,0.,-0.0847789,0.
 1762667,0.,0.0255895,0.,0.131967,0.,-0.0453606,0.,0.085937,0.0618309,0
 .0376744,-0.025672,0.0343979,-0.0699528,0.0114586,-0.0258176,-0.000846
 5,0.1443947,0.0618309,-0.0376744,-0.025672,-0.0343979,-0.0699528,-0.01
 14586,-0.0258176,0.0008465,0.1443947,-0.0203483,-0.0753653,-0.0470889,
 -0.0871109,0.0032188,-0.0255683,-0.0590224,-0.0188807,0.1472796,-0.020
 3483,0.0753653,-0.0470889,0.0871109,0.0032188,0.0255683,-0.0590224,0.0
 188807,0.1472796,0.0333375,0.,-0.0699239,0.,0.0591474,0.,0.020247,0.,-
 0.112407,-0.0536791,-0.0596646,0.0045828,-0.1302799,-0.0703566,-0.0303
 107,-0.0092667,-0.0496217,0.0518123,-0.0536791,0.0596646,0.0045828,0.1
 302799,-0.0703566,0.0303107,-0.0092667,0.0496217,0.0518123\Polar=79.84
 64703,0.,68.6046098,5.2472194,0.,49.4204671\PG=CS [SG(C2H2),X(C4H6)]\N
 Imag=0\\0.52648532,0.,0.45251857,0.04753360,0.,0.52155139,-0.10969674,
 -0.06054995,-0.00920644,0.67617233,-0.04497881,-0.16176053,-0.01485139
 ,-0.15586242,0.71397113,-0.01086219,-0.02267675,-0.07537187,0.15123268
 ,-0.04187378,0.19088435,-0.10969674,0.06054995,-0.00920644,-0.00941238
 ,-0.00229208,-0.00570101,0.67617233,0.04497881,-0.16176052,0.01485139,
 0.00229208,-0.05695016,0.00230013,0.15586242,0.71397113,-0.01086219,0.
 02267676,-0.07537187,-0.00570101,-0.00230013,0.00496827,0.15123268,0.0
 4187378,0.19088435,-0.04588125,-0.00937193,-0.01650518,-0.43562274,0.1
 1524271,-0.10780368,0.00356790,-0.02592780,-0.00191860,0.81394570,-0.0
 0457808,0.00536191,0.00235280,0.10529951,-0.14195599,0.02994314,-0.046
 87247,-0.03961125,-0.01477355,0.04743980,0.57723487,-0.01593418,-0.003
 66716,-0.00122503,-0.10870558,0.03383576,-0.09527680,-0.00305724,-0.00
 742438,0.01059729,0.20014152,0.01348087,0.18990212,-0.04588125,0.00937
 193,-0.01650518,0.00356790,0.02592780,-0.00191860,-0.43562274,-0.11524
 271,-0.10780368,-0.09956984,0.00853984,-0.01125529,0.81394570,0.004578
 08,0.00536191,-0.00235280,0.04687247,-0.03961125,0.01477355,-0.1052995
 1,-0.14195599,-0.02994314,-0.00853984,-0.23103296,-0.00183547,-0.04743
 980,0.57723487,-0.01593418,0.00366715,-0.00122504,-0.00305724,0.007424
 38,0.01059729,-0.10870558,-0.03383576,-0.09527680,-0.01125529,0.001835
 47,-0.06215777,0.20014152,-0.01348087,0.18990212,-0.05247873,0.,-0.071
 38354,-0.00535558,0.00057934,-0.01618460,-0.00535558,-0.00057934,-0.01
 618460,-0.00236681,0.00106329,-0.00121843,-0.00236681,-0.00106329,-0.0
 0121843,0.06779713,0.,-0.04052331,0.,-0.00922015,0.00016364,-0.0263058
 9,0.00922015,0.00016364,0.02630589,-0.00327444,-0.00380633,0.00126891,
 0.00327444,-0.00380633,-0.00126891,0.,0.04563583,-0.06291587,0.,-0.276
 21282,-0.00297255,-0.00010817,-0.00649723,-0.00297255,0.00010817,-0.00
 649723,0.00053062,-0.00178961,0.00009898,0.00053062,0.00178961,0.00009
 898,0.06848152,0.,0.30664065,-0.14768814,0.,0.05811620,-0.02340770,-0.
 00304502,0.00775420,-0.02340770,0.00304501,0.00775420,0.00062720,-0.00
 282195,0.00186187,0.00062720,0.00282195,0.00186187,0.00359124,0.,-0.00
 235587,0.49702492,0.,-0.07642631,0.,-0.02403211,0.00316259,0.01653068,
 0.02403211,0.00316260,-0.01653067,-0.00289670,-0.00490881,-0.00301309,
 0.00289670,-0.00490881,0.00301308,0.,0.00064292,0.,0.,0.57673293,0.050
 20505,0.,-0.10351406,-0.00227480,0.00322728,0.00324381,-0.00227480,-0.
 00322728,0.00324381,-0.00294369,0.00013344,-0.00047292,-0.00294369,-0.
 00013344,-0.00047292,0.03163959,0.,-0.01956037,0.05313266,0.,0.5416052
 5,0.00919251,-0.01605974,0.00378263,-0.08068277,0.07897274,-0.01404321
 ,-0.00356721,-0.00318063,-0.00093713,0.00087820,0.02685150,-0.00137830
 ,-0.00410664,0.00152960,-0.00337668,0.00030621,0.00039255,-0.00052323,
 0.00172358,0.00040467,-0.00012224,0.07487374,0.01028952,-0.01025525,0.
 00315821,0.08244401,-0.32299216,0.02246713,-0.00234191,-0.00183705,-0.
 00085649,-0.00316974,-0.00247889,-0.00079140,0.00137292,-0.00011766,0.
 00038503,-0.00009127,0.00002373,-0.00049652,0.00056973,0.00021435,-0.0
 0014477,-0.08939227,0.33762131,0.00309860,-0.00529462,-0.00012301,-0.0
 1356750,0.02189244,-0.03513307,-0.00075673,-0.00092497,-0.00084582,-0.
 00163218,0.00794197,0.00539863,-0.00355776,0.00023287,0.00644029,0.000
 68184,0.00113986,0.00038942,-0.00081204,-0.00047814,0.00014930,0.01519
 222,-0.02440589,0.02622496,0.00919251,0.01605974,0.00378263,-0.0035672
 1,0.00318063,-0.00093713,-0.08068277,-0.07897274,-0.01404321,-0.004106
 64,-0.00152960,-0.00337668,0.00087820,-0.02685150,-0.00137830,0.000306
 21,-0.00039255,-0.00052323,0.00172358,-0.00040467,-0.00012224,0.001109
 52,0.00073736,-0.00027417,0.07487374,-0.01028952,-0.01025525,-0.003158
 21,0.00234191,-0.00183705,0.00085649,-0.08244401,-0.32299216,-0.022467
 13,-0.00137292,-0.00011766,-0.00038503,0.00316974,-0.00247889,0.000791
 40,0.00009127,0.00002373,0.00049652,-0.00056972,0.00021435,0.00014477,
 -0.00073736,-0.00057027,-0.00021239,0.08939227,0.33762131,0.00309860,0
 .00529462,-0.00012301,-0.00075673,0.00092497,-0.00084582,-0.01356750,-
 0.02189244,-0.03513307,-0.00355776,-0.00023287,0.00644029,-0.00163218,
 -0.00794197,0.00539863,0.00068184,-0.00113986,0.00038942,-0.00081204,0
 .00047814,0.00014930,-0.00027417,0.00021239,0.00204862,0.01519222,0.02
 440589,0.02622496,-0.00238595,0.00174580,-0.00419995,-0.01202728,-0.01
 976482,-0.00489923,-0.00031264,0.00191678,-0.00059643,-0.23615559,-0.1
 2875689,-0.05816918,0.00586216,0.00449874,0.00160292,-0.00103796,-0.00
 099232,-0.00022436,0.00001148,-0.00014386,-0.00027529,0.00031079,0.000
 55822,0.00169953,0.00046340,0.00003271,-0.00002813,0.24557257,0.002326
 90,-0.00151285,0.00072871,0.01045485,0.01173707,0.00310769,-0.00033366
 ,-0.00591607,-0.00013011,-0.13062497,-0.15436722,-0.03828358,-0.022131
 00,-0.00452241,-0.00645009,0.00004687,0.00037435,0.00000112,0.00001668
 ,0.00058577,0.00006735,-0.00087141,0.00028238,-0.00023489,-0.00135574,
 -0.00016404,-0.00041506,0.14161117,0.15303577,-0.00398098,0.00122525,0
 .01125100,-0.00499053,-0.00589449,0.00299056,-0.00022717,0.00031574,0.
 00163041,-0.05821491,-0.03778376,-0.05499318,0.00141645,0.00106202,0.0
 0080317,0.00152255,0.00176074,0.00009667,-0.00137004,-0.00230565,-0.00
 103490,0.00170429,0.00020241,-0.00502630,-0.00003453,0.00007452,0.0005
 5747,0.06468430,0.04149156,0.04401086,-0.00238595,-0.00174580,-0.00419
 995,-0.00031264,-0.00191678,-0.00059643,-0.01202728,0.01976482,-0.0048
 9923,0.00586216,-0.00449874,0.00160292,-0.23615559,0.12875689,-0.05816
 918,-0.00103796,0.00099232,-0.00022436,0.00001148,0.00014386,-0.000275
 29,0.00046340,-0.00003271,-0.00002813,0.00031079,-0.00055822,0.0016995
 3,-0.00016000,0.00075128,0.00010409,0.24557257,-0.00232691,-0.00151285
 ,-0.00072871,0.00033366,-0.00591607,0.00013011,-0.01045485,0.01173707,
 -0.00310769,0.02213100,-0.00452241,0.00645009,0.13062497,-0.15436722,0
 .03828358,-0.00004687,0.00037435,-0.00000111,-0.00001668,0.00058577,-0
 .00006735,0.00135574,-0.00016404,0.00041506,0.00087141,0.00028238,0.00
 023489,-0.00075128,0.00042906,-0.00020073,-0.14161117,0.15303577,-0.00
 398098,-0.00122525,0.01125100,-0.00022717,-0.00031574,0.00163041,-0.00
 499053,0.00589449,0.00299056,0.00141645,-0.00106202,0.00080317,-0.0582
 1491,0.03778376,-0.05499318,0.00152255,-0.00176074,0.00009667,-0.00137
 004,0.00230565,-0.00103490,-0.00003453,-0.00007452,0.00055747,0.001704
 29,-0.00020241,-0.00502630,0.00010409,0.00020073,-0.00042885,0.0646843
 0,-0.04149156,0.04401086,0.00437719,0.,0.02870885,0.00206324,0.0004376
 7,0.00066409,0.00206324,-0.00043767,0.00066409,0.00000241,0.00007507,-
 0.00055659,0.00000241,-0.00007507,-0.00055659,-0.00479101,0.,0.0036638
 4,-0.06068298,0.,-0.06104911,-0.00008026,-0.00006918,-0.00003280,-0.00
 008026,0.00006918,-0.00003280,-0.00001671,0.00001985,0.00012872,-0.000
 01671,-0.00001985,0.00012872,0.06548034,0.,-0.00091435,0.,0.00026100,-
 0.00016748,0.00093575,-0.00026100,-0.00016748,-0.00093575,0.00020702,0
 .00030607,-0.00014899,-0.00020702,0.00030607,0.00014899,0.,0.00065337,
 0.,0.,-0.04818208,0.,0.00003132,-0.00004423,0.00014839,-0.00003132,-0.
 00004423,-0.00014839,0.00003826,-0.00003889,-0.00006438,-0.00003826,-0
 .00003889,0.00006438,0.,0.04666143,-0.00180218,0.,-0.01634803,-0.00132
 903,-0.00064043,0.00007734,-0.00132903,0.00064043,0.00007734,0.0007473
 8,-0.00037484,0.00053390,0.00074737,0.00037484,0.00053390,0.00319737,0
 .,-0.00062855,-0.05996799,0.,-0.30233350,0.00014624,0.00013690,-0.0001
 2895,0.00014624,-0.00013690,-0.00012895,0.00013241,-0.00001622,-0.0001
 8629,0.00013241,0.00001622,-0.00018629,0.06131640,0.,0.32856941,-0.016
 57638,-0.02232605,-0.00535861,-0.00328390,0.00258769,0.00403073,0.0015
 6547,-0.00093135,-0.00073563,-0.00120096,-0.00104145,-0.00035587,0.000
 02027,-0.00083019,0.00040103,0.00139481,0.00008294,-0.00024729,-0.1250
 7707,-0.11748351,-0.03134807,-0.00003464,-0.00024371,-0.00008943,-0.00
 038642,0.00063096,0.00007855,-0.00008768,0.00019515,-0.00078767,-0.000
 03657,0.00010597,0.00004545,-0.00416046,-0.00510939,-0.00106880,0.1371
 1243,0.00176702,0.00083941,0.00023317,-0.00020202,0.00105110,0.0002208
 0,0.00043284,0.00110516,0.00040903,0.00011214,-0.00009337,0.00018561,-
 0.00004568,-0.00000797,-0.00032785,-0.00020632,0.00004021,0.00047234,-
 0.11829103,-0.22543763,-0.04582365,0.00029236,0.00021055,-0.00009356,-
 0.00041094,0.00010724,0.00012613,-0.00000070,0.00005972,0.00004997,-0.
 00000820,0.00001735,-0.00006679,0.00154102,0.00083533,0.00039219,0.129
 69122,0.24129421,0.01116846,0.01646352,0.00273068,0.00246281,-0.001305
 10,-0.00143940,-0.00090693,0.00001558,0.00017214,0.00096730,0.00066184
 ,0.00073198,0.00002804,0.00033287,-0.00038066,-0.00076884,0.00048155,0
 .00079270,-0.03189649,-0.04651343,-0.05998395,-0.00008808,0.00006613,-
 0.00008204,-0.00004781,-0.00014139,0.00013050,0.00015878,-0.00010687,0
 .00038270,0.00001054,-0.00003967,-0.00005331,-0.01652340,-0.02640225,-
 0.00492567,0.03092820,0.05035492,0.06130693,-0.01657638,0.02232605,-0.
 00535861,0.00156547,0.00093135,-0.00073563,-0.00328390,-0.00258769,0.0
 0403073,0.00002027,0.00083019,0.00040103,-0.00120096,0.00104145,-0.000
 35587,0.00139481,-0.00008294,-0.00024730,-0.12507707,0.11748351,-0.031
 34807,-0.00038642,-0.00063096,0.00007855,-0.00003464,0.00024371,-0.000
 08943,-0.00003657,-0.00010597,0.00004545,-0.00008768,-0.00019515,-0.00
 078767,-0.00416045,0.00510939,-0.00106880,0.01075111,-0.01467172,0.004
 50742,0.13711243,-0.00176702,0.00083941,-0.00023317,-0.00043284,0.0011
 0516,-0.00040903,0.00020202,0.00105110,-0.00022080,0.00004568,-0.00000
 797,0.00032785,-0.00011214,-0.00009337,-0.00018561,0.00020632,0.000040
 20,-0.00047234,0.11829103,-0.22543763,0.04582365,0.00041094,0.00010724
 ,-0.00012613,-0.00029236,0.00021055,0.00009356,0.00000820,0.00001735,0
 .00006679,0.00000070,0.00005972,-0.00004997,-0.00154102,0.00083533,-0.
 00039219,0.01467172,-0.02002131,0.00613231,-0.12969122,0.24129421,0.01
 116846,-0.01646352,0.00273068,-0.00090693,-0.00001558,0.00017214,0.002
 46281,0.00130510,-0.00143940,0.00002804,-0.00033287,-0.00038066,0.0009
 6730,-0.00066184,0.00073198,-0.00076884,-0.00048155,0.00079270,-0.0318
 9649,0.04651343,-0.05998395,-0.00004781,0.00014139,0.00013050,-0.00008
 808,-0.00006613,-0.00008204,0.00001054,0.00003967,-0.00005331,0.000158
 78,0.00010687,0.00038270,-0.01652340,0.02640225,-0.00492567,0.00450742
 ,-0.00613231,0.00061739,0.03092820,-0.05035492,0.06130693\\0.00000079,
 0.,-0.00000162,-0.00000071,0.00000054,0.00000026,-0.00000071,-0.000000
 54,0.00000026,0.00000047,-0.00000359,0.00000117,0.00000047,0.00000359,
 0.00000117,0.00000026,0.,-0.00000005,0.00000016,0.,-0.00000032,0.00000
 084,-0.00000010,0.00000023,0.00000084,0.00000010,0.00000023,-0.0000005
 6,0.00000067,0.00000125,-0.00000056,-0.00000067,0.00000125,-0.00000097
 ,0.,-0.00000076,-0.00000016,-0.00000024,-0.00000153,-0.00000016,0.0000
 0024,-0.00000153\\\@


 Sacred cows make the best hamburger.
                               -- Mark Twain
 Job cpu time:       0 days  0 hours 34 minutes 38.7 seconds.
 File lengths (MBytes):  RWF=     53 Int=      0 D2E=      0 Chk=      5 Scr=      1
 Normal termination of Gaussian 09 at Thu Sep 28 16:43:15 2023.
