 Entering Gaussian System, Link 0=/home/minenky/programs/g09/g09
 Input=m1_00_103-29-70_C14H14_wB97XD.inp
 Output=m1_00_103-29-70_C14H14_wB97XD.out
 Initial command:
 /home/minenky/programs//g09/l1.exe "/home/minenky/tmp/Gau-6667.inp" -scrdir="/home/minenky/tmp/"
 Entering Link 1 = /home/minenky/programs//g09/l1.exe PID=      6669.
  
 Copyright (c) 1988,1990,1992,1993,1995,1998,2003,2009,2013,
            Gaussian, Inc.  All Rights Reserved.
  
 This is part of the Gaussian(R) 09 program.  It is based on
 the Gaussian(R) 03 system (copyright 2003, Gaussian, Inc.),
 the Gaussian(R) 98 system (copyright 1998, Gaussian, Inc.),
 the Gaussian(R) 94 system (copyright 1995, Gaussian, Inc.),
 the Gaussian 92(TM) system (copyright 1992, Gaussian, Inc.),
 the Gaussian 90(TM) system (copyright 1990, Gaussian, Inc.),
 the Gaussian 88(TM) system (copyright 1988, Gaussian, Inc.),
 the Gaussian 86(TM) system (copyright 1986, Carnegie Mellon
 University), and the Gaussian 82(TM) system (copyright 1983,
 Carnegie Mellon University). Gaussian is a federally registered
 trademark of Gaussian, Inc.
  
 This software contains proprietary and confidential information,
 including trade secrets, belonging to Gaussian, Inc.
  
 This software is provided under written license and may be
 used, copied, transmitted, or stored only in accord with that
 written license.
  
 The following legend is applicable only to US Government
 contracts under FAR:
  
                    RESTRICTED RIGHTS LEGEND
  
 Use, reproduction and disclosure by the US Government is
 subject to restrictions as set forth in subparagraphs (a)
 and (c) of the Commercial Computer Software - Restricted
 Rights clause in FAR 52.227-19.
  
 Gaussian, Inc.
 340 Quinnipiac St., Bldg. 40, Wallingford CT 06492
  
  
 ---------------------------------------------------------------
 Warning -- This program may not be used in any manner that
 competes with the business of Gaussian, Inc. or will provide
 assistance to any competitor of Gaussian, Inc.  The licensee
 of this program is prohibited from giving any competitor of
 Gaussian, Inc. access to this program.  By using this program,
 the user acknowledges that Gaussian, Inc. is engaged in the
 business of creating and licensing software in the field of
 computational chemistry and represents and warrants to the
 licensee that it is not a competitor of Gaussian, Inc. and that
 it will not use this program in any manner prohibited above.
 ---------------------------------------------------------------
  

 Cite this work as:
 Gaussian 09, Revision D.01,
 M. J. Frisch, G. W. Trucks, H. B. Schlegel, G. E. Scuseria, 
 M. A. Robb, J. R. Cheeseman, G. Scalmani, V. Barone, B. Mennucci, 
 G. A. Petersson, H. Nakatsuji, M. Caricato, X. Li, H. P. Hratchian, 
 A. F. Izmaylov, J. Bloino, G. Zheng, J. L. Sonnenberg, M. Hada, 
 M. Ehara, K. Toyota, R. Fukuda, J. Hasegawa, M. Ishida, T. Nakajima, 
 Y. Honda, O. Kitao, H. Nakai, T. Vreven, J. A. Montgomery, Jr., 
 J. E. Peralta, F. Ogliaro, M. Bearpark, J. J. Heyd, E. Brothers, 
 K. N. Kudin, V. N. Staroverov, T. Keith, R. Kobayashi, J. Normand, 
 K. Raghavachari, A. Rendell, J. C. Burant, S. S. Iyengar, J. Tomasi, 
 M. Cossi, N. Rega, J. M. Millam, M. Klene, J. E. Knox, J. B. Cross, 
 V. Bakken, C. Adamo, J. Jaramillo, R. Gomperts, R. E. Stratmann, 
 O. Yazyev, A. J. Austin, R. Cammi, C. Pomelli, J. W. Ochterski, 
 R. L. Martin, K. Morokuma, V. G. Zakrzewski, G. A. Voth, 
 P. Salvador, J. J. Dannenberg, S. Dapprich, A. D. Daniels, 
 O. Farkas, J. B. Foresman, J. V. Ortiz, J. Cioslowski, 
 and D. J. Fox, Gaussian, Inc., Wallingford CT, 2013.
 
 ******************************************
 Gaussian 09:  AM64L-G09RevD.01 24-Apr-2013
                28-Sep-2023 
 ******************************************
 %chk=m1_00_103-29-70_C14H14_wB97XD
 %NProcLinda=1
 Will use up to    1 processors via Linda.
 %Nprocshared=16
 Will use up to   16 processors via shared memory.
 %mem=48000MB
 ----------------------------------------------------------------------
 #P wB97XD/def2tzvp opt=(tight) freq integral(Grid=ultrafine) # SCF(Max
 Cycle=380) 5d 7f GFPrint
 ----------------------------------------------------------------------
 1/7=10,14=-1,18=20,19=15,26=4,38=1/1,3;
 2/9=110,12=2,17=6,18=5,40=1/2;
 3/5=44,7=101,8=11,11=2,16=1,24=100,25=1,30=1,71=1,74=-58,75=-5/1,2,3;
 4//1;
 5/5=2,7=380,38=5/2;
 6/7=2,8=2,9=2,10=2,28=1/1;
 7//1,2,3,16;
 1/7=10,14=-1,18=20,19=15,26=4/3(2);
 2/9=110/2;
 99//99;
 2/9=110/2;
 3/5=44,7=101,8=11,11=2,16=1,25=1,30=1,71=1,74=-58,75=-5/1,2,3;
 4/5=5,16=3,69=1/1;
 5/5=2,7=380,38=5/2;
 7//1,2,3,16;
 1/7=10,14=-1,18=20,19=15,26=4/3(-5);
 2/9=110/2;
 6/7=2,8=2,9=2,10=2,19=2,28=1/1;
 99/9=1/99;
 Leave Link    1 at Thu Sep 28 13:20:58 2023, MaxMem=  6291456000 cpu:         0.3
 (Enter /home/minenky/programs//g09/l101.exe)
 ---------------------------------------
 The PBEPBE optimization and frequencies
 ---------------------------------------
 Symbolic Z-matrix:
 Charge =  0 Multiplicity = 1
 C                     0.55817  -1.95422  -0.5306 
 C                    -0.55766  -1.95483   0.52875 
 C                     1.47716  -0.77645  -0.40143 
 C                    -1.47695  -0.77719   0.40066 
 C                     1.25741   0.3886   -1.12951 
 C                     2.53984  -0.80456   0.49762 
 C                     2.07505   1.49615  -0.96405 
 C                     3.36044   0.29963   0.66723 
 C                     3.12909   1.456    -0.0639 
 C                    -2.53873  -0.80419  -0.49948 
 C                    -1.25835   0.38672   1.13089 
 C                    -3.35957   0.29998  -0.66806 
 C                    -2.07624   1.49425   0.96649 
 C                    -3.12936   1.45522   0.06523 
 H                     0.10175  -1.96     -1.52437 
 H                     1.13056  -2.88146  -0.43392 
 H                    -0.10121  -1.96135   1.52251 
 H                    -1.1298   -2.88215   0.43128 
 H                     0.42676   0.42983  -1.82589 
 H                     2.72751  -1.70743   1.07091 
 H                    -2.72551  -1.70617  -1.07448 
 H                    -0.42838   0.42709   1.82813 
 H                     1.88611   2.39505  -1.53973 
 H                     4.1856    0.25629   1.36909 
 H                    -4.18402   0.25751  -1.37081 
 H                    -1.88818   2.39226   1.54384 
 H                     3.77019   2.32027   0.06522 
 H                    -3.77065   2.31947  -0.06309 
 
 NAtoms=     28 NQM=       28 NQMF=       0 NMMI=      0 NMMIF=      0
                NMic=       0 NMicF=      0.
                    Isotopes and Nuclear Properties:
 (Nuclear quadrupole moments (NQMom) in fm**2, nuclear magnetic moments (NMagM)
  in nuclear magnetons)

  Atom         1           2           3           4           5           6           7           8           9          10
 IAtWgt=          12          12          12          12          12          12          12          12          12          12
 AtmWgt=  12.0000000  12.0000000  12.0000000  12.0000000  12.0000000  12.0000000  12.0000000  12.0000000  12.0000000  12.0000000
 NucSpn=           0           0           0           0           0           0           0           0           0           0
 AtZEff=   0.0000000   0.0000000   0.0000000   0.0000000   0.0000000   0.0000000   0.0000000   0.0000000   0.0000000   0.0000000
 NQMom=    0.0000000   0.0000000   0.0000000   0.0000000   0.0000000   0.0000000   0.0000000   0.0000000   0.0000000   0.0000000
 NMagM=    0.0000000   0.0000000   0.0000000   0.0000000   0.0000000   0.0000000   0.0000000   0.0000000   0.0000000   0.0000000
 AtZNuc=   6.0000000   6.0000000   6.0000000   6.0000000   6.0000000   6.0000000   6.0000000   6.0000000   6.0000000   6.0000000

  Atom        11          12          13          14          15          16          17          18          19          20
 IAtWgt=          12          12          12          12           1           1           1           1           1           1
 AtmWgt=  12.0000000  12.0000000  12.0000000  12.0000000   1.0078250   1.0078250   1.0078250   1.0078250   1.0078250   1.0078250
 NucSpn=           0           0           0           0           1           1           1           1           1           1
 AtZEff=   0.0000000   0.0000000   0.0000000   0.0000000   0.0000000   0.0000000   0.0000000   0.0000000   0.0000000   0.0000000
 NQMom=    0.0000000   0.0000000   0.0000000   0.0000000   0.0000000   0.0000000   0.0000000   0.0000000   0.0000000   0.0000000
 NMagM=    0.0000000   0.0000000   0.0000000   0.0000000   2.7928460   2.7928460   2.7928460   2.7928460   2.7928460   2.7928460
 AtZNuc=   6.0000000   6.0000000   6.0000000   6.0000000   1.0000000   1.0000000   1.0000000   1.0000000   1.0000000   1.0000000

  Atom        21          22          23          24          25          26          27          28
 IAtWgt=           1           1           1           1           1           1           1           1
 AtmWgt=   1.0078250   1.0078250   1.0078250   1.0078250   1.0078250   1.0078250   1.0078250   1.0078250
 NucSpn=           1           1           1           1           1           1           1           1
 AtZEff=   0.0000000   0.0000000   0.0000000   0.0000000   0.0000000   0.0000000   0.0000000   0.0000000
 NQMom=    0.0000000   0.0000000   0.0000000   0.0000000   0.0000000   0.0000000   0.0000000   0.0000000
 NMagM=    2.7928460   2.7928460   2.7928460   2.7928460   2.7928460   2.7928460   2.7928460   2.7928460
 AtZNuc=   1.0000000   1.0000000   1.0000000   1.0000000   1.0000000   1.0000000   1.0000000   1.0000000
 Leave Link  101 at Thu Sep 28 13:20:58 2023, MaxMem=  6291456000 cpu:         4.5
 (Enter /home/minenky/programs//g09/l103.exe)

 GradGradGradGradGradGradGradGradGradGradGradGradGradGradGradGradGradGrad
 Berny optimization.
 Initialization pass.
                           ----------------------------
                           !    Initial Parameters    !
                           ! (Angstroms and Degrees)  !
 --------------------------                            --------------------------
 ! Name  Definition              Value          Derivative Info.                !
 --------------------------------------------------------------------------------
 ! R1    R(1,2)                  1.5386         estimate D2E/DX2                !
 ! R2    R(1,3)                  1.4995         estimate D2E/DX2                !
 ! R3    R(1,15)                 1.0936         estimate D2E/DX2                !
 ! R4    R(1,16)                 1.094          estimate D2E/DX2                !
 ! R5    R(2,4)                  1.4994         estimate D2E/DX2                !
 ! R6    R(2,17)                 1.0936         estimate D2E/DX2                !
 ! R7    R(2,18)                 1.094          estimate D2E/DX2                !
 ! R8    R(3,5)                  1.3913         estimate D2E/DX2                !
 ! R9    R(3,6)                  1.3922         estimate D2E/DX2                !
 ! R10   R(4,10)                 1.3923         estimate D2E/DX2                !
 ! R11   R(4,11)                 1.3913         estimate D2E/DX2                !
 ! R12   R(5,7)                  1.3866         estimate D2E/DX2                !
 ! R13   R(5,19)                 1.0847         estimate D2E/DX2                !
 ! R14   R(6,8)                  1.3861         estimate D2E/DX2                !
 ! R15   R(6,20)                 1.0858         estimate D2E/DX2                !
 ! R16   R(7,9)                  1.3867         estimate D2E/DX2                !
 ! R17   R(7,23)                 1.084          estimate D2E/DX2                !
 ! R18   R(8,9)                  1.3875         estimate D2E/DX2                !
 ! R19   R(8,24)                 1.0842         estimate D2E/DX2                !
 ! R20   R(9,27)                 1.0838         estimate D2E/DX2                !
 ! R21   R(10,12)                1.3861         estimate D2E/DX2                !
 ! R22   R(10,21)                1.0858         estimate D2E/DX2                !
 ! R23   R(11,13)                1.3866         estimate D2E/DX2                !
 ! R24   R(11,22)                1.0847         estimate D2E/DX2                !
 ! R25   R(12,14)                1.3875         estimate D2E/DX2                !
 ! R26   R(12,25)                1.0842         estimate D2E/DX2                !
 ! R27   R(13,14)                1.3867         estimate D2E/DX2                !
 ! R28   R(13,26)                1.084          estimate D2E/DX2                !
 ! R29   R(14,28)                1.0838         estimate D2E/DX2                !
 ! A1    A(2,1,3)              112.6733         estimate D2E/DX2                !
 ! A2    A(2,1,15)             108.8439         estimate D2E/DX2                !
 ! A3    A(2,1,16)             108.5586         estimate D2E/DX2                !
 ! A4    A(3,1,15)             109.7688         estimate D2E/DX2                !
 ! A5    A(3,1,16)             109.7229         estimate D2E/DX2                !
 ! A6    A(15,1,16)            107.1094         estimate D2E/DX2                !
 ! A7    A(1,2,4)              112.6745         estimate D2E/DX2                !
 ! A8    A(1,2,17)             108.8424         estimate D2E/DX2                !
 ! A9    A(1,2,18)             108.5592         estimate D2E/DX2                !
 ! A10   A(4,2,17)             109.7672         estimate D2E/DX2                !
 ! A11   A(4,2,18)             109.7238         estimate D2E/DX2                !
 ! A12   A(17,2,18)            107.1098         estimate D2E/DX2                !
 ! A13   A(1,3,5)              121.0543         estimate D2E/DX2                !
 ! A14   A(1,3,6)              120.5022         estimate D2E/DX2                !
 ! A15   A(5,3,6)              118.3846         estimate D2E/DX2                !
 ! A16   A(2,4,10)             120.5016         estimate D2E/DX2                !
 ! A17   A(2,4,11)             121.0549         estimate D2E/DX2                !
 ! A18   A(10,4,11)            118.3846         estimate D2E/DX2                !
 ! A19   A(3,5,7)              120.8833         estimate D2E/DX2                !
 ! A20   A(3,5,19)             119.2574         estimate D2E/DX2                !
 ! A21   A(7,5,19)             119.8552         estimate D2E/DX2                !
 ! A22   A(3,6,8)              120.9839         estimate D2E/DX2                !
 ! A23   A(3,6,20)             119.3174         estimate D2E/DX2                !
 ! A24   A(8,6,20)             119.6985         estimate D2E/DX2                !
 ! A25   A(5,7,9)              120.1694         estimate D2E/DX2                !
 ! A26   A(5,7,23)             119.749          estimate D2E/DX2                !
 ! A27   A(9,7,23)             120.0814         estimate D2E/DX2                !
 ! A28   A(6,8,9)              120.046          estimate D2E/DX2                !
 ! A29   A(6,8,24)             119.8646         estimate D2E/DX2                !
 ! A30   A(9,8,24)             120.0889         estimate D2E/DX2                !
 ! A31   A(7,9,8)              119.5326         estimate D2E/DX2                !
 ! A32   A(7,9,27)             120.2567         estimate D2E/DX2                !
 ! A33   A(8,9,27)             120.2103         estimate D2E/DX2                !
 ! A34   A(4,10,12)            120.9837         estimate D2E/DX2                !
 ! A35   A(4,10,21)            119.318          estimate D2E/DX2                !
 ! A36   A(12,10,21)           119.6981         estimate D2E/DX2                !
 ! A37   A(4,11,13)            120.8838         estimate D2E/DX2                !
 ! A38   A(4,11,22)            119.2565         estimate D2E/DX2                !
 ! A39   A(13,11,22)           119.8556         estimate D2E/DX2                !
 ! A40   A(10,12,14)           120.0462         estimate D2E/DX2                !
 ! A41   A(10,12,25)           119.8647         estimate D2E/DX2                !
 ! A42   A(14,12,25)           120.0887         estimate D2E/DX2                !
 ! A43   A(11,13,14)           120.1691         estimate D2E/DX2                !
 ! A44   A(11,13,26)           119.7494         estimate D2E/DX2                !
 ! A45   A(14,13,26)           120.0814         estimate D2E/DX2                !
 ! A46   A(12,14,13)           119.5326         estimate D2E/DX2                !
 ! A47   A(12,14,28)           120.2103         estimate D2E/DX2                !
 ! A48   A(13,14,28)           120.2568         estimate D2E/DX2                !
 ! D1    D(3,1,2,4)             63.3126         estimate D2E/DX2                !
 ! D2    D(3,1,2,17)           -58.683          estimate D2E/DX2                !
 ! D3    D(3,1,2,18)          -174.9458         estimate D2E/DX2                !
 ! D4    D(15,1,2,4)           -58.6853         estimate D2E/DX2                !
 ! D5    D(15,1,2,17)          179.3191         estimate D2E/DX2                !
 ! D6    D(15,1,2,18)           63.0563         estimate D2E/DX2                !
 ! D7    D(16,1,2,4)          -174.9482         estimate D2E/DX2                !
 ! D8    D(16,1,2,17)           63.0563         estimate D2E/DX2                !
 ! D9    D(16,1,2,18)          -53.2065         estimate D2E/DX2                !
 ! D10   D(2,1,3,5)            -93.4266         estimate D2E/DX2                !
 ! D11   D(2,1,3,6)             83.7376         estimate D2E/DX2                !
 ! D12   D(15,1,3,5)            28.0474         estimate D2E/DX2                !
 ! D13   D(15,1,3,6)          -154.7884         estimate D2E/DX2                !
 ! D14   D(16,1,3,5)           145.4959         estimate D2E/DX2                !
 ! D15   D(16,1,3,6)           -37.3399         estimate D2E/DX2                !
 ! D16   D(1,2,4,10)            83.6654         estimate D2E/DX2                !
 ! D17   D(1,2,4,11)           -93.498          estimate D2E/DX2                !
 ! D18   D(17,2,4,10)         -154.8629         estimate D2E/DX2                !
 ! D19   D(17,2,4,11)           27.9737         estimate D2E/DX2                !
 ! D20   D(18,2,4,10)          -37.4143         estimate D2E/DX2                !
 ! D21   D(18,2,4,11)          145.4223         estimate D2E/DX2                !
 ! D22   D(1,3,5,7)            177.1593         estimate D2E/DX2                !
 ! D23   D(1,3,5,19)            -2.1046         estimate D2E/DX2                !
 ! D24   D(6,3,5,7)             -0.0635         estimate D2E/DX2                !
 ! D25   D(6,3,5,19)          -179.3274         estimate D2E/DX2                !
 ! D26   D(1,3,6,8)           -177.171          estimate D2E/DX2                !
 ! D27   D(1,3,6,20)             2.999          estimate D2E/DX2                !
 ! D28   D(5,3,6,8)              0.0677         estimate D2E/DX2                !
 ! D29   D(5,3,6,20)          -179.7623         estimate D2E/DX2                !
 ! D30   D(2,4,10,12)         -177.17           estimate D2E/DX2                !
 ! D31   D(2,4,10,21)            2.9989         estimate D2E/DX2                !
 ! D32   D(11,4,10,12)           0.068          estimate D2E/DX2                !
 ! D33   D(11,4,10,21)        -179.7631         estimate D2E/DX2                !
 ! D34   D(2,4,11,13)          177.1586         estimate D2E/DX2                !
 ! D35   D(2,4,11,22)           -2.1035         estimate D2E/DX2                !
 ! D36   D(10,4,11,13)          -0.0634         estimate D2E/DX2                !
 ! D37   D(10,4,11,22)        -179.3255         estimate D2E/DX2                !
 ! D38   D(3,5,7,9)             -0.0282         estimate D2E/DX2                !
 ! D39   D(3,5,7,23)          -179.8997         estimate D2E/DX2                !
 ! D40   D(19,5,7,9)           179.2313         estimate D2E/DX2                !
 ! D41   D(19,5,7,23)           -0.6402         estimate D2E/DX2                !
 ! D42   D(3,6,8,9)              0.0199         estimate D2E/DX2                !
 ! D43   D(3,6,8,24)          -179.7235         estimate D2E/DX2                !
 ! D44   D(20,6,8,9)           179.8492         estimate D2E/DX2                !
 ! D45   D(20,6,8,24)            0.1057         estimate D2E/DX2                !
 ! D46   D(5,7,9,8)              0.1166         estimate D2E/DX2                !
 ! D47   D(5,7,9,27)           179.8877         estimate D2E/DX2                !
 ! D48   D(23,7,9,8)           179.9876         estimate D2E/DX2                !
 ! D49   D(23,7,9,27)           -0.2413         estimate D2E/DX2                !
 ! D50   D(6,8,9,7)             -0.1124         estimate D2E/DX2                !
 ! D51   D(6,8,9,27)          -179.8836         estimate D2E/DX2                !
 ! D52   D(24,8,9,7)           179.6305         estimate D2E/DX2                !
 ! D53   D(24,8,9,27)           -0.1407         estimate D2E/DX2                !
 ! D54   D(4,10,12,14)           0.0195         estimate D2E/DX2                !
 ! D55   D(4,10,12,25)        -179.7242         estimate D2E/DX2                !
 ! D56   D(21,10,12,14)        179.85           estimate D2E/DX2                !
 ! D57   D(21,10,12,25)          0.1062         estimate D2E/DX2                !
 ! D58   D(4,11,13,14)          -0.0287         estimate D2E/DX2                !
 ! D59   D(4,11,13,26)        -179.8992         estimate D2E/DX2                !
 ! D60   D(22,11,13,14)        179.229          estimate D2E/DX2                !
 ! D61   D(22,11,13,26)         -0.6415         estimate D2E/DX2                !
 ! D62   D(10,12,14,13)         -0.1124         estimate D2E/DX2                !
 ! D63   D(10,12,14,28)       -179.8837         estimate D2E/DX2                !
 ! D64   D(25,12,14,13)        179.6308         estimate D2E/DX2                !
 ! D65   D(25,12,14,28)         -0.1405         estimate D2E/DX2                !
 ! D66   D(11,13,14,12)          0.117          estimate D2E/DX2                !
 ! D67   D(11,13,14,28)        179.8882         estimate D2E/DX2                !
 ! D68   D(26,13,14,12)        179.9871         estimate D2E/DX2                !
 ! D69   D(26,13,14,28)         -0.2417         estimate D2E/DX2                !
 --------------------------------------------------------------------------------
 Trust Radius=3.00D-01 FncErr=1.00D-07 GrdErr=1.00D-06
 Number of steps in this run=    156 maximum allowed number of steps=    168.
 GradGradGradGradGradGradGradGradGradGradGradGradGradGradGradGradGradGrad

 Leave Link  103 at Thu Sep 28 13:20:58 2023, MaxMem=  6291456000 cpu:         0.1
 (Enter /home/minenky/programs//g09/l202.exe)
                          Input orientation:                          
 ---------------------------------------------------------------------
 Center     Atomic      Atomic             Coordinates (Angstroms)
 Number     Number       Type             X           Y           Z
 ---------------------------------------------------------------------
      1          6           0        0.558173   -1.954218   -0.530597
      2          6           0       -0.557655   -1.954831    0.528747
      3          6           0        1.477158   -0.776450   -0.401425
      4          6           0       -1.476947   -0.777188    0.400657
      5          6           0        1.257411    0.388600   -1.129507
      6          6           0        2.539835   -0.804559    0.497621
      7          6           0        2.075055    1.496153   -0.964054
      8          6           0        3.360437    0.299631    0.667230
      9          6           0        3.129090    1.456000   -0.063902
     10          6           0       -2.538734   -0.804189   -0.499483
     11          6           0       -1.258348    0.386718    1.130889
     12          6           0       -3.359566    0.299981   -0.668060
     13          6           0       -2.076236    1.494254    0.966486
     14          6           0       -3.129363    1.455219    0.065230
     15          1           0        0.101754   -1.959999   -1.524374
     16          1           0        1.130564   -2.881459   -0.433923
     17          1           0       -0.101210   -1.961349    1.522505
     18          1           0       -1.129798   -2.882146    0.431276
     19          1           0        0.426760    0.429829   -1.825892
     20          1           0        2.727511   -1.707433    1.070914
     21          1           0       -2.725514   -1.706166   -1.074479
     22          1           0       -0.428375    0.427086    1.828132
     23          1           0        1.886108    2.395045   -1.539731
     24          1           0        4.185603    0.256288    1.369090
     25          1           0       -4.184020    0.257514   -1.370809
     26          1           0       -1.888181    2.392257    1.543841
     27          1           0        3.770187    2.320266    0.065223
     28          1           0       -3.770647    2.319466   -0.063090
 ---------------------------------------------------------------------
                    Distance matrix (angstroms):
                    1          2          3          4          5
     1  C    0.000000
     2  C    1.538597   0.000000
     3  C    1.499452   2.528689   0.000000
     4  C    2.528705   1.499449   3.061057   0.000000
     5  C    2.517225   3.396460   1.391306   3.343229   0.000000
     6  C    2.511162   3.304321   1.392249   4.018045   2.390771
     7  C    3.793926   4.590088   2.416352   4.432520   1.386575
     8  C    3.790423   4.522524   2.417998   4.962951   2.767471
     9  C    4.296162   5.057380   2.797612   5.139895   2.403755
    10  C    3.303690   2.511157   4.017185   1.392255   4.028696
    11  C    3.397097   2.517220   3.344240   1.391295   3.382076
    12  C    4.522056   3.790413   4.962227   2.417996   4.640826
    13  C    4.590569   3.793928   4.433270   2.416352   4.090093
    14  C    5.057390   4.296158   5.139859   2.797612   4.669996
    15  H    1.093592   2.156421   2.133902   2.756281   2.647146
    16  H    1.093962   2.153011   2.133599   3.453056   3.345626
    17  H    2.156401   1.093590   2.756218   2.133877   3.794902
    18  H    2.153020   1.093966   3.453052   2.133612   4.339653
    19  H    2.716383   3.492850   2.141857   3.168361   1.084727
    20  H    2.707724   3.338782   2.144270   4.357989   3.375856
    21  H    3.337655   2.707726   4.356584   2.144282   4.500529
    22  H    3.493922   2.716366   3.170249   2.141837   3.404553
    23  H    4.658095   5.401111   3.394313   5.013812   2.142280
    24  H    4.653321   5.300351   3.396608   5.836986   3.851597
    25  H    5.299633   4.653311   5.835900   3.396608   5.448356
    26  H    5.401832   4.658099   5.015005   3.394314   4.588701
    27  H    5.379893   6.100945   3.881416   6.102389   3.387146
    28  H    6.100952   5.379889   6.102346   3.881416   5.490615
                    6          7          8          9         10
     6  C    0.000000
     7  C    2.765102   0.000000
     8  C    1.386142   2.396864   0.000000
     9  C    2.402635   1.386678   1.387539   0.000000
    10  C    5.175527   5.176335   6.113907   6.117386   0.000000
    11  C    4.030678   4.090380   4.642816   4.671242   2.390766
    12  C    6.114062   5.572571   6.851382   6.618462   1.386137
    13  C    5.178078   4.578232   5.574414   5.306466   2.765106
    14  C    6.118281   5.305381   6.619312   6.259785   2.402638
    15  H    3.371609   4.019062   4.530791   4.792368   3.059162
    16  H    2.677187   4.509611   4.037847   4.790049   4.217001
    17  H    3.060011   4.782617   4.222147   4.962842   3.371792
    18  H    4.217461   5.602458   5.508320   6.099413   2.677558
    19  H    3.374539   2.143989   3.852151   3.385295   3.475099
    20  H    1.085849   3.850942   2.142863   3.384728   5.569141
    21  H    5.568509   5.771698   6.640450   6.730301   1.085850
    22  H    3.478143   3.899534   3.964724   4.158607   3.374529
    23  H    3.849107   1.084026   3.381580   2.145899   5.558457
    24  H    2.143223   3.381603   1.084152   2.146857   7.059241
    25  H    7.058984   6.393410   7.814999   7.525022   2.143219
    26  H    5.560713   4.774911   5.718000   5.351114   3.849111
    27  H    3.386040   2.147567   2.147853   1.083805   7.062832
    28  H    7.063718   5.971751   7.447514   6.953556   3.386040
                   11         12         13         14         15
    11  C    0.000000
    12  C    2.767464   0.000000
    13  C    1.386580   2.396866   0.000000
    14  C    2.403751   1.387545   1.386673   0.000000
    15  H    3.795705   4.221554   4.783293   4.962930   0.000000
    16  H    4.340106   5.507962   5.602819   6.099419   1.759722
    17  H    2.646838   4.530902   4.018840   4.792317   3.053632
    18  H    3.345363   4.038111   4.509442   4.790092   2.488301
    19  H    3.403528   3.961527   3.898123   4.156173   2.430601
    20  H    4.502903   6.641253   5.773880   6.731771   3.700528
    21  H    3.375854   2.142854   3.850946   3.384728   2.874070
    22  H    1.084727   3.852144   2.143998   3.385294   4.149519
    23  H    4.588376   5.715435   4.774172   5.349217   4.706438
    24  H    5.450721   7.815463   6.395723   7.526368   5.473745
    25  H    3.851590   1.084151   3.381601   2.146860   4.827919
    26  H    2.142290   3.381582   1.084026   2.145895   5.684709
    27  H    5.491850   7.446652   5.972875   6.953567   5.857037
    28  H    3.387144   2.147858   2.147564   1.083805   5.953542
                   16         17         18         19         20
    16  H    0.000000
    17  H    2.488268   0.000000
    18  H    2.420291   1.759728   0.000000
    19  H    3.660266   4.148282   4.299635   0.000000
    20  H    2.488596   2.875773   4.082636   4.272333   0.000000
    21  H    4.081784   3.700867   2.489284   3.881228   5.859880
    22  H    4.300425   2.430034   3.659811   3.752753   3.884478
    23  H    5.443818   5.683739   6.389781   2.464479   4.934952
    24  H    4.735987   4.828894   6.243617   4.936287   2.463969
    25  H    6.243053   5.473934   4.736375   4.636387   7.588958
    26  H    6.390341   4.706124   5.443553   4.534884   6.191585
    27  H    5.854460   5.953454   7.156042   4.281188   4.280298
    28  H    7.156047   5.856984   5.854507   4.929140   7.728385
                   21         22         23         24         25
    21  H    0.000000
    22  H    4.272325   0.000000
    23  H    6.188978   4.535658   0.000000
    24  H    7.588530   4.639901   4.280561   0.000000
    25  H    2.463958   4.936279   6.437704   8.806681   0.000000
    26  H    4.934957   2.464498   4.873775   6.440788   4.280559
    27  H    7.726914   4.931521   2.476131   2.476418   8.341855
    28  H    4.280295   4.281192   5.846799   8.343246   2.476419
                   26         27         28
    26  H    0.000000
    27  H    5.848814   0.000000
    28  H    2.476127   7.541926   0.000000
 Stoichiometry    C14H14
 Framework group  C1[X(C14H14)]
 Deg. of freedom    78
 Full point group                 C1      NOp   1
 Largest Abelian subgroup         C1      NOp   1
 Largest concise Abelian subgroup C1      NOp   1
                         Standard orientation:                         
 ---------------------------------------------------------------------
 Center     Atomic      Atomic             Coordinates (Angstroms)
 Number     Number       Type             X           Y           Z
 ---------------------------------------------------------------------
      1          6           0       -0.561490    1.943600   -0.525922
      2          6           0        0.561134    1.943611    0.526217
      3          6           0       -1.479661    0.765788   -0.391472
      4          6           0        1.479546    0.766012    0.391577
      5          6           0       -1.264642   -0.398876   -1.121581
      6          6           0       -2.536528    0.793442    0.514412
      7          6           0       -2.081238   -1.506495   -0.951464
      8          6           0       -3.356055   -0.310817    0.688705
      9          6           0       -3.129455   -1.466798   -0.044524
     10          6           0        2.535517    0.793469   -0.515364
     11          6           0        1.265616   -0.398281    1.122574
     12          6           0        3.355213   -0.310633   -0.689817
     13          6           0        2.082395   -1.505751    0.952313
     14          6           0        3.129699   -1.466259    0.044317
     15          1           0       -0.111478    1.949904   -1.522614
     16          1           0       -1.133218    2.870804   -0.425066
     17          1           0        0.111096    1.949606    1.522896
     18          1           0        1.132667    2.870963    0.425564
     19          1           0       -0.438492   -0.439752   -1.823321
     20          1           0       -2.720481    1.696012    1.089387
     21          1           0        2.718620    1.695750   -1.091065
     22          1           0        0.440148   -0.439002    1.825124
     23          1           0       -1.896029   -2.405082   -1.528830
     24          1           0       -4.176685   -0.267829    1.395885
     25          1           0        4.175127   -0.267810   -1.397836
     26          1           0        1.898032   -2.404060    1.530383
     27          1           0       -3.769735   -2.331116    0.088259
     28          1           0        3.770117   -2.330455   -0.088594
 ---------------------------------------------------------------------
 Rotational constants (GHZ):      1.3024478      0.4794611      0.4087226
 Leave Link  202 at Thu Sep 28 13:20:58 2023, MaxMem=  6291456000 cpu:         0.0
 (Enter /home/minenky/programs//g09/l301.exe)
 Standard basis: def2TZVP (5D, 7F)
 ======================================================================================================
                                       Pseudopotential Parameters
 ======================================================================================================
  Center     Atomic      Valence      Angular      Power
  Number     Number     Electrons     Momentum     of R      Exponent        Coefficient   SO-Coeffient
 ======================================================================================================
    1          6
                                   No pseudopotential on this center.
    2          6
                                   No pseudopotential on this center.
    3          6
                                   No pseudopotential on this center.
    4          6
                                   No pseudopotential on this center.
    5          6
                                   No pseudopotential on this center.
    6          6
                                   No pseudopotential on this center.
    7          6
                                   No pseudopotential on this center.
    8          6
                                   No pseudopotential on this center.
    9          6
                                   No pseudopotential on this center.
   10          6
                                   No pseudopotential on this center.
   11          6
                                   No pseudopotential on this center.
   12          6
                                   No pseudopotential on this center.
   13          6
                                   No pseudopotential on this center.
   14          6
                                   No pseudopotential on this center.
   15          1
                                   No pseudopotential on this center.
   16          1
                                   No pseudopotential on this center.
   17          1
                                   No pseudopotential on this center.
   18          1
                                   No pseudopotential on this center.
   19          1
                                   No pseudopotential on this center.
   20          1
                                   No pseudopotential on this center.
   21          1
                                   No pseudopotential on this center.
   22          1
                                   No pseudopotential on this center.
   23          1
                                   No pseudopotential on this center.
   24          1
                                   No pseudopotential on this center.
   25          1
                                   No pseudopotential on this center.
   26          1
                                   No pseudopotential on this center.
   27          1
                                   No pseudopotential on this center.
   28          1
                                   No pseudopotential on this center.
 ======================================================================================================
 Ernie: Thresh=  0.10000D-02 Tol=  0.10000D-05 Strict=F.
 AO basis set (Overlap normalization):
 Atom C1       Shell     1 S   6     bf    1 -     1         -1.061062270110          3.672871575071         -0.993849143144
      0.1357534968D+05  0.6064550360D-03
      0.2035233368D+04  0.4697908888D-02
      0.4632256236D+03  0.2433247765D-01
      0.1312001960D+03  0.9739996831D-01
      0.4285301589D+02  0.3019558425D+00
      0.1558418577D+02  0.6623360914D+00
 Atom C1       Shell     2 S   2     bf    2 -     2         -1.061062270110          3.672871575071         -0.993849143144
      0.6206713851D+01  0.6559530854D+00
      0.2576489653D+01  0.3758563329D+00
 Atom C1       Shell     3 S   1     bf    3 -     3         -1.061062270110          3.672871575071         -0.993849143144
      0.5769633942D+00  0.1000000000D+01
 Atom C1       Shell     4 S   1     bf    4 -     4         -1.061062270110          3.672871575071         -0.993849143144
      0.2297283136D+00  0.1000000000D+01
 Atom C1       Shell     5 S   1     bf    5 -     5         -1.061062270110          3.672871575071         -0.993849143144
      0.9516444003D-01  0.1000000000D+01
 Atom C1       Shell     6 P   4     bf    6 -     8         -1.061062270110          3.672871575071         -0.993849143144
      0.3469723224D+02  0.1132722000D-01
      0.7958262283D+01  0.7616965920D-01
      0.2378082688D+01  0.3019225220D+00
      0.8143320818D+00  0.7278502735D+00
 Atom C1       Shell     7 P   1     bf    9 -    11         -1.061062270110          3.672871575071         -0.993849143144
      0.2888754725D+00  0.1000000000D+01
 Atom C1       Shell     8 P   1     bf   12 -    14         -1.061062270110          3.672871575071         -0.993849143144
      0.1005682367D+00  0.1000000000D+01
 Atom C1       Shell     9 D   1     bf   15 -    19         -1.061062270110          3.672871575071         -0.993849143144
      0.1097000000D+01  0.1000000000D+01
 Atom C1       Shell    10 D   1     bf   20 -    24         -1.061062270110          3.672871575071         -0.993849143144
      0.3180000000D+00  0.1000000000D+01
 Atom C1       Shell    11 F   1     bf   25 -    31         -1.061062270110          3.672871575071         -0.993849143144
      0.7610000000D+00  0.1000000000D+01
 Atom C2       Shell    12 S   6     bf   32 -    32          1.060390142552          3.672892924782          0.994405864105
      0.1357534968D+05  0.6064550360D-03
      0.2035233368D+04  0.4697908888D-02
      0.4632256236D+03  0.2433247765D-01
      0.1312001960D+03  0.9739996831D-01
      0.4285301589D+02  0.3019558425D+00
      0.1558418577D+02  0.6623360914D+00
 Atom C2       Shell    13 S   2     bf   33 -    33          1.060390142552          3.672892924782          0.994405864105
      0.6206713851D+01  0.6559530854D+00
      0.2576489653D+01  0.3758563329D+00
 Atom C2       Shell    14 S   1     bf   34 -    34          1.060390142552          3.672892924782          0.994405864105
      0.5769633942D+00  0.1000000000D+01
 Atom C2       Shell    15 S   1     bf   35 -    35          1.060390142552          3.672892924782          0.994405864105
      0.2297283136D+00  0.1000000000D+01
 Atom C2       Shell    16 S   1     bf   36 -    36          1.060390142552          3.672892924782          0.994405864105
      0.9516444003D-01  0.1000000000D+01
 Atom C2       Shell    17 P   4     bf   37 -    39          1.060390142552          3.672892924782          0.994405864105
      0.3469723224D+02  0.1132722000D-01
      0.7958262283D+01  0.7616965920D-01
      0.2378082688D+01  0.3019225220D+00
      0.8143320818D+00  0.7278502735D+00
 Atom C2       Shell    18 P   1     bf   40 -    42          1.060390142552          3.672892924782          0.994405864105
      0.2888754725D+00  0.1000000000D+01
 Atom C2       Shell    19 P   1     bf   43 -    45          1.060390142552          3.672892924782          0.994405864105
      0.1005682367D+00  0.1000000000D+01
 Atom C2       Shell    20 D   1     bf   46 -    50          1.060390142552          3.672892924782          0.994405864105
      0.1097000000D+01  0.1000000000D+01
 Atom C2       Shell    21 D   1     bf   51 -    55          1.060390142552          3.672892924782          0.994405864105
      0.3180000000D+00  0.1000000000D+01
 Atom C2       Shell    22 F   1     bf   56 -    62          1.060390142552          3.672892924782          0.994405864105
      0.7610000000D+00  0.1000000000D+01
 Atom C3       Shell    23 S   6     bf   63 -    63         -2.796154076712          1.447129335210         -0.739774222001
      0.1357534968D+05  0.6064550360D-03
      0.2035233368D+04  0.4697908888D-02
      0.4632256236D+03  0.2433247765D-01
      0.1312001960D+03  0.9739996831D-01
      0.4285301589D+02  0.3019558425D+00
      0.1558418577D+02  0.6623360914D+00
 Atom C3       Shell    24 S   2     bf   64 -    64         -2.796154076712          1.447129335210         -0.739774222001
      0.6206713851D+01  0.6559530854D+00
      0.2576489653D+01  0.3758563329D+00
 Atom C3       Shell    25 S   1     bf   65 -    65         -2.796154076712          1.447129335210         -0.739774222001
      0.5769633942D+00  0.1000000000D+01
 Atom C3       Shell    26 S   1     bf   66 -    66         -2.796154076712          1.447129335210         -0.739774222001
      0.2297283136D+00  0.1000000000D+01
 Atom C3       Shell    27 S   1     bf   67 -    67         -2.796154076712          1.447129335210         -0.739774222001
      0.9516444003D-01  0.1000000000D+01
 Atom C3       Shell    28 P   4     bf   68 -    70         -2.796154076712          1.447129335210         -0.739774222001
      0.3469723224D+02  0.1132722000D-01
      0.7958262283D+01  0.7616965920D-01
      0.2378082688D+01  0.3019225220D+00
      0.8143320818D+00  0.7278502735D+00
 Atom C3       Shell    29 P   1     bf   71 -    73         -2.796154076712          1.447129335210         -0.739774222001
      0.2888754725D+00  0.1000000000D+01
 Atom C3       Shell    30 P   1     bf   74 -    76         -2.796154076712          1.447129335210         -0.739774222001
      0.1005682367D+00  0.1000000000D+01
 Atom C3       Shell    31 D   1     bf   77 -    81         -2.796154076712          1.447129335210         -0.739774222001
      0.1097000000D+01  0.1000000000D+01
 Atom C3       Shell    32 D   1     bf   82 -    86         -2.796154076712          1.447129335210         -0.739774222001
      0.3180000000D+00  0.1000000000D+01
 Atom C3       Shell    33 F   1     bf   87 -    93         -2.796154076712          1.447129335210         -0.739774222001
      0.7610000000D+00  0.1000000000D+01
 Atom C4       Shell    34 S   6     bf   94 -    94          2.795936902478          1.447552974385          0.739973955098
      0.1357534968D+05  0.6064550360D-03
      0.2035233368D+04  0.4697908888D-02
      0.4632256236D+03  0.2433247765D-01
      0.1312001960D+03  0.9739996831D-01
      0.4285301589D+02  0.3019558425D+00
      0.1558418577D+02  0.6623360914D+00
 Atom C4       Shell    35 S   2     bf   95 -    95          2.795936902478          1.447552974385          0.739973955098
      0.6206713851D+01  0.6559530854D+00
      0.2576489653D+01  0.3758563329D+00
 Atom C4       Shell    36 S   1     bf   96 -    96          2.795936902478          1.447552974385          0.739973955098
      0.5769633942D+00  0.1000000000D+01
 Atom C4       Shell    37 S   1     bf   97 -    97          2.795936902478          1.447552974385          0.739973955098
      0.2297283136D+00  0.1000000000D+01
 Atom C4       Shell    38 S   1     bf   98 -    98          2.795936902478          1.447552974385          0.739973955098
      0.9516444003D-01  0.1000000000D+01
 Atom C4       Shell    39 P   4     bf   99 -   101          2.795936902478          1.447552974385          0.739973955098
      0.3469723224D+02  0.1132722000D-01
      0.7958262283D+01  0.7616965920D-01
      0.2378082688D+01  0.3019225220D+00
      0.8143320818D+00  0.7278502735D+00
 Atom C4       Shell    40 P   1     bf  102 -   104          2.795936902478          1.447552974385          0.739973955098
      0.2888754725D+00  0.1000000000D+01
 Atom C4       Shell    41 P   1     bf  105 -   107          2.795936902478          1.447552974385          0.739973955098
      0.1005682367D+00  0.1000000000D+01
 Atom C4       Shell    42 D   1     bf  108 -   112          2.795936902478          1.447552974385          0.739973955098
      0.1097000000D+01  0.1000000000D+01
 Atom C4       Shell    43 D   1     bf  113 -   117          2.795936902478          1.447552974385          0.739973955098
      0.3180000000D+00  0.1000000000D+01
 Atom C4       Shell    44 F   1     bf  118 -   124          2.795936902478          1.447552974385          0.739973955098
      0.7610000000D+00  0.1000000000D+01
 Atom C5       Shell    45 S   6     bf  125 -   125         -2.389826452347         -0.753765767691         -2.119480350606
      0.1357534968D+05  0.6064550360D-03
      0.2035233368D+04  0.4697908888D-02
      0.4632256236D+03  0.2433247765D-01
      0.1312001960D+03  0.9739996831D-01
      0.4285301589D+02  0.3019558425D+00
      0.1558418577D+02  0.6623360914D+00
 Atom C5       Shell    46 S   2     bf  126 -   126         -2.389826452347         -0.753765767691         -2.119480350606
      0.6206713851D+01  0.6559530854D+00
      0.2576489653D+01  0.3758563329D+00
 Atom C5       Shell    47 S   1     bf  127 -   127         -2.389826452347         -0.753765767691         -2.119480350606
      0.5769633942D+00  0.1000000000D+01
 Atom C5       Shell    48 S   1     bf  128 -   128         -2.389826452347         -0.753765767691         -2.119480350606
      0.2297283136D+00  0.1000000000D+01
 Atom C5       Shell    49 S   1     bf  129 -   129         -2.389826452347         -0.753765767691         -2.119480350606
      0.9516444003D-01  0.1000000000D+01
 Atom C5       Shell    50 P   4     bf  130 -   132         -2.389826452347         -0.753765767691         -2.119480350606
      0.3469723224D+02  0.1132722000D-01
      0.7958262283D+01  0.7616965920D-01
      0.2378082688D+01  0.3019225220D+00
      0.8143320818D+00  0.7278502735D+00
 Atom C5       Shell    51 P   1     bf  133 -   135         -2.389826452347         -0.753765767691         -2.119480350606
      0.2888754725D+00  0.1000000000D+01
 Atom C5       Shell    52 P   1     bf  136 -   138         -2.389826452347         -0.753765767691         -2.119480350606
      0.1005682367D+00  0.1000000000D+01
 Atom C5       Shell    53 D   1     bf  139 -   143         -2.389826452347         -0.753765767691         -2.119480350606
      0.1097000000D+01  0.1000000000D+01
 Atom C5       Shell    54 D   1     bf  144 -   148         -2.389826452347         -0.753765767691         -2.119480350606
      0.3180000000D+00  0.1000000000D+01
 Atom C5       Shell    55 F   1     bf  149 -   155         -2.389826452347         -0.753765767691         -2.119480350606
      0.7610000000D+00  0.1000000000D+01
 Atom C6       Shell    56 S   6     bf  156 -   156         -4.793342574257          1.499387506640          0.972096979638
      0.1357534968D+05  0.6064550360D-03
      0.2035233368D+04  0.4697908888D-02
      0.4632256236D+03  0.2433247765D-01
      0.1312001960D+03  0.9739996831D-01
      0.4285301589D+02  0.3019558425D+00
      0.1558418577D+02  0.6623360914D+00
 Atom C6       Shell    57 S   2     bf  157 -   157         -4.793342574257          1.499387506640          0.972096979638
      0.6206713851D+01  0.6559530854D+00
      0.2576489653D+01  0.3758563329D+00
 Atom C6       Shell    58 S   1     bf  158 -   158         -4.793342574257          1.499387506640          0.972096979638
      0.5769633942D+00  0.1000000000D+01
 Atom C6       Shell    59 S   1     bf  159 -   159         -4.793342574257          1.499387506640          0.972096979638
      0.2297283136D+00  0.1000000000D+01
 Atom C6       Shell    60 S   1     bf  160 -   160         -4.793342574257          1.499387506640          0.972096979638
      0.9516444003D-01  0.1000000000D+01
 Atom C6       Shell    61 P   4     bf  161 -   163         -4.793342574257          1.499387506640          0.972096979638
      0.3469723224D+02  0.1132722000D-01
      0.7958262283D+01  0.7616965920D-01
      0.2378082688D+01  0.3019225220D+00
      0.8143320818D+00  0.7278502735D+00
 Atom C6       Shell    62 P   1     bf  164 -   166         -4.793342574257          1.499387506640          0.972096979638
      0.2888754725D+00  0.1000000000D+01
 Atom C6       Shell    63 P   1     bf  167 -   169         -4.793342574257          1.499387506640          0.972096979638
      0.1005682367D+00  0.1000000000D+01
 Atom C6       Shell    64 D   1     bf  170 -   174         -4.793342574257          1.499387506640          0.972096979638
      0.1097000000D+01  0.1000000000D+01
 Atom C6       Shell    65 D   1     bf  175 -   179         -4.793342574257          1.499387506640          0.972096979638
      0.3180000000D+00  0.1000000000D+01
 Atom C6       Shell    66 F   1     bf  180 -   186         -4.793342574257          1.499387506640          0.972096979638
      0.7610000000D+00  0.1000000000D+01
 Atom C7       Shell    67 S   6     bf  187 -   187         -3.932970014913         -2.846863142697         -1.798007023512
      0.1357534968D+05  0.6064550360D-03
      0.2035233368D+04  0.4697908888D-02
      0.4632256236D+03  0.2433247765D-01
      0.1312001960D+03  0.9739996831D-01
      0.4285301589D+02  0.3019558425D+00
      0.1558418577D+02  0.6623360914D+00
 Atom C7       Shell    68 S   2     bf  188 -   188         -3.932970014913         -2.846863142697         -1.798007023512
      0.6206713851D+01  0.6559530854D+00
      0.2576489653D+01  0.3758563329D+00
 Atom C7       Shell    69 S   1     bf  189 -   189         -3.932970014913         -2.846863142697         -1.798007023512
      0.5769633942D+00  0.1000000000D+01
 Atom C7       Shell    70 S   1     bf  190 -   190         -3.932970014913         -2.846863142697         -1.798007023512
      0.2297283136D+00  0.1000000000D+01
 Atom C7       Shell    71 S   1     bf  191 -   191         -3.932970014913         -2.846863142697         -1.798007023512
      0.9516444003D-01  0.1000000000D+01
 Atom C7       Shell    72 P   4     bf  192 -   194         -3.932970014913         -2.846863142697         -1.798007023512
      0.3469723224D+02  0.1132722000D-01
      0.7958262283D+01  0.7616965920D-01
      0.2378082688D+01  0.3019225220D+00
      0.8143320818D+00  0.7278502735D+00
 Atom C7       Shell    73 P   1     bf  195 -   197         -3.932970014913         -2.846863142697         -1.798007023512
      0.2888754725D+00  0.1000000000D+01
 Atom C7       Shell    74 P   1     bf  198 -   200         -3.932970014913         -2.846863142697         -1.798007023512
      0.1005682367D+00  0.1000000000D+01
 Atom C7       Shell    75 D   1     bf  201 -   205         -3.932970014913         -2.846863142697         -1.798007023512
      0.1097000000D+01  0.1000000000D+01
 Atom C7       Shell    76 D   1     bf  206 -   210         -3.932970014913         -2.846863142697         -1.798007023512
      0.3180000000D+00  0.1000000000D+01
 Atom C7       Shell    77 F   1     bf  211 -   217         -3.932970014913         -2.846863142697         -1.798007023512
      0.7610000000D+00  0.1000000000D+01
 Atom C8       Shell    78 S   6     bf  218 -   218         -6.342025076357         -0.587358798402          1.301463251975
      0.1357534968D+05  0.6064550360D-03
      0.2035233368D+04  0.4697908888D-02
      0.4632256236D+03  0.2433247765D-01
      0.1312001960D+03  0.9739996831D-01
      0.4285301589D+02  0.3019558425D+00
      0.1558418577D+02  0.6623360914D+00
 Atom C8       Shell    79 S   2     bf  219 -   219         -6.342025076357         -0.587358798402          1.301463251975
      0.6206713851D+01  0.6559530854D+00
      0.2576489653D+01  0.3758563329D+00
 Atom C8       Shell    80 S   1     bf  220 -   220         -6.342025076357         -0.587358798402          1.301463251975
      0.5769633942D+00  0.1000000000D+01
 Atom C8       Shell    81 S   1     bf  221 -   221         -6.342025076357         -0.587358798402          1.301463251975
      0.2297283136D+00  0.1000000000D+01
 Atom C8       Shell    82 S   1     bf  222 -   222         -6.342025076357         -0.587358798402          1.301463251975
      0.9516444003D-01  0.1000000000D+01
 Atom C8       Shell    83 P   4     bf  223 -   225         -6.342025076357         -0.587358798402          1.301463251975
      0.3469723224D+02  0.1132722000D-01
      0.7958262283D+01  0.7616965920D-01
      0.2378082688D+01  0.3019225220D+00
      0.8143320818D+00  0.7278502735D+00
 Atom C8       Shell    84 P   1     bf  226 -   228         -6.342025076357         -0.587358798402          1.301463251975
      0.2888754725D+00  0.1000000000D+01
 Atom C8       Shell    85 P   1     bf  229 -   231         -6.342025076357         -0.587358798402          1.301463251975
      0.1005682367D+00  0.1000000000D+01
 Atom C8       Shell    86 D   1     bf  232 -   236         -6.342025076357         -0.587358798402          1.301463251975
      0.1097000000D+01  0.1000000000D+01
 Atom C8       Shell    87 D   1     bf  237 -   241         -6.342025076357         -0.587358798402          1.301463251975
      0.3180000000D+00  0.1000000000D+01
 Atom C8       Shell    88 F   1     bf  242 -   248         -6.342025076357         -0.587358798402          1.301463251975
      0.7610000000D+00  0.1000000000D+01
 Atom C9       Shell    89 S   6     bf  249 -   249         -5.913813675912         -2.771846690313         -0.084138695841
      0.1357534968D+05  0.6064550360D-03
      0.2035233368D+04  0.4697908888D-02
      0.4632256236D+03  0.2433247765D-01
      0.1312001960D+03  0.9739996831D-01
      0.4285301589D+02  0.3019558425D+00
      0.1558418577D+02  0.6623360914D+00
 Atom C9       Shell    90 S   2     bf  250 -   250         -5.913813675912         -2.771846690313         -0.084138695841
      0.6206713851D+01  0.6559530854D+00
      0.2576489653D+01  0.3758563329D+00
 Atom C9       Shell    91 S   1     bf  251 -   251         -5.913813675912         -2.771846690313         -0.084138695841
      0.5769633942D+00  0.1000000000D+01
 Atom C9       Shell    92 S   1     bf  252 -   252         -5.913813675912         -2.771846690313         -0.084138695841
      0.2297283136D+00  0.1000000000D+01
 Atom C9       Shell    93 S   1     bf  253 -   253         -5.913813675912         -2.771846690313         -0.084138695841
      0.9516444003D-01  0.1000000000D+01
 Atom C9       Shell    94 P   4     bf  254 -   256         -5.913813675912         -2.771846690313         -0.084138695841
      0.3469723224D+02  0.1132722000D-01
      0.7958262283D+01  0.7616965920D-01
      0.2378082688D+01  0.3019225220D+00
      0.8143320818D+00  0.7278502735D+00
 Atom C9       Shell    95 P   1     bf  257 -   259         -5.913813675912         -2.771846690313         -0.084138695841
      0.2888754725D+00  0.1000000000D+01
 Atom C9       Shell    96 P   1     bf  260 -   262         -5.913813675912         -2.771846690313         -0.084138695841
      0.1005682367D+00  0.1000000000D+01
 Atom C9       Shell    97 D   1     bf  263 -   267         -5.913813675912         -2.771846690313         -0.084138695841
      0.1097000000D+01  0.1000000000D+01
 Atom C9       Shell    98 D   1     bf  268 -   272         -5.913813675912         -2.771846690313         -0.084138695841
      0.3180000000D+00  0.1000000000D+01
 Atom C9       Shell    99 F   1     bf  273 -   279         -5.913813675912         -2.771846690313         -0.084138695841
      0.7610000000D+00  0.1000000000D+01
 Atom C10      Shell   100 S   6     bf  280 -   280          4.791433507129          1.499438755538         -0.973897633083
      0.1357534968D+05  0.6064550360D-03
      0.2035233368D+04  0.4697908888D-02
      0.4632256236D+03  0.2433247765D-01
      0.1312001960D+03  0.9739996831D-01
      0.4285301589D+02  0.3019558425D+00
      0.1558418577D+02  0.6623360914D+00
 Atom C10      Shell   101 S   2     bf  281 -   281          4.791433507129          1.499438755538         -0.973897633083
      0.6206713851D+01  0.6559530854D+00
      0.2576489653D+01  0.3758563329D+00
 Atom C10      Shell   102 S   1     bf  282 -   282          4.791433507129          1.499438755538         -0.973897633083
      0.5769633942D+00  0.1000000000D+01
 Atom C10      Shell   103 S   1     bf  283 -   283          4.791433507129          1.499438755538         -0.973897633083
      0.2297283136D+00  0.1000000000D+01
 Atom C10      Shell   104 S   1     bf  284 -   284          4.791433507129          1.499438755538         -0.973897633083
      0.9516444003D-01  0.1000000000D+01
 Atom C10      Shell   105 P   4     bf  285 -   287          4.791433507129          1.499438755538         -0.973897633083
      0.3469723224D+02  0.1132722000D-01
      0.7958262283D+01  0.7616965920D-01
      0.2378082688D+01  0.3019225220D+00
      0.8143320818D+00  0.7278502735D+00
 Atom C10      Shell   106 P   1     bf  288 -   290          4.791433507129          1.499438755538         -0.973897633083
      0.2888754725D+00  0.1000000000D+01
 Atom C10      Shell   107 P   1     bf  291 -   293          4.791433507129          1.499438755538         -0.973897633083
      0.1005682367D+00  0.1000000000D+01
 Atom C10      Shell   108 D   1     bf  294 -   298          4.791433507129          1.499438755538         -0.973897633083
      0.1097000000D+01  0.1000000000D+01
 Atom C10      Shell   109 D   1     bf  299 -   303          4.791433507129          1.499438755538         -0.973897633083
      0.3180000000D+00  0.1000000000D+01
 Atom C10      Shell   110 F   1     bf  304 -   310          4.791433507129          1.499438755538         -0.973897633083
      0.7610000000D+00  0.1000000000D+01
 Atom C11      Shell   111 S   6     bf  311 -   311          2.391668004032         -0.752642546932          2.121357982747
      0.1357534968D+05  0.6064550360D-03
      0.2035233368D+04  0.4697908888D-02
      0.4632256236D+03  0.2433247765D-01
      0.1312001960D+03  0.9739996831D-01
      0.4285301589D+02  0.3019558425D+00
      0.1558418577D+02  0.6623360914D+00
 Atom C11      Shell   112 S   2     bf  312 -   312          2.391668004032         -0.752642546932          2.121357982747
      0.6206713851D+01  0.6559530854D+00
      0.2576489653D+01  0.3758563329D+00
 Atom C11      Shell   113 S   1     bf  313 -   313          2.391668004032         -0.752642546932          2.121357982747
      0.5769633942D+00  0.1000000000D+01
 Atom C11      Shell   114 S   1     bf  314 -   314          2.391668004032         -0.752642546932          2.121357982747
      0.2297283136D+00  0.1000000000D+01
 Atom C11      Shell   115 S   1     bf  315 -   315          2.391668004032         -0.752642546932          2.121357982747
      0.9516444003D-01  0.1000000000D+01
 Atom C11      Shell   116 P   4     bf  316 -   318          2.391668004032         -0.752642546932          2.121357982747
      0.3469723224D+02  0.1132722000D-01
      0.7958262283D+01  0.7616965920D-01
      0.2378082688D+01  0.3019225220D+00
      0.8143320818D+00  0.7278502735D+00
 Atom C11      Shell   117 P   1     bf  319 -   321          2.391668004032         -0.752642546932          2.121357982747
      0.2888754725D+00  0.1000000000D+01
 Atom C11      Shell   118 P   1     bf  322 -   324          2.391668004032         -0.752642546932          2.121357982747
      0.1005682367D+00  0.1000000000D+01
 Atom C11      Shell   119 D   1     bf  325 -   329          2.391668004032         -0.752642546932          2.121357982747
      0.1097000000D+01  0.1000000000D+01
 Atom C11      Shell   120 D   1     bf  330 -   334          2.391668004032         -0.752642546932          2.121357982747
      0.3180000000D+00  0.1000000000D+01
 Atom C11      Shell   121 F   1     bf  335 -   341          2.391668004032         -0.752642546932          2.121357982747
      0.7610000000D+00  0.1000000000D+01
 Atom C12      Shell   122 S   6     bf  342 -   342          6.340433485322         -0.587010997632         -1.303564737647
      0.1357534968D+05  0.6064550360D-03
      0.2035233368D+04  0.4697908888D-02
      0.4632256236D+03  0.2433247765D-01
      0.1312001960D+03  0.9739996831D-01
      0.4285301589D+02  0.3019558425D+00
      0.1558418577D+02  0.6623360914D+00
 Atom C12      Shell   123 S   2     bf  343 -   343          6.340433485322         -0.587010997632         -1.303564737647
      0.6206713851D+01  0.6559530854D+00
      0.2576489653D+01  0.3758563329D+00
 Atom C12      Shell   124 S   1     bf  344 -   344          6.340433485322         -0.587010997632         -1.303564737647
      0.5769633942D+00  0.1000000000D+01
 Atom C12      Shell   125 S   1     bf  345 -   345          6.340433485322         -0.587010997632         -1.303564737647
      0.2297283136D+00  0.1000000000D+01
 Atom C12      Shell   126 S   1     bf  346 -   346          6.340433485322         -0.587010997632         -1.303564737647
      0.9516444003D-01  0.1000000000D+01
 Atom C12      Shell   127 P   4     bf  347 -   349          6.340433485322         -0.587010997632         -1.303564737647
      0.3469723224D+02  0.1132722000D-01
      0.7958262283D+01  0.7616965920D-01
      0.2378082688D+01  0.3019225220D+00
      0.8143320818D+00  0.7278502735D+00
 Atom C12      Shell   128 P   1     bf  350 -   352          6.340433485322         -0.587010997632         -1.303564737647
      0.2888754725D+00  0.1000000000D+01
 Atom C12      Shell   129 P   1     bf  353 -   355          6.340433485322         -0.587010997632         -1.303564737647
      0.1005682367D+00  0.1000000000D+01
 Atom C12      Shell   130 D   1     bf  356 -   360          6.340433485322         -0.587010997632         -1.303564737647
      0.1097000000D+01  0.1000000000D+01
 Atom C12      Shell   131 D   1     bf  361 -   365          6.340433485322         -0.587010997632         -1.303564737647
      0.3180000000D+00  0.1000000000D+01
 Atom C12      Shell   132 F   1     bf  366 -   372          6.340433485322         -0.587010997632         -1.303564737647
      0.7610000000D+00  0.1000000000D+01
 Atom C13      Shell   133 S   6     bf  373 -   373          3.935155322053         -2.845457214498          1.799610817111
      0.1357534968D+05  0.6064550360D-03
      0.2035233368D+04  0.4697908888D-02
      0.4632256236D+03  0.2433247765D-01
      0.1312001960D+03  0.9739996831D-01
      0.4285301589D+02  0.3019558425D+00
      0.1558418577D+02  0.6623360914D+00
 Atom C13      Shell   134 S   2     bf  374 -   374          3.935155322053         -2.845457214498          1.799610817111
      0.6206713851D+01  0.6559530854D+00
      0.2576489653D+01  0.3758563329D+00
 Atom C13      Shell   135 S   1     bf  375 -   375          3.935155322053         -2.845457214498          1.799610817111
      0.5769633942D+00  0.1000000000D+01
 Atom C13      Shell   136 S   1     bf  376 -   376          3.935155322053         -2.845457214498          1.799610817111
      0.2297283136D+00  0.1000000000D+01
 Atom C13      Shell   137 S   1     bf  377 -   377          3.935155322053         -2.845457214498          1.799610817111
      0.9516444003D-01  0.1000000000D+01
 Atom C13      Shell   138 P   4     bf  378 -   380          3.935155322053         -2.845457214498          1.799610817111
      0.3469723224D+02  0.1132722000D-01
      0.7958262283D+01  0.7616965920D-01
      0.2378082688D+01  0.3019225220D+00
      0.8143320818D+00  0.7278502735D+00
 Atom C13      Shell   139 P   1     bf  381 -   383          3.935155322053         -2.845457214498          1.799610817111
      0.2888754725D+00  0.1000000000D+01
 Atom C13      Shell   140 P   1     bf  384 -   386          3.935155322053         -2.845457214498          1.799610817111
      0.1005682367D+00  0.1000000000D+01
 Atom C13      Shell   141 D   1     bf  387 -   391          3.935155322053         -2.845457214498          1.799610817111
      0.1097000000D+01  0.1000000000D+01
 Atom C13      Shell   142 D   1     bf  392 -   396          3.935155322053         -2.845457214498          1.799610817111
      0.3180000000D+00  0.1000000000D+01
 Atom C13      Shell   143 F   1     bf  397 -   403          3.935155322053         -2.845457214498          1.799610817111
      0.7610000000D+00  0.1000000000D+01
 Atom C14      Shell   144 S   6     bf  404 -   404          5.914274368343         -2.770828883972          0.083747937281
      0.1357534968D+05  0.6064550360D-03
      0.2035233368D+04  0.4697908888D-02
      0.4632256236D+03  0.2433247765D-01
      0.1312001960D+03  0.9739996831D-01
      0.4285301589D+02  0.3019558425D+00
      0.1558418577D+02  0.6623360914D+00
 Atom C14      Shell   145 S   2     bf  405 -   405          5.914274368343         -2.770828883972          0.083747937281
      0.6206713851D+01  0.6559530854D+00
      0.2576489653D+01  0.3758563329D+00
 Atom C14      Shell   146 S   1     bf  406 -   406          5.914274368343         -2.770828883972          0.083747937281
      0.5769633942D+00  0.1000000000D+01
 Atom C14      Shell   147 S   1     bf  407 -   407          5.914274368343         -2.770828883972          0.083747937281
      0.2297283136D+00  0.1000000000D+01
 Atom C14      Shell   148 S   1     bf  408 -   408          5.914274368343         -2.770828883972          0.083747937281
      0.9516444003D-01  0.1000000000D+01
 Atom C14      Shell   149 P   4     bf  409 -   411          5.914274368343         -2.770828883972          0.083747937281
      0.3469723224D+02  0.1132722000D-01
      0.7958262283D+01  0.7616965920D-01
      0.2378082688D+01  0.3019225220D+00
      0.8143320818D+00  0.7278502735D+00
 Atom C14      Shell   150 P   1     bf  412 -   414          5.914274368343         -2.770828883972          0.083747937281
      0.2888754725D+00  0.1000000000D+01
 Atom C14      Shell   151 P   1     bf  415 -   417          5.914274368343         -2.770828883972          0.083747937281
      0.1005682367D+00  0.1000000000D+01
 Atom C14      Shell   152 D   1     bf  418 -   422          5.914274368343         -2.770828883972          0.083747937281
      0.1097000000D+01  0.1000000000D+01
 Atom C14      Shell   153 D   1     bf  423 -   427          5.914274368343         -2.770828883972          0.083747937281
      0.3180000000D+00  0.1000000000D+01
 Atom C14      Shell   154 F   1     bf  428 -   434          5.914274368343         -2.770828883972          0.083747937281
      0.7610000000D+00  0.1000000000D+01
 Atom H15      Shell   155 S   3     bf  435 -   435         -0.210662015568          3.684784320574         -2.877322712798
      0.3406134100D+02  0.2543930721D-01
      0.5123574600D+01  0.1900859489D+00
      0.1164662600D+01  0.8524411301D+00
 Atom H15      Shell   156 S   1     bf  436 -   436         -0.210662015568          3.684784320574         -2.877322712798
      0.3272304100D+00  0.1000000000D+01
 Atom H15      Shell   157 S   1     bf  437 -   437         -0.210662015568          3.684784320574         -2.877322712798
      0.1030724100D+00  0.1000000000D+01
 Atom H15      Shell   158 P   1     bf  438 -   440         -0.210662015568          3.684784320574         -2.877322712798
      0.8000000000D+00  0.1000000000D+01
 Atom H16      Shell   159 S   3     bf  441 -   441         -2.141471605386          5.425034283995         -0.803258551010
      0.3406134100D+02  0.2543930721D-01
      0.5123574600D+01  0.1900859489D+00
      0.1164662600D+01  0.8524411301D+00
 Atom H16      Shell   160 S   1     bf  442 -   442         -2.141471605386          5.425034283995         -0.803258551010
      0.3272304100D+00  0.1000000000D+01
 Atom H16      Shell   161 S   1     bf  443 -   443         -2.141471605386          5.425034283995         -0.803258551010
      0.1030724100D+00  0.1000000000D+01
 Atom H16      Shell   162 P   1     bf  444 -   446         -2.141471605386          5.425034283995         -0.803258551010
      0.8000000000D+00  0.1000000000D+01
 Atom H17      Shell   163 S   3     bf  447 -   447          0.209941247388          3.684221938310          2.877856366828
      0.3406134100D+02  0.2543930721D-01
      0.5123574600D+01  0.1900859489D+00
      0.1164662600D+01  0.8524411301D+00
 Atom H17      Shell   164 S   1     bf  448 -   448          0.209941247388          3.684221938310          2.877856366828
      0.3272304100D+00  0.1000000000D+01
 Atom H17      Shell   165 S   1     bf  449 -   449          0.209941247388          3.684221938310          2.877856366828
      0.1030724100D+00  0.1000000000D+01
 Atom H17      Shell   166 P   1     bf  450 -   452          0.209941247388          3.684221938310          2.877856366828
      0.8000000000D+00  0.1000000000D+01
 Atom H18      Shell   167 S   3     bf  453 -   453          2.140430065749          5.425333468311          0.804200214171
      0.3406134100D+02  0.2543930721D-01
      0.5123574600D+01  0.1900859489D+00
      0.1164662600D+01  0.8524411301D+00
 Atom H18      Shell   168 S   1     bf  454 -   454          2.140430065749          5.425333468311          0.804200214171
      0.3272304100D+00  0.1000000000D+01
 Atom H18      Shell   169 S   1     bf  455 -   455          2.140430065749          5.425333468311          0.804200214171
      0.1030724100D+00  0.1000000000D+01
 Atom H18      Shell   170 P   1     bf  456 -   458          2.140430065749          5.425333468311          0.804200214171
      0.8000000000D+00  0.1000000000D+01
 Atom H19      Shell   171 S   3     bf  459 -   459         -0.828629899891         -0.831011424032         -3.445576548782
      0.3406134100D+02  0.2543930721D-01
      0.5123574600D+01  0.1900859489D+00
      0.1164662600D+01  0.8524411301D+00
 Atom H19      Shell   172 S   1     bf  460 -   460         -0.828629899891         -0.831011424032         -3.445576548782
      0.3272304100D+00  0.1000000000D+01
 Atom H19      Shell   173 S   1     bf  461 -   461         -0.828629899891         -0.831011424032         -3.445576548782
      0.1030724100D+00  0.1000000000D+01
 Atom H19      Shell   174 P   1     bf  462 -   464         -0.828629899891         -0.831011424032         -3.445576548782
      0.8000000000D+00  0.1000000000D+01
 Atom H20      Shell   175 S   3     bf  465 -   465         -5.140964427667          3.204997805717          2.058643349251
      0.3406134100D+02  0.2543930721D-01
      0.5123574600D+01  0.1900859489D+00
      0.1164662600D+01  0.8524411301D+00
 Atom H20      Shell   176 S   1     bf  466 -   466         -5.140964427667          3.204997805717          2.058643349251
      0.3272304100D+00  0.1000000000D+01
 Atom H20      Shell   177 S   1     bf  467 -   467         -5.140964427667          3.204997805717          2.058643349251
      0.1030724100D+00  0.1000000000D+01
 Atom H20      Shell   178 P   1     bf  468 -   470         -5.140964427667          3.204997805717          2.058643349251
      0.8000000000D+00  0.1000000000D+01
 Atom H21      Shell   179 S   3     bf  471 -   471          5.137447490587          3.204503841630         -2.061813835325
      0.3406134100D+02  0.2543930721D-01
      0.5123574600D+01  0.1900859489D+00
      0.1164662600D+01  0.8524411301D+00
 Atom H21      Shell   180 S   1     bf  472 -   472          5.137447490587          3.204503841630         -2.061813835325
      0.3272304100D+00  0.1000000000D+01
 Atom H21      Shell   181 S   1     bf  473 -   473          5.137447490587          3.204503841630         -2.061813835325
      0.1030724100D+00  0.1000000000D+01
 Atom H21      Shell   182 P   1     bf  474 -   476          5.137447490587          3.204503841630         -2.061813835325
      0.8000000000D+00  0.1000000000D+01
 Atom H22      Shell   183 S   3     bf  477 -   477          0.831758304242         -0.829593760566          3.448984215621
      0.3406134100D+02  0.2543930721D-01
      0.5123574600D+01  0.1900859489D+00
      0.1164662600D+01  0.8524411301D+00
 Atom H22      Shell   184 S   1     bf  478 -   478          0.831758304242         -0.829593760566          3.448984215621
      0.3272304100D+00  0.1000000000D+01
 Atom H22      Shell   185 S   1     bf  479 -   479          0.831758304242         -0.829593760566          3.448984215621
      0.1030724100D+00  0.1000000000D+01
 Atom H22      Shell   186 P   1     bf  480 -   482          0.831758304242         -0.829593760566          3.448984215621
      0.8000000000D+00  0.1000000000D+01
 Atom H23      Shell   187 S   3     bf  483 -   483         -3.582975136424         -4.544946191878         -2.889069813938
      0.3406134100D+02  0.2543930721D-01
      0.5123574600D+01  0.1900859489D+00
      0.1164662600D+01  0.8524411301D+00
 Atom H23      Shell   188 S   1     bf  484 -   484         -3.582975136424         -4.544946191878         -2.889069813938
      0.3272304100D+00  0.1000000000D+01
 Atom H23      Shell   189 S   1     bf  485 -   485         -3.582975136424         -4.544946191878         -2.889069813938
      0.1030724100D+00  0.1000000000D+01
 Atom H23      Shell   190 P   1     bf  486 -   488         -3.582975136424         -4.544946191878         -2.889069813938
      0.8000000000D+00  0.1000000000D+01
 Atom H24      Shell   191 S   3     bf  489 -   489         -7.892789969152         -0.506124123507          2.637840912741
      0.3406134100D+02  0.2543930721D-01
      0.5123574600D+01  0.1900859489D+00
      0.1164662600D+01  0.8524411301D+00
 Atom H24      Shell   192 S   1     bf  490 -   490         -7.892789969152         -0.506124123507          2.637840912741
      0.3272304100D+00  0.1000000000D+01
 Atom H24      Shell   193 S   1     bf  491 -   491         -7.892789969152         -0.506124123507          2.637840912741
      0.1030724100D+00  0.1000000000D+01
 Atom H24      Shell   194 P   1     bf  492 -   494         -7.892789969152         -0.506124123507          2.637840912741
      0.8000000000D+00  0.1000000000D+01
 Atom H25      Shell   195 S   3     bf  495 -   495          7.889847146430         -0.506087354171         -2.641526310806
      0.3406134100D+02  0.2543930721D-01
      0.5123574600D+01  0.1900859489D+00
      0.1164662600D+01  0.8524411301D+00
 Atom H25      Shell   196 S   1     bf  496 -   496          7.889847146430         -0.506087354171         -2.641526310806
      0.3272304100D+00  0.1000000000D+01
 Atom H25      Shell   197 S   1     bf  497 -   497          7.889847146430         -0.506087354171         -2.641526310806
      0.1030724100D+00  0.1000000000D+01
 Atom H25      Shell   198 P   1     bf  498 -   500          7.889847146430         -0.506087354171         -2.641526310806
      0.8000000000D+00  0.1000000000D+01
 Atom H26      Shell   199 S   3     bf  501 -   501          3.586760917936         -4.543014865893          2.892004346156
      0.3406134100D+02  0.2543930721D-01
      0.5123574600D+01  0.1900859489D+00
      0.1164662600D+01  0.8524411301D+00
 Atom H26      Shell   200 S   1     bf  502 -   502          3.586760917936         -4.543014865893          2.892004346156
      0.3272304100D+00  0.1000000000D+01
 Atom H26      Shell   201 S   1     bf  503 -   503          3.586760917936         -4.543014865893          2.892004346156
      0.1030724100D+00  0.1000000000D+01
 Atom H26      Shell   202 P   1     bf  504 -   506          3.586760917936         -4.543014865893          2.892004346156
      0.8000000000D+00  0.1000000000D+01
 Atom H27      Shell   203 S   3     bf  507 -   507         -7.123766306355         -4.405170546484          0.166786098729
      0.3406134100D+02  0.2543930721D-01
      0.5123574600D+01  0.1900859489D+00
      0.1164662600D+01  0.8524411301D+00
 Atom H27      Shell   204 S   1     bf  508 -   508         -7.123766306355         -4.405170546484          0.166786098729
      0.3272304100D+00  0.1000000000D+01
 Atom H27      Shell   205 S   1     bf  509 -   509         -7.123766306355         -4.405170546484          0.166786098729
      0.1030724100D+00  0.1000000000D+01
 Atom H27      Shell   206 P   1     bf  510 -   512         -7.123766306355         -4.405170546484          0.166786098729
      0.8000000000D+00  0.1000000000D+01
 Atom H28      Shell   207 S   3     bf  513 -   513          7.124488640300         -4.403921568929         -0.167417623569
      0.3406134100D+02  0.2543930721D-01
      0.5123574600D+01  0.1900859489D+00
      0.1164662600D+01  0.8524411301D+00
 Atom H28      Shell   208 S   1     bf  514 -   514          7.124488640300         -4.403921568929         -0.167417623569
      0.3272304100D+00  0.1000000000D+01
 Atom H28      Shell   209 S   1     bf  515 -   515          7.124488640300         -4.403921568929         -0.167417623569
      0.1030724100D+00  0.1000000000D+01
 Atom H28      Shell   210 P   1     bf  516 -   518          7.124488640300         -4.403921568929         -0.167417623569
      0.8000000000D+00  0.1000000000D+01
 There are   588 symmetry adapted cartesian basis functions of A   symmetry.
 There are   518 symmetry adapted basis functions of A   symmetry.
   518 basis functions,   826 primitive gaussians,   588 cartesian basis functions
    49 alpha electrons       49 beta electrons
       nuclear repulsion energy       813.6882215999 Hartrees.
 IExCor= 4639 DFT=T Ex+Corr=wB97XD ExCW=0 ScaHFX=  1.000000
 ScaDFX=  1.000000  1.000000  1.000000  1.000000 ScalE2=  1.000000  1.000000
 IRadAn=      5 IRanWt=     -1 IRanGd=            0 ICorTp=0 IEmpDi=121
  HFx wShort=  0.000000 wLong=  0.200000 cFull=  0.222036 cShort=  0.000000 cLong=  0.777964
  DFx wShort=  0.000000 wLong=  0.200000 cFull=  0.000000 cShort=  0.000000 cLong=  1.000000
 NAtoms=   28 NActive=   28 NUniq=   28 SFac= 1.00D+00 NAtFMM=   60 NAOKFM=F Big=F
 Integral buffers will be    131072 words long.
 Raffenetti 2 integral format.
 Two-electron integral symmetry is turned on.
 R6Disp:  Grimme-D2 Dispersion energy=       -0.0197362619 Hartrees.
 Nuclear repulsion after empirical dispersion term =      813.6684853380 Hartrees.
 Leave Link  301 at Thu Sep 28 13:20:58 2023, MaxMem=  6291456000 cpu:         0.4
 (Enter /home/minenky/programs//g09/l302.exe)
 NPDir=0 NMtPBC=     1 NCelOv=     1 NCel=       1 NClECP=     1 NCelD=      1
         NCelK=      1 NCelE2=     1 NClLst=     1 CellRange=     0.0.
 One-electron integrals computed using PRISM.
   1 Symmetry operations used in ECPInt.
 ECPInt:  NShTT=   22155 NPrTT=   66780 LenC2=   20899 LenP2D=   47391.
 LDataN:  DoStor=T MaxTD1= 6 Len=  172
 NBasis=   518 RedAO= T EigKep=  7.13D-06  NBF=   518
 NBsUse=   518 1.00D-06 EigRej= -1.00D+00 NBFU=   518
 Precomputing XC quadrature grid using
[...]
 7,-0.00000064,-0.00009640,0.00010183,0.00035249,0.00006588,-0.00009116
 ,0.00120319,-0.00000964,-0.00001167,0.00000267,-0.00002584,-0.00000808
 ,0.00000106,-0.00000933,0.04207486,0.13995990,0.12751096,0.00019272,0.
 00040453,-0.00002099,-0.00138530,-0.00009287,0.00215835,-0.00019526,-0
 .00006639,0.00030450,-0.00106320,0.00157062,-0.00345365,-0.00013499,0.
 00017835,0.00008573,0.00001266,0.00010437,0.00007595,0.00011166,0.0000
 4163,-0.00001485,0.00002483,-0.00005162,-0.00010771,0.00002270,-0.0000
 9606,-0.00006024,0.00341614,0.00034095,-0.00253181,-0.21397449,-0.0036
 3038,-0.14718344,0.00002429,0.00004948,0.00074816,-0.00980799,-0.00316
 423,-0.01204387,0.00187886,0.00475377,-0.00245040,-0.00006472,0.000002
 71,0.00006426,-0.00004871,-0.00000235,0.00004134,0.00067677,-0.0004093
 7,0.00025327,0.00014514,-0.00017303,0.00008890,-0.00000122,0.00000108,
 0.00000558,0.00001337,-0.00000689,-0.00001165,-0.00009261,0.00007563,-
 0.00011591,0.22215214,0.00010653,0.00013793,-0.00003720,-0.00228780,0.
 00086971,-0.00025483,0.00011013,-0.00002843,-0.00014536,-0.01977991,0.
 00263610,-0.01698523,0.00003613,0.00007138,-0.00001579,-0.00011636,-0.
 00000913,0.00007261,0.00002278,-0.00010535,-0.00000956,0.00005094,0.00
 015922,-0.00002205,0.00003135,-0.00013891,-0.00002166,0.00063469,-0.00
 341584,-0.00442635,-0.00351124,-0.05781521,-0.01172740,0.00016212,-0.0
 0129077,-0.00009194,0.01998891,0.00534250,0.01754177,0.00437763,-0.002
 99405,-0.00136338,-0.00007648,-0.00001987,0.00011551,-0.00003819,-0.00
 001044,0.00001785,0.00048386,-0.00059438,0.00061911,0.00018867,0.00005
 056,0.00025113,-0.00000108,-0.00000053,0.00002794,0.00004850,-0.000055
 05,-0.00000272,-0.00103471,0.00009958,-0.00096261,0.00124014,0.0568558
 3,0.00012702,-0.00084285,-0.00003910,0.00211353,0.00203660,-0.00149737
 ,-0.00020934,-0.00023624,-0.00006010,-0.01413636,0.00159737,-0.0071920
 5,-0.00023585,0.00016264,-0.00016419,0.00012051,-0.00000514,0.00023359
 ,-0.00001407,0.00013436,0.00002641,0.00009193,0.00006390,0.00003269,0.
 00008802,0.00002249,0.00002440,-0.00244249,-0.00469782,0.00254932,-0.1
 4577623,-0.01227757,-0.16440397,0.00087797,-0.00018636,-0.00020939,-0.
 00175577,-0.00156342,0.00113372,-0.00282889,-0.00083106,0.00496504,-0.
 00002608,0.00005085,0.00006411,0.00019272,0.00003681,-0.00013085,0.000
 16419,-0.00059043,0.00006927,-0.00011510,0.00032094,0.00033827,0.00000
 557,-0.00002799,0.00003019,-0.00000012,0.00001265,-0.00002583,-0.00071
 676,-0.00004759,-0.00044610,0.16217756,0.01525347,0.16716854,0.0002854
 7,-0.00061142,0.00041747,0.00000162,-0.00007167,-0.00003267,0.00091692
 ,-0.00451508,-0.00343731,0.00004285,-0.00007284,0.00000722,0.00726294,
 -0.01586295,0.01082500,-0.00123214,-0.00047459,-0.00007201,-0.06049116
 ,0.03548622,-0.03607953,-0.00065527,-0.00171876,-0.00620863,0.00061273
 ,0.02125107,-0.01205250,-0.00000181,0.00001079,0.00000075,0.00004003,0
 .00001213,-0.00000102,0.00000347,-0.00000662,-0.00002695,0.00003847,0.
 00003355,-0.00002066,-0.00001220,0.00004522,-0.00004120,0.00001147,0.0
 0004191,-0.00000076,-0.00017819,-0.00020922,0.00001190,0.00000288,0.00
 000962,0.00000832,-0.00002417,0.00001414,0.00003423,-0.00094515,0.0012
 9393,0.00201104,-0.00035964,0.00028236,0.00055724,0.00000509,0.0000053
 9,0.00000847,-0.00000556,-0.00001101,0.00000078,0.05575807,0.00071587,
 -0.00048275,0.00069758,-0.00002842,-0.00013199,-0.00007267,-0.00510567
 ,-0.00157328,0.00023819,0.00007060,-0.00008048,0.00001022,0.00693717,-
 0.01596859,0.01492848,-0.00048912,0.00010963,-0.00091700,0.03547674,-0
 .24980046,0.12965482,-0.00130944,0.00249915,0.00130171,-0.00151376,0.0
 0302970,-0.00129037,-0.00000318,0.00002180,0.00000133,-0.00000149,0.00
 003455,0.00000331,-0.00000188,0.00000914,-0.00001302,0.00001801,-0.000
 00338,0.00000537,-0.00002239,0.00003551,-0.00003643,-0.00001883,0.0000
 1981,-0.00005159,-0.00018321,-0.00028855,0.00001653,0.00000200,0.00001
 503,-0.00000471,-0.00008746,0.00001096,0.00003898,0.00073274,0.0002613
 7,-0.00145687,0.00028399,-0.00017796,-0.00021693,0.00001051,-0.0000016
 0,0.00000803,-0.00000160,-0.00001406,-0.00001836,-0.03659360,0.2622587
 4,0.00012171,-0.00011815,0.00016608,-0.00002648,0.00001418,-0.00001082
 ,-0.00349243,0.00034524,0.00466785,-0.00001760,0.00008346,0.00000955,0
 .00008886,-0.00444316,0.00554792,0.00002751,-0.00087183,-0.00050612,-0
 .03585189,0.12970179,-0.12917386,-0.00645977,0.00092010,0.00178572,-0.
 00141825,0.01809323,-0.00673039,0.00000215,-0.00002026,-0.00003150,-0.
 00005899,-0.00000950,-0.00000972,-0.00000014,0.00000531,-0.00000192,-0
 .00002664,-0.00000235,0.00005471,0.00002009,-0.00003330,0.00003367,0.0
 0000430,0.00000153,-0.00003632,0.00004751,-0.00001628,-0.00002289,-0.0
 0000432,-0.00000700,-0.00000981,-0.00000317,-0.00000205,-0.00002045,0.
 00220557,-0.00095428,-0.00180134,0.00053846,-0.00022841,-0.00059660,-0
 .00000930,-0.00001137,-0.00000294,-0.00001174,0.00002335,-0.00000303,0
 .04241362,-0.14191463,0.12882006,-0.00035851,0.00033072,-0.00067447,-0
 .00003481,-0.00009003,-0.00008693,0.00208009,-0.00478237,-0.00246126,0
 .00004953,-0.00005500,0.00003996,0.00002579,-0.00015549,0.00089783,-0.
 00998516,0.00348796,-0.01242830,0.00385207,-0.00034065,-0.00300214,-0.
 21257061,0.00287021,-0.14863994,-0.00041786,-0.00169462,-0.00192150,-0
 .00001560,0.00002233,0.00001586,-0.00006934,0.00000816,-0.00003437,0.0
 0001088,-0.00000468,0.00001296,0.00001100,-0.00001136,0.00000885,-0.00
 000670,0.00001115,0.00000142,-0.00025437,-0.00022434,0.00000827,0.0000
 0636,0.00000953,0.00001639,-0.00000623,0.00001168,0.00001589,-0.000056
 03,0.00000556,0.00003625,-0.00045045,0.00026102,0.00044868,-0.00096819
 ,0.00071905,0.00227007,0.00001661,0.00000615,0.00000306,0.00000016,-0.
 00001052,-0.00002350,-0.00010965,-0.00012743,-0.00013130,0.22023621,-0
 .00064929,0.00047791,-0.00085683,0.00001804,-0.00003474,-0.00005857,-0
 .00455742,-0.00285994,0.00143056,0.00003329,-0.00004790,0.00000392,-0.
 00016910,-0.00148534,0.00006311,-0.01951963,0.00550030,-0.01762240,-0.
 00076321,-0.00329537,0.00456116,0.00293857,-0.05834313,0.01222990,0.02
 120240,0.00420330,0.01713206,-0.00000282,-0.00000151,-0.00000344,0.000
 00097,0.00000941,0.00000389,0.00000008,0.00000275,0.00000008,0.0000008
 8,0.00000870,0.00000085,-0.00000697,0.00000806,-0.00000716,-0.00021599
 ,-0.00025597,-0.00008094,0.00005588,-0.00001838,0.00001807,-0.00000085
 ,0.00002498,0.00003861,-0.00002202,-0.00000649,0.00003895,0.00023863,-
 0.00002987,-0.00031195,0.00133465,0.00025811,-0.00095432,0.00000751,0.
 00000105,0.00000216,0.00000187,0.00000224,-0.00000164,0.00099447,0.000
 01381,0.00089023,-0.00151940,0.05556273,-0.00003628,0.00030303,-0.0000
 6358,0.00002512,-0.00000951,-0.00004274,-0.00296312,0.00094140,0.00496
 892,0.00002246,-0.00003352,-0.00000883,0.00087203,-0.00000167,-0.00019
 736,-0.00157463,0.00151067,0.00081826,-0.00269687,0.00498537,0.0030176
 5,-0.14853304,0.01214116,-0.16748889,-0.01285825,-0.00196544,-0.007031
 72,-0.00000464,0.00000768,0.00000015,0.00000617,0.00001565,0.00002011,
 -0.00000163,0.00000193,0.00000196,-0.00000886,-0.00000989,-0.00000365,
 -0.00000420,-0.00000030,0.00000259,0.00000369,-0.00003176,-0.00006152,
 0.00000349,-0.00004831,0.00001134,0.00002584,0.00001512,0.00000449,-0.
 00002131,-0.00001476,0.00001646,0.00044317,-0.00031631,-0.00062036,0.0
 0199930,-0.00143156,-0.00173002,0.00000399,-0.00000187,-0.00000083,0.0
 0000904,-0.00000380,-0.00001290,-0.00067026,-0.00006720,-0.00043417,0.
 16374682,-0.01504824,0.17048556,-0.00003483,0.00009013,-0.00008681,-0.
 00035852,-0.00033005,-0.00067518,0.00004953,0.00005498,0.00004003,0.00
 207817,0.00478712,-0.00245498,-0.00006935,-0.00000814,-0.00003438,-0.0
 0001559,-0.00002236,0.00001583,0.00001100,0.00001135,0.00000887,0.0000
 1088,0.00000466,0.00001296,-0.00000670,-0.00001116,0.00000140,-0.00998
 806,-0.00347565,-0.01243890,0.00002550,0.00015472,0.00089808,-0.212535
 75,-0.00271601,-0.14864538,0.00385235,0.00034714,-0.00300033,-0.000410
 77,0.00169564,-0.00191376,-0.00000623,-0.00001170,0.00001588,-0.000056
 03,-0.00000562,0.00003625,-0.00025450,0.00022432,0.00000853,0.00000638
 ,-0.00000955,0.00001638,0.00000016,0.00001056,-0.00002351,0.00001661,-
 0.00000615,0.00000305,-0.00096813,-0.00072258,0.00226898,-0.00045042,-
 0.00026176,0.00044826,-0.00000660,-0.00001458,-0.00000377,-0.00000095,
 -0.00000339,-0.00000307,0.22019875,-0.00001810,-0.00003478,0.00005857,
 0.00064904,0.00047729,0.00085743,-0.00003327,-0.00004792,-0.00000396,0
 .00456289,-0.00285419,-0.00144108,-0.00000100,0.00000943,-0.00000392,0
 .00000282,-0.00000151,0.00000344,-0.00000087,0.00000869,-0.00000083,-0
 .00000008,0.00000276,-0.00000007,0.00000697,0.00000805,0.00000716,0.01
 951541,0.00548349,0.01762727,0.00016836,-0.00148518,-0.00006455,-0.002
 78451,-0.05831264,-0.01212778,0.00076924,-0.00328246,-0.00457019,-0.02
 118478,0.00421784,-0.01712013,0.00000081,0.00002504,-0.00003859,0.0000
 2203,-0.00000645,-0.00003897,0.00021599,-0.00025602,0.00008072,-0.0000
 5587,-0.00001844,-0.00001810,-0.00000188,0.00000224,0.00000165,-0.0000
 0751,0.00000105,-0.00000215,-0.00133775,0.00025438,0.00095745,-0.00023
 936,-0.00003084,0.00031282,-0.00000016,0.00000108,-0.00000491,0.000003
 39,0.00000024,0.00000117,0.00134786,0.05552393,0.00002511,0.00000953,-
 0.00004268,-0.00003539,-0.00030234,-0.00006292,0.00002240,0.00003348,-
 0.00000879,-0.00295721,-0.00095207,0.00496531,0.00000617,-0.00001566,0
 .00002009,-0.00000463,-0.00000768,0.00000015,-0.00000887,0.00000991,-0
 .00000364,-0.00000163,-0.00000193,0.00000195,-0.00000419,0.00000030,0.
 00000260,-0.00154966,-0.00150534,0.00083786,0.00087230,0.00000024,-0.0
 0019726,-0.14853864,-0.01203898,-0.16755437,-0.00269434,-0.00499437,0.
 00300440,-0.01288598,0.00197686,-0.00705332,0.00002585,-0.00001510,0.0
 0000443,-0.00002129,0.00001473,0.00001643,0.00000396,0.00003155,-0.000
 06138,0.00000339,0.00004827,0.00001138,0.00000903,0.00000383,-0.000012
 89,0.00000398,0.00000187,-0.00000083,0.00199727,0.00143468,-0.00172644
 ,0.00044278,0.00031718,-0.00061942,0.00000582,-0.00000024,-0.00000324,
 -0.00000307,-0.00000116,-0.00000413,0.16375018,0.01494254,0.17056196,0
 .00000160,0.00007176,-0.00003260,0.00028541,0.00061105,0.00041848,0.00
 004286,0.00007287,0.00000730,0.00091490,0.00452032,-0.00343156,0.00004
 004,-0.00001213,-0.00000103,-0.00000181,-0.00001080,0.00000074,0.00003
 848,-0.00003350,-0.00002071,0.00000346,0.00000664,-0.00002694,-0.00001
 220,-0.00004518,-0.00004126,-0.00123235,0.00047425,-0.00007179,0.00725
 939,0.01585466,0.01085015,-0.00065475,0.00172613,-0.00620621,-0.060463
 64,-0.03537157,-0.03608235,0.00061982,-0.02123385,-0.01208018,0.000002
 88,-0.00000964,0.00000831,-0.00002419,-0.00001420,0.00003423,0.0000114
 6,-0.00004191,-0.00000083,-0.00017829,0.00020921,0.00001215,-0.0000055
 5,0.00001102,0.00000079,0.00000510,-0.00000540,0.00000847,-0.00035961,
 -0.00028318,0.00055683,-0.00094503,-0.00129700,0.00200898,-0.00001942,
 -0.00000764,0.00003465,-0.00000660,0.00000015,0.00000582,-0.00010932,-
 0.00099353,-0.00067155,0.05572836,0.00002851,-0.00013207,0.00007252,-0
 .00071573,-0.00048200,-0.00069837,-0.00007053,-0.00008035,-0.00001034,
 0.00511096,-0.00156983,-0.00024674,0.00000156,0.00003454,-0.00000326,0
 .00000316,0.00002177,-0.00000127,-0.00001796,-0.00000339,-0.00000545,0
 .00000188,0.00000913,0.00001302,0.00002235,0.00003540,0.00003641,0.000
 48862,0.00010756,0.00091780,-0.00692922,-0.01595225,-0.01495464,0.0013
 1719,0.00250289,-0.00130232,-0.03536246,-0.24947756,-0.12982684,0.0015
 1487,0.00304636,0.00130000,-0.00000200,0.00001502,0.00000475,0.0000874
 6,0.00001102,-0.00003894,0.00001882,0.00001974,0.00005166,0.00018317,-
 0.00028842,-0.00001687,0.00000162,-0.00001405,0.00001834,-0.00001050,-
 0.00000161,-0.00000803,-0.00028477,-0.00017870,0.00021761,-0.00073612,
 0.00025763,0.00146005,0.00000758,0.00001087,-0.00001592,0.00001458,0.0
 0000108,0.00000025,0.00012756,0.00001465,0.00006763,0.03646451,0.26190
 417,-0.00002645,-0.00001432,-0.00001076,0.00012075,0.00011741,0.000165
 36,-0.00001768,-0.00008358,0.00000944,-0.00348591,-0.00035392,0.004666
 16,-0.00005899,0.00000955,-0.00000972,0.00000214,0.00002032,-0.0000314
 7,-0.00002665,0.00000225,0.00005471,-0.00000013,-0.00000529,-0.0000019
 1,0.00002012,0.00003331,0.00003375,0.00002779,0.00087265,-0.00050369,0
 .00007858,0.00441659,0.00553537,-0.00645801,-0.00092070,0.00178133,-0.
 03585467,-0.12987372,-0.12952364,-0.00141056,-0.01808324,-0.00675388,-
 0.00000432,0.00000703,-0.00000979,-0.00000306,0.00000209,-0.00002050,0
 .00000433,-0.00000145,-0.00003625,0.00004773,0.00001596,-0.00002287,-0
 .00001174,-0.00002337,-0.00000303,-0.00000931,0.00001136,-0.00000293,0
 .00053804,0.00022908,-0.00059589,0.00220440,0.00095744,-0.00179767,0.0
 0003465,0.00001602,-0.00005568,-0.00000375,0.00000491,-0.00000323,-0.0
 0013084,-0.00088978,-0.00043535,0.04241418,0.14210548,0.12920338,-0.00
 038240,0.00009207,0.00043327,-0.00001038,-0.00007765,-0.00000461,-0.00
 057280,0.00105327,-0.00006470,0.00002940,-0.00001956,0.00000181,-0.000
 04533,-0.00036242,-0.00636910,0.00347819,-0.00000794,-0.00349447,-0.00
 935138,-0.02031334,-0.00043409,0.00635566,0.00601951,0.00048557,-0.149
 38040,-0.13744346,-0.03034390,-0.00001430,0.00002311,0.00002952,-0.000
 01999,0.00000712,-0.00000416,0.00000888,-0.00001243,0.00001136,0.00000
 541,-0.00003378,-0.00002127,0.00000048,0.00001791,-0.00000287,0.000081
 33,0.00002645,0.00006118,-0.00002774,0.00002205,-0.00003740,-0.0000160
 0,0.00000255,0.00002291,-0.00002987,-0.00000373,0.00003040,-0.00050809
 ,-0.00096897,-0.00012509,0.00023603,0.00030538,-0.00008982,0.00000986,
 0.00000606,-0.00000038,0.00000628,-0.00002519,-0.00001265,-0.00092345,
 0.00127664,0.00199744,-0.00097891,0.00060569,0.00221079,0.00000127,0.0
 0000297,-0.00000156,-0.00001761,0.00001456,0.00001393,0.15207256,0.000
 23985,-0.00002384,-0.00030512,0.00003310,0.00005137,0.00000982,0.00091
 674,-0.00008711,0.00034334,-0.00000336,-0.00002872,0.00000141,-0.00076
 590,0.00245712,0.00184239,0.00054254,-0.00205008,0.00504978,0.00242650
 ,0.00429111,0.00122966,-0.01693587,-0.01573749,-0.00568734,-0.13737165
 ,-0.23712750,-0.02087246,-0.00000085,0.00001380,0.00001253,-0.00001347
 ,0.00001594,0.00001099,-0.00000061,0.00000525,0.00000388,-0.00000039,-
 0.00001997,-0.00000261,-0.00000817,0.00000290,-0.00000234,-0.00008501,
 0.00000500,-0.00005319,0.00002576,0.00000127,0.00006756,0.00002638,0.0
 0000624,-0.00003199,-0.00000796,-0.00000127,-0.00001895,0.00010611,0.0
 0005255,0.00012261,-0.00083637,-0.00092576,-0.00019339,0.00000665,-0.0
 0000002,-0.00000044,0.00001055,-0.00001165,-0.00001596,0.00065963,0.00
 018650,-0.00142614,0.00125055,0.00030181,-0.00094275,-0.00000386,0.000
 00216,-0.00000346,0.00000006,0.00000547,-0.00000108,0.14979110,0.24861
 094,0.00059153,-0.00016782,-0.00044252,0.00003384,0.00010468,0.0000093
 8,-0.00010811,0.00021942,-0.00128455,-0.00004150,0.00002218,0.00000175
 ,-0.00613838,0.00241404,0.00138560,-0.00366797,0.00460325,0.00235170,-
 0.01147541,-0.01812048,0.00143126,0.01136069,0.01352846,0.00559159,-0.
 03025590,-0.02087978,-0.05198488,0.00000933,-0.00001118,0.00001714,0.0
 0000018,-0.00001586,-0.00000360,0.00000262,-0.00000257,0.00000219,-0.0
 0000192,-0.00000014,0.00000952,0.00000636,-0.00001590,0.00000006,-0.00
 001969,0.00005932,-0.00001599,0.00001863,-0.00015003,0.00008384,-0.000
 00991,0.00000151,0.00000858,0.00002525,0.00000079,-0.00002605,-0.00065
 172,-0.00085141,-0.00003594,0.00041922,0.00071757,0.00017972,0.0000011
 6,0.00000202,-0.00000504,-0.00000140,0.00002106,0.00000146,0.00229645,
 -0.00086681,-0.00163359,0.00188966,-0.00147315,-0.00164113,-0.00000143
 ,-0.00000134,-0.00000244,0.00001054,-0.00000623,-0.00000116,0.03570954
 ,0.02086580,0.04600269,-0.00001039,0.00007765,-0.00000449,-0.00038242,
 -0.00009278,0.00043306,0.00002941,0.00001959,0.00000184,-0.00057219,-0
 .00105323,-0.00006595,-0.00001999,-0.00000714,-0.00000416,-0.00001428,
 -0.00002316,0.00002949,0.00000540,0.00003383,-0.00002123,0.00000887,0.
 00001241,0.00001137,0.00000048,-0.00001791,-0.00000290,0.00347905,0.00
 001456,-0.00349287,-0.00004428,0.00037036,-0.00636821,0.00635135,-0.00
 601253,0.00047609,-0.00935497,0.02030819,-0.00040834,-0.14945001,0.137
 50522,-0.03017938,-0.00001599,-0.00000259,0.00002291,-0.00002987,0.000
 00369,0.00003041,0.00008130,-0.00002650,0.00006113,-0.00002772,-0.0000
 2205,-0.00003743,0.00000628,0.00002522,-0.00001263,0.00000986,-0.00000
 606,-0.00000039,0.00023585,-0.00030486,-0.00009027,-0.00050826,0.00096
 887,-0.00012383,-0.00001760,-0.00001458,0.00001391,0.00000126,-0.00000
 296,-0.00000157,-0.00097885,-0.00060911,0.00220979,-0.00092340,-0.0012
 7968,0.00199544,-0.00000670,-0.00000203,-0.00000165,0.15214782,-0.0000
 3316,0.00005153,-0.00000978,-0.00024075,-0.00002456,0.00030576,0.00000
 343,-0.00002868,-0.00000145,-0.00091667,-0.00008688,-0.00034190,0.0000
 1345,0.00001594,-0.00001097,0.00000083,0.00001380,-0.00001252,0.000000
 40,-0.00001996,0.00000257,0.00000061,0.00000525,-0.00000387,0.00000816
 ,0.00000287,0.00000234,-0.00053566,-0.00203753,-0.00505655,0.00077349,
 0.00246302,-0.00184262,0.01692642,-0.01572411,0.00566127,-0.00241498,0
 .00427387,-0.00122637,0.13743330,-0.23710584,0.02063561,-0.00002638,0.
 00000619,0.00003200,0.00000792,-0.00000129,0.00001900,0.00008504,0.000
 00502,0.00005323,-0.00002578,0.00000114,-0.00006769,-0.00001054,-0.000
 01164,0.00001594,-0.00000665,-0.00000002,0.00000045,0.00083611,-0.0009
 2492,0.00019200,-0.00010539,0.00005182,-0.00012254,-0.00000008,0.00000
 545,0.00000109,0.00000386,0.00000215,0.00000347,-0.00125348,0.00029811
 ,0.00094577,-0.00066312,0.00018293,0.00142901,0.00000203,0.00000398,0.
 00000259,-0.14986243,0.24858234,0.00003381,-0.00010460,0.00000922,0.00
 059115,0.00016855,-0.00044177,-0.00004150,-0.00002224,0.00000173,-0.00
 010925,-0.00021803,-0.00128526,0.00000020,0.00001589,-0.00000360,0.000
 00933,0.00001118,0.00001714,-0.00000191,0.00000010,0.00000952,0.000002
 62,0.00000257,0.00000219,0.00000637,0.00001591,0.00000008,-0.00366718,
 -0.00461003,0.00233809,-0.00613678,-0.00241431,0.00137855,0.01138677,-
 0.01355405,0.00558260,-0.01148496,0.01812329,0.00145232,-0.03009151,0.
 02064294,-0.05193716,-0.00000994,-0.00000151,0.00000862,0.00002526,-0.
 00000075,-0.00002602,-0.00001953,-0.00005931,-0.00001598,0.00001855,0.
 00014994,0.00008395,-0.00000141,-0.00002108,0.00000146,0.00000115,-0.0
 0000202,-0.00000504,0.00042053,-0.00071894,0.00017906,-0.00065216,0.00
 085146,-0.00003505,0.00001054,0.00000624,-0.00000115,-0.00000142,0.000
 00135,-0.00000243,0.00188766,0.00147614,-0.00163747,0.00229541,0.00086
 970,-0.00163010,-0.00000165,-0.00000258,0.00000043,0.03552987,-0.02060
 581,0.04595608\\0.00000026,0.,-0.00000007,-0.00000040,0.00000007,0.000
 00005,0.00000004,0.00000005,0.00000037,-0.00000016,0.00000013,-0.00000
 047,0.00000023,-0.00000007,0.00000033,-0.00000021,-0.00000004,0.000000
 66,0.00000022,-0.00000009,0.00000052,-0.00000019,0.00000001,0.00000095
 ,0.00000002,0.00000003,0.00000083,0.00000026,-0.00000003,-0.00000069,-
 0.00000027,-0.00000045,-0.00000038,0.00000034,-0.00000030,-0.00000101,
 -0.00000027,-0.00000005,-0.00000056,-0.00000004,0.00000003,-0.00000086
 ,0.00000049,0.,0.00000018,0.00000007,0.00000004,0.00000035,-0.00000043
 ,0.,-0.00000015,-0.00000003,0.00000010,-0.00000031,0.00000063,0.,0.000
 00021,-0.00000029,0.,0.00000076,0.00000034,0.00000019,-0.00000068,-0.0
 0000058,0.00000004,-0.00000011,0.00000043,-0.00000001,0.00000052,-0.00
 000035,0.,0.00000118,0.00000038,0.00000005,-0.00000119,-0.00000042,0.0
 0000013,-0.00000042,0.00000002,0.00000003,0.00000105,-0.00000007,0.000
 00013,-0.00000106\\\@


 "THE TIME HAS COME", THE WALRUS SAID,
 "TO TALK OF MANY THINGS,
 OF SHOES AND SHIPS AND SEALING WAX,
 OF CABBAGES AND KINGS,
 AND WHY THE SEA IS BOILING HOT,
 AND WHETHER PIGS HAVE WINGS."
 Job cpu time:       0 days 13 hours  9 minutes 59.5 seconds.
 File lengths (MBytes):  RWF=    644 Int=      0 D2E=      0 Chk=     20 Scr=      1
 Normal termination of Gaussian 09 at Thu Sep 28 14:47:44 2023.
