 Entering Gaussian System, Link 0=g09
 Initial command:
 /home/minenky/programs//g09/l1.exe "/local/scratch/minenky/m1_00_142-29-00_C5H8_wB97XD/Gau-100548.inp" -scrdir="/local/scratch/minenky/m1_00_142-29-00_C5H8_wB97XD/"
 Entering Link 1 = /home/minenky/programs//g09/l1.exe PID=    100549.
  
 Copyright (c) 1988,1990,1992,1993,1995,1998,2003,2009,2013,
            Gaussian, Inc.  All Rights Reserved.
  
 This is part of the Gaussian(R) 09 program.  It is based on
 the Gaussian(R) 03 system (copyright 2003, Gaussian, Inc.),
 the Gaussian(R) 98 system (copyright 1998, Gaussian, Inc.),
 the Gaussian(R) 94 system (copyright 1995, Gaussian, Inc.),
 the Gaussian 92(TM) system (copyright 1992, Gaussian, Inc.),
 the Gaussian 90(TM) system (copyright 1990, Gaussian, Inc.),
 the Gaussian 88(TM) system (copyright 1988, Gaussian, Inc.),
 the Gaussian 86(TM) system (copyright 1986, Carnegie Mellon
 University), and the Gaussian 82(TM) system (copyright 1983,
 Carnegie Mellon University). Gaussian is a federally registered
 trademark of Gaussian, Inc.
  
 This software contains proprietary and confidential information,
 including trade secrets, belonging to Gaussian, Inc.
  
 This software is provided under written license and may be
 used, copied, transmitted, or stored only in accord with that
 written license.
  
 The following legend is applicable only to US Government
 contracts under FAR:
  
                    RESTRICTED RIGHTS LEGEND
  
 Use, reproduction and disclosure by the US Government is
 subject to restrictions as set forth in subparagraphs (a)
 and (c) of the Commercial Computer Software - Restricted
 Rights clause in FAR 52.227-19.
  
 Gaussian, Inc.
 340 Quinnipiac St., Bldg. 40, Wallingford CT 06492
  
  
 ---------------------------------------------------------------
 Warning -- This program may not be used in any manner that
 competes with the business of Gaussian, Inc. or will provide
 assistance to any competitor of Gaussian, Inc.  The licensee
 of this program is prohibited from giving any competitor of
 Gaussian, Inc. access to this program.  By using this program,
 the user acknowledges that Gaussian, Inc. is engaged in the
 business of creating and licensing software in the field of
 computational chemistry and represents and warrants to the
 licensee that it is not a competitor of Gaussian, Inc. and that
 it will not use this program in any manner prohibited above.
 ---------------------------------------------------------------
  

 Cite this work as:
 Gaussian 09, Revision D.01,
 M. J. Frisch, G. W. Trucks, H. B. Schlegel, G. E. Scuseria, 
 M. A. Robb, J. R. Cheeseman, G. Scalmani, V. Barone, B. Mennucci, 
 G. A. Petersson, H. Nakatsuji, M. Caricato, X. Li, H. P. Hratchian, 
 A. F. Izmaylov, J. Bloino, G. Zheng, J. L. Sonnenberg, M. Hada, 
 M. Ehara, K. Toyota, R. Fukuda, J. Hasegawa, M. Ishida, T. Nakajima, 
 Y. Honda, O. Kitao, H. Nakai, T. Vreven, J. A. Montgomery, Jr., 
 J. E. Peralta, F. Ogliaro, M. Bearpark, J. J. Heyd, E. Brothers, 
 K. N. Kudin, V. N. Staroverov, T. Keith, R. Kobayashi, J. Normand, 
 K. Raghavachari, A. Rendell, J. C. Burant, S. S. Iyengar, J. Tomasi, 
 M. Cossi, N. Rega, J. M. Millam, M. Klene, J. E. Knox, J. B. Cross, 
 V. Bakken, C. Adamo, J. Jaramillo, R. Gomperts, R. E. Stratmann, 
 O. Yazyev, A. J. Austin, R. Cammi, C. Pomelli, J. W. Ochterski, 
 R. L. Martin, K. Morokuma, V. G. Zakrzewski, G. A. Voth, 
 P. Salvador, J. J. Dannenberg, S. Dapprich, A. D. Daniels, 
 O. Farkas, J. B. Foresman, J. V. Ortiz, J. Cioslowski, 
 and D. J. Fox, Gaussian, Inc., Wallingford CT, 2013.
 
 ******************************************
 Gaussian 09:  AM64L-G09RevD.01 24-Apr-2013
                 9-Jul-2021 
 ******************************************
 %Mem=32000MB
 %NProcShared=16
 Will use up to   16 processors via shared memory.
 %Chk=m1_00_142-29-00_C5H8_wB97XD
 ----------------------------------------------------------------------
 #P wB97XD/def2tzvp opt=(tight) freq integral(Grid=ultrafine) # SCF(Max
 Cycle=380) 5d 7f GFPrint
 ----------------------------------------------------------------------
 1/7=10,14=-1,18=20,19=15,26=4,38=1/1,3;
 2/9=110,12=2,17=6,18=5,40=1/2;
 3/5=44,7=101,8=11,11=2,16=1,24=100,25=1,30=1,71=1,74=-58,75=-5/1,2,3;
 4//1;
 5/5=2,7=380,38=5/2;
 6/7=2,8=2,9=2,10=2,28=1/1;
 7//1,2,3,16;
 1/7=10,14=-1,18=20,19=15,26=4/3(2);
 2/9=110/2;
 99//99;
 2/9=110/2;
 3/5=44,7=101,8=11,11=2,16=1,25=1,30=1,71=1,74=-58,75=-5/1,2,3;
 4/5=5,16=3,69=1/1;
 5/5=2,7=380,38=5/2;
 7//1,2,3,16;
 1/7=10,14=-1,18=20,19=15,26=4/3(-5);
 2/9=110/2;
 6/7=2,8=2,9=2,10=2,19=2,28=1/1;
 99/9=1/99;
 Leave Link    1 at Fri Jul  9 19:19:35 2021, MaxMem=  4194304000 cpu:         1.0
 (Enter /home/minenky/programs//g09/l101.exe)
 ---------------------------------------
 The PBEPBE optimization and frequencies
 ---------------------------------------
 Symbolic Z-matrix:
 Charge =  0 Multiplicity = 1
 C                     0.66444   1.07201  -0.04588 
 C                    -0.66443   1.07202  -0.04588 
 C                     1.2315   -0.31702   0.10084 
 C                    -1.2315   -0.31701   0.10084 
 C                    0.        -1.22406  -0.13238 
 H                     1.28524   1.95695  -0.10181 
 H                    -1.28522   1.95696  -0.10181 
 H                     2.04024  -0.52321  -0.60411 
 H                    -2.04024  -0.5232   -0.60411 
 H                     1.65356  -0.45256   1.1036 
 H                    -1.65356  -0.45254   1.1036 
 H                    -0.00001  -1.57115  -1.16706 
 H                    -0.00001  -2.10686   0.50638 
 
 NAtoms=     13 NQM=       13 NQMF=       0 NMMI=      0 NMMIF=      0
                NMic=       0 NMicF=      0.
                    Isotopes and Nuclear Properties:
 (Nuclear quadrupole moments (NQMom) in fm**2, nuclear magnetic moments (NMagM)
  in nuclear magnetons)

  Atom         1           2           3           4           5           6           7           8           9          10
 IAtWgt=          12          12          12          12          12           1           1           1           1           1
 AtmWgt=  12.0000000  12.0000000  12.0000000  12.0000000  12.0000000   1.0078250   1.0078250   1.0078250   1.0078250   1.0078250
 NucSpn=           0           0           0           0           0           1           1           1           1           1
 AtZEff=   0.0000000   0.0000000   0.0000000   0.0000000   0.0000000   0.0000000   0.0000000   0.0000000   0.0000000   0.0000000
 NQMom=    0.0000000   0.0000000   0.0000000   0.0000000   0.0000000   0.0000000   0.0000000   0.0000000   0.0000000   0.0000000
 NMagM=    0.0000000   0.0000000   0.0000000   0.0000000   0.0000000   2.7928460   2.7928460   2.7928460   2.7928460   2.7928460
 AtZNuc=   6.0000000   6.0000000   6.0000000   6.0000000   6.0000000   1.0000000   1.0000000   1.0000000   1.0000000   1.0000000

  Atom        11          12          13
 IAtWgt=           1           1           1
 AtmWgt=   1.0078250   1.0078250   1.0078250
 NucSpn=           1           1           1
 AtZEff=   0.0000000   0.0000000   0.0000000
 NQMom=    0.0000000   0.0000000   0.0000000
 NMagM=    2.7928460   2.7928460   2.7928460
 AtZNuc=   1.0000000   1.0000000   1.0000000
 Leave Link  101 at Fri Jul  9 19:19:36 2021, MaxMem=  4194304000 cpu:         1.5
 (Enter /home/minenky/programs//g09/l103.exe)

 GradGradGradGradGradGradGradGradGradGradGradGradGradGradGradGradGradGrad
 Berny optimization.
 Initialization pass.
                           ----------------------------
                           !    Initial Parameters    !
                           ! (Angstroms and Degrees)  !
 --------------------------                            --------------------------
 ! Name  Definition              Value          Derivative Info.                !
 --------------------------------------------------------------------------------
 ! R1    R(1,2)                  1.3289         estimate D2E/DX2                !
 ! R2    R(1,3)                  1.5075         estimate D2E/DX2                !
 ! R3    R(1,6)                  1.0824         estimate D2E/DX2                !
 ! R4    R(2,4)                  1.5075         estimate D2E/DX2                !
 ! R5    R(2,7)                  1.0824         estimate D2E/DX2                !
 ! R6    R(3,5)                  1.5472         estimate D2E/DX2                !
 ! R7    R(3,8)                  1.0925         estimate D2E/DX2                !
 ! R8    R(3,10)                 1.0964         estimate D2E/DX2                !
 ! R9    R(4,5)                  1.5472         estimate D2E/DX2                !
 ! R10   R(4,9)                  1.0925         estimate D2E/DX2                !
 ! R11   R(4,11)                 1.0964         estimate D2E/DX2                !
 ! R12   R(5,12)                 1.0913         estimate D2E/DX2                !
 ! R13   R(5,13)                 1.0897         estimate D2E/DX2                !
 ! A1    A(2,1,3)              112.0965         estimate D2E/DX2                !
 ! A2    A(2,1,6)              124.9964         estimate D2E/DX2                !
 ! A3    A(3,1,6)              122.8612         estimate D2E/DX2                !
 ! A4    A(1,2,4)              112.0966         estimate D2E/DX2                !
 ! A5    A(1,2,7)              124.9963         estimate D2E/DX2                !
 ! A6    A(4,2,7)              122.8612         estimate D2E/DX2                !
 ! A7    A(1,3,5)              103.0681         estimate D2E/DX2                !
 ! A8    A(1,3,8)              112.9279         estimate D2E/DX2                !
 ! A9    A(1,3,10)             110.3488         estimate D2E/DX2                !
 ! A10   A(5,3,8)              112.4155         estimate D2E/DX2                !
 ! A11   A(5,3,10)             111.8274         estimate D2E/DX2                !
 ! A12   A(8,3,10)             106.3717         estimate D2E/DX2                !
 ! A13   A(2,4,5)              103.0681         estimate D2E/DX2                !
 ! A14   A(2,4,9)              112.9279         estimate D2E/DX2                !
 ! A15   A(2,4,11)             110.3488         estimate D2E/DX2                !
 ! A16   A(5,4,9)              112.4155         estimate D2E/DX2                !
 ! A17   A(5,4,11)             111.8274         estimate D2E/DX2                !
 ! A18   A(9,4,11)             106.3716         estimate D2E/DX2                !
 ! A19   A(3,5,4)              105.4943         estimate D2E/DX2                !
 ! A20   A(3,5,12)             109.2303         estimate D2E/DX2                !
 ! A21   A(3,5,13)             112.7435         estimate D2E/DX2                !
 ! A22   A(4,5,12)             109.2303         estimate D2E/DX2                !
 ! A23   A(4,5,13)             112.7435         estimate D2E/DX2                !
 ! A24   A(12,5,13)            107.3438         estimate D2E/DX2                !
 ! D1    D(3,1,2,4)              0.0            estimate D2E/DX2                !
 ! D2    D(3,1,2,7)            177.587          estimate D2E/DX2                !
 ! D3    D(6,1,2,4)           -177.587          estimate D2E/DX2                !
 ! D4    D(6,1,2,7)              0.0            estimate D2E/DX2                !
 ! D5    D(2,1,3,5)             12.5393         estimate D2E/DX2                !
 ! D6    D(2,1,3,8)            134.088          estimate D2E/DX2                !
 ! D7    D(2,1,3,10)          -107.0112         estimate D2E/DX2                !
 ! D8    D(6,1,3,5)           -169.8138         estimate D2E/DX2                !
 ! D9    D(6,1,3,8)            -48.2652         estimate D2E/DX2                !
 ! D10   D(6,1,3,10)            70.6356         estimate D2E/DX2                !
 ! D11   D(1,2,4,5)            -12.5393         estimate D2E/DX2                !
 ! D12   D(1,2,4,9)           -134.088          estimate D2E/DX2                !
 ! D13   D(1,2,4,11)           107.0112         estimate D2E/DX2                !
 ! D14   D(7,2,4,5)            169.8138         estimate D2E/DX2                !
 ! D15   D(7,2,4,9)             48.2652         estimate D2E/DX2                !
 ! D16   D(7,2,4,11)           -70.6356         estimate D2E/DX2                !
 ! D17   D(1,3,5,4)            -19.4096         estimate D2E/DX2                !
 ! D18   D(1,3,5,12)            97.8929         estimate D2E/DX2                !
 ! D19   D(1,3,5,13)          -142.8604         estimate D2E/DX2                !
 ! D20   D(8,3,5,4)           -141.3045         estimate D2E/DX2                !
 ! D21   D(8,3,5,12)           -24.002          estimate D2E/DX2                !
 ! D22   D(8,3,5,13)            95.2447         estimate D2E/DX2                !
 ! D23   D(10,3,5,4)            99.1139         estimate D2E/DX2                !
 ! D24   D(10,3,5,12)         -143.5836         estimate D2E/DX2                !
 ! D25   D(10,3,5,13)          -24.3369         estimate D2E/DX2                !
 ! D26   D(2,4,5,3)             19.4095         estimate D2E/DX2                !
 ! D27   D(2,4,5,12)           -97.8929         estimate D2E/DX2                !
 ! D28   D(2,4,5,13)           142.8604         estimate D2E/DX2                !
 ! D29   D(9,4,5,3)            141.3045         estimate D2E/DX2                !
 ! D30   D(9,4,5,12)            24.002          estimate D2E/DX2                !
 ! D31   D(9,4,5,13)           -95.2447         estimate D2E/DX2                !
 ! D32   D(11,4,5,3)           -99.1139         estimate D2E/DX2                !
 ! D33   D(11,4,5,12)          143.5836         estimate D2E/DX2                !
 ! D34   D(11,4,5,13)           24.337          estimate D2E/DX2                !
 --------------------------------------------------------------------------------
 Trust Radius=3.00D-01 FncErr=1.00D-07 GrdErr=1.00D-06
 Number of steps in this run=     81 maximum allowed number of steps=    100.
 GradGradGradGradGradGradGradGradGradGradGradGradGradGradGradGradGradGrad

 Leave Link  103 at Fri Jul  9 19:19:36 2021, MaxMem=  4194304000 cpu:         0.0
 (Enter /home/minenky/programs//g09/l202.exe)
                          Input orientation:                          
 ---------------------------------------------------------------------
 Center     Atomic      Atomic             Coordinates (Angstroms)
 Number     Number       Type             X           Y           Z
 ---------------------------------------------------------------------
      1          6           0        0.664437    1.072012   -0.045876
      2          6           0       -0.664429    1.072016   -0.045876
      3          6           0        1.231498   -0.317019    0.100841
      4          6           0       -1.231500   -0.317011    0.100841
      5          6           0       -0.000004   -1.224062   -0.132377
      6          1           0        1.285236    1.956952   -0.101809
      7          1           0       -1.285222    1.956961   -0.101809
      8          1           0        2.040237   -0.523214   -0.604109
      9          1           0       -2.040241   -0.523200   -0.604109
     10          1           0        1.653557   -0.452555    1.103599
     11          1           0       -1.653560   -0.452544    1.103599
     12          1           0       -0.000005   -1.571151   -1.167059
     13          1           0       -0.000007   -2.106861    0.506384
 ---------------------------------------------------------------------
                    Distance matrix (angstroms):
                    1          2          3          4          5
     1  C    0.000000
     2  C    1.328866   0.000000
     3  C    1.507478   2.354885   0.000000
     4  C    2.354886   1.507478   2.462998   0.000000
     5  C    2.391844   2.391844   1.547163   1.547163   0.000000
     6  H    1.082423   2.141830   2.283615   3.397931   3.430980
     7  H    2.141829   1.082423   3.397930   2.283616   3.430980
     8  H    2.179265   3.189295   1.092488   3.353168   2.208235
     9  H    3.189296   2.179265   3.353169   1.092488   2.208236
    10  H    2.150339   3.003110   1.096370   3.057360   2.203888
    11  H    3.003111   2.150339   3.057360   1.096370   2.203888
    12  H    2.947006   2.947006   2.167260   2.167260   1.091347
    13  H    3.294193   3.294193   2.210114   2.210114   1.089656
                    6          7          8          9         10
     6  H    0.000000
     7  H    2.570458   0.000000
     8  H    2.640749   4.178786   0.000000
     9  H    4.178786   2.640749   4.080478   0.000000
    10  H    2.719263   3.986878   1.752364   4.070062   0.000000
    11  H    3.986879   2.719264   4.070061   1.752364   3.307117
    12  H    3.903090   3.903090   2.361710   2.361711   3.023477
    13  H    4.305383   4.305383   2.811357   2.811358   2.414056
                   11         12         13
    11  H    0.000000
    12  H    3.023477   0.000000
    13  H    2.414056   1.757099   0.000000
 Stoichiometry    C5H8
 Framework group  C1[X(C5H8)]
 Deg. of freedom    33
 Full point group                 C1      NOp   1
 Largest Abelian subgroup         C1      NOp   1
 Largest concise Abelian subgroup C1      NOp   1
                         Standard orientation:                         
 ---------------------------------------------------------------------
 Center     Atomic      Atomic             Coordinates (Angstroms)
 Number     Number       Type             X           Y           Z
 ---------------------------------------------------------------------
      1          6           0        0.664441    1.072009   -0.045876
      2          6           0       -0.664425    1.072019   -0.045876
      3          6           0        1.231496   -0.317024    0.100841
      4          6           0       -1.231502   -0.317006    0.100841
      5          6           0       -0.000010   -1.224062   -0.132377
      6          1           0        1.285244    1.956946   -0.101809
      7          1           0       -1.285214    1.956966   -0.101809
      8          1           0        2.040235   -0.523223   -0.604109
      9          1           0       -2.040243   -0.523191   -0.604109
     10          1           0        1.653555   -0.452562    1.103599
     11          1           0       -1.653562   -0.452537    1.103599
     12          1           0       -0.000012   -1.571151   -1.167059
     13          1           0       -0.000016   -2.106861    0.506384
 ---------------------------------------------------------------------
 Rotational constants (GHZ):      7.3325277      7.2641501      3.9544428
 Leave Link  202 at Fri Jul  9 19:19:37 2021, MaxMem=  4194304000 cpu:         2.9
 (Enter /home/minenky/programs//g09/l301.exe)
 Standard basis: def2TZVP (5D, 7F)
 ======================================================================================================
                                       Pseudopotential Parameters
 ======================================================================================================
  Center     Atomic      Valence      Angular      Power
  Number     Number     Electrons     Momentum     of R      Exponent        Coefficient   SO-Coeffient
 ======================================================================================================
    1          6
                                   No pseudopotential on this center.
    2          6
                                   No pseudopotential on this center.
    3          6
                                   No pseudopotential on this center.
    4          6
                                   No pseudopotential on this center.
    5          6
                                   No pseudopotential on this center.
    6          1
                                   No pseudopotential on this center.
    7          1
                                   No pseudopotential on this center.
    8          1
                                   No pseudopotential on this center.
    9          1
                                   No pseudopotential on this center.
   10          1
                                   No pseudopotential on this center.
   11          1
                                   No pseudopotential on this center.
   12          1
                                   No pseudopotential on this center.
   13          1
                                   No pseudopotential on this center.
 ======================================================================================================
 Ernie: Thresh=  0.10000D-02 Tol=  0.10000D-05 Strict=F.
 AO basis set (Overlap normalization):
 Atom C1       Shell     1 S   6     bf    1 -     1          1.255612423173          2.025803432543         -0.086693324720
      0.1357534968D+05  0.6064550360D-03
      0.2035233368D+04  0.4697908888D-02
      0.4632256236D+03  0.2433247765D-01
      0.1312001960D+03  0.9739996831D-01
      0.4285301589D+02  0.3019558425D+00
      0.1558418577D+02  0.6623360914D+00
 Atom C1       Shell     2 S   2     bf    2 -     2          1.255612423173          2.025803432543         -0.086693324720
      0.6206713851D+01  0.6559530854D+00
      0.2576489653D+01  0.3758563329D+00
 Atom C1       Shell     3 S   1     bf    3 -     3          1.255612423173          2.025803432543         -0.086693324720
      0.5769633942D+00  0.1000000000D+01
 Atom C1       Shell     4 S   1     bf    4 -     4          1.255612423173          2.025803432543         -0.086693324720
      0.2297283136D+00  0.1000000000D+01
 Atom C1       Shell     5 S   1     bf    5 -     5          1.255612423173          2.025803432543         -0.086693324720
      0.9516444003D-01  0.1000000000D+01
 Atom C1       Shell     6 P   4     bf    6 -     8          1.255612423173          2.025803432543         -0.086693324720
      0.3469723224D+02  0.1132722000D-01
      0.7958262283D+01  0.7616965920D-01
      0.2378082688D+01  0.3019225220D+00
      0.8143320818D+00  0.7278502735D+00
 Atom C1       Shell     7 P   1     bf    9 -    11          1.255612423173          2.025803432543         -0.086693324720
      0.2888754725D+00  0.1000000000D+01
 Atom C1       Shell     8 P   1     bf   12 -    14          1.255612423173          2.025803432543         -0.086693324720
      0.1005682367D+00  0.1000000000D+01
 Atom C1       Shell     9 D   1     bf   15 -    19          1.255612423173          2.025803432543         -0.086693324720
      0.1097000000D+01  0.1000000000D+01
 Atom C1       Shell    10 D   1     bf   20 -    24          1.255612423173          2.025803432543         -0.086693324720
      0.3180000000D+00  0.1000000000D+01
 Atom C1       Shell    11 F   1     bf   25 -    31          1.255612423173          2.025803432543         -0.086693324720
      0.7610000000D+00  0.1000000000D+01
 Atom C2       Shell    12 S   6     bf   32 -    32         -1.255580384074          2.025821910757         -0.086693324720
      0.1357534968D+05  0.6064550360D-03
      0.2035233368D+04  0.4697908888D-02
      0.4632256236D+03  0.2433247765D-01
      0.1312001960D+03  0.9739996831D-01
      0.4285301589D+02  0.3019558425D+00
      0.1558418577D+02  0.6623360914D+00
 Atom C2       Shell    13 S   2     bf   33 -    33         -1.255580384074          2.025821910757         -0.086693324720
      0.6206713851D+01  0.6559530854D+00
      0.2576489653D+01  0.3758563329D+00
 Atom C2       Shell    14 S   1     bf   34 -    34         -1.255580384074          2.025821910757         -0.086693324720
      0.5769633942D+00  0.1000000000D+01
 Atom C2       Shell    15 S   1     bf   35 -    35         -1.255580384074          2.025821910757         -0.086693324720
      0.2297283136D+00  0.1000000000D+01
 Atom C2       Shell    16 S   1     bf   36 -    36         -1.255580384074          2.025821910757         -0.086693324720
      0.9516444003D-01  0.1000000000D+01
 Atom C2       Shell    17 P   4     bf   37 -    39         -1.255580384074          2.025821910757         -0.086693324720
      0.3469723224D+02  0.1132722000D-01
      0.7958262283D+01  0.7616965920D-01
      0.2378082688D+01  0.3019225220D+00
      0.8143320818D+00  0.7278502735D+00
 Atom C2       Shell    18 P   1     bf   40 -    42         -1.255580384074          2.025821910757         -0.086693324720
      0.2888754725D+00  0.1000000000D+01
 Atom C2       Shell    19 P   1     bf   43 -    45         -1.255580384074          2.025821910757         -0.086693324720
      0.1005682367D+00  0.1000000000D+01
 Atom C2       Shell    20 D   1     bf   46 -    50         -1.255580384074          2.025821910757         -0.086693324720
      0.1097000000D+01  0.1000000000D+01
 Atom C2       Shell    21 D   1     bf   51 -    55         -1.255580384074          2.025821910757         -0.086693324720
      0.3180000000D+00  0.1000000000D+01
 Atom C2       Shell    22 F   1     bf   56 -    62         -1.255580384074          2.025821910757         -0.086693324720
      0.7610000000D+00  0.1000000000D+01
 Atom C3       Shell    23 S   6     bf   63 -    63          2.327191000117         -0.599089407068          0.190561624318
      0.1357534968D+05  0.6064550360D-03
      0.2035233368D+04  0.4697908888D-02
      0.4632256236D+03  0.2433247765D-01
      0.1312001960D+03  0.9739996831D-01
      0.4285301589D+02  0.3019558425D+00
      0.1558418577D+02  0.6623360914D+00
 Atom C3       Shell    24 S   2     bf   64 -    64          2.327191000117         -0.599089407068          0.190561624318
      0.6206713851D+01  0.6559530854D+00
      0.2576489653D+01  0.3758563329D+00
 Atom C3       Shell    25 S   1     bf   65 -    65          2.327191000117         -0.599089407068          0.190561624318
      0.5769633942D+00  0.1000000000D+01
 Atom C3       Shell    26 S   1     bf   66 -    66          2.327191000117         -0.599089407068          0.190561624318
      0.2297283136D+00  0.1000000000D+01
 Atom C3       Shell    27 S   1     bf   67 -    67          2.327191000117         -0.599089407068          0.190561624318
      0.9516444003D-01  0.1000000000D+01
 Atom C3       Shell    28 P   4     bf   68 -    70          2.327191000117         -0.599089407068          0.190561624318
      0.3469723224D+02  0.1132722000D-01
      0.7958262283D+01  0.7616965920D-01
      0.2378082688D+01  0.3019225220D+00
      0.8143320818D+00  0.7278502735D+00
 Atom C3       Shell    29 P   1     bf   71 -    73          2.327191000117         -0.599089407068          0.190561624318
      0.2888754725D+00  0.1000000000D+01
 Atom C3       Shell    30 P   1     bf   74 -    76          2.327191000117         -0.599089407068          0.190561624318
      0.1005682367D+00  0.1000000000D+01
 Atom C3       Shell    31 D   1     bf   77 -    81          2.327191000117         -0.599089407068          0.190561624318
      0.1097000000D+01  0.1000000000D+01
 Atom C3       Shell    32 D   1     bf   82 -    86          2.327191000117         -0.599089407068          0.190561624318
      0.3180000000D+00  0.1000000000D+01
 Atom C3       Shell    33 F   1     bf   87 -    93          2.327191000117         -0.599089407068          0.190561624318
      0.7610000000D+00  0.1000000000D+01
 Atom C4       Shell    34 S   6     bf   94 -    94         -2.327200685619         -0.599054050772          0.190561624318
      0.1357534968D+05  0.6064550360D-03
      0.2035233368D+04  0.4697908888D-02
      0.4632256236D+03  0.2433247765D-01
      0.1312001960D+03  0.9739996831D-01
      0.4285301589D+02  0.3019558425D+00
      0.1558418577D+02  0.6623360914D+00
 Atom C4       Shell    35 S   2     bf   95 -    95         -2.327200685619         -0.599054050772          0.190561624318
      0.6206713851D+01  0.6559530854D+00
      0.2576489653D+01  0.3758563329D+00
 Atom C4       Shell    36 S   1     bf   96 -    96         -2.327200685619         -0.599054050772          0.190561624318
      0.5769633942D+00  0.1000000000D+01
 Atom C4       Shell    37 S   1     bf   97 -    97         -2.327200685619         -0.599054050772          0.190561624318
      0.2297283136D+00  0.1000000000D+01
 Atom C4       Shell    38 S   1     bf   98 -    98         -2.327200685619         -0.599054050772          0.190561624318
      0.9516444003D-01  0.1000000000D+01
 Atom C4       Shell    39 P   4     bf   99 -   101         -2.327200685619         -0.599054050772          0.190561624318
      0.3469723224D+02  0.1132722000D-01
      0.7958262283D+01  0.7616965920D-01
      0.2378082688D+01  0.3019225220D+00
      0.8143320818D+00  0.7278502735D+00
 Atom C4       Shell    40 P   1     bf  102 -   104         -2.327200685619         -0.599054050772          0.190561624318
      0.2888754725D+00  0.1000000000D+01
 Atom C4       Shell    41 P   1     bf  105 -   107         -2.327200685619         -0.599054050772          0.190561624318
      0.1005682367D+00  0.1000000000D+01
 Atom C4       Shell    42 D   1     bf  108 -   112         -2.327200685619         -0.599054050772          0.190561624318
      0.1097000000D+01  0.1000000000D+01
 Atom C4       Shell    43 D   1     bf  113 -   117         -2.327200685619         -0.599054050772          0.190561624318
      0.3180000000D+00  0.1000000000D+01
 Atom C4       Shell    44 F   1     bf  118 -   124         -2.327200685619         -0.599054050772          0.190561624318
      0.7610000000D+00  0.1000000000D+01
 Atom C5       Shell    45 S   6     bf  125 -   125         -0.000017965147         -2.313142148535         -0.250156524941
      0.1357534968D+05  0.6064550360D-03
      0.2035233368D+04  0.4697908888D-02
      0.4632256236D+03  0.2433247765D-01
      0.1312001960D+03  0.9739996831D-01
      0.4285301589D+02  0.3019558425D+00
      0.1558418577D+02  0.6623360914D+00
 Atom C5       Shell    46 S   2     bf  126 -   126         -0.000017965147         -2.313142148535         -0.250156524941
      0.6206713851D+01  0.6559530854D+00
      0.2576489653D+01  0.3758563329D+00
 Atom C5       Shell    47 S   1     bf  127 -   127         -0.000017965147         -2.313142148535         -0.250156524941
      0.5769633942D+00  0.1000000000D+01
 Atom C5       Shell    48 S   1     bf  128 -   128         -0.000017965147         -2.313142148535         -0.250156524941
      0.2297283136D+00  0.1000000000D+01
 Atom C5       Shell    49 S   1     bf  129 -   129         -0.000017965147         -2.313142148535         -0.250156524941
      0.9516444003D-01  0.1000000000D+01
 Atom C5       Shell    50 P   4     bf  130 -   132         -0.000017965147         -2.313142148535         -0.250156524941
      0.3469723224D+02  0.1132722000D-01
      0.7958262283D+01  0.7616965920D-01
      0.2378082688D+01  0.3019225220D+00
      0.8143320818D+00  0.7278502735D+00
 Atom C5       Shell    51 P   1     bf  133 -   135         -0.000017965147         -2.313142148535         -0.250156524941
      0.2888754725D+00  0.1000000000D+01
 Atom C5       Shell    52 P   1     bf  136 -   138         -0.000017965147         -2.313142148535         -0.250156524941
      0.1005682367D+00  0.1000000000D+01
 Atom C5       Shell    53 D   1     bf  139 -   143         -0.000017965147         -2.313142148535         -0.250156524941
      0.1097000000D+01  0.1000000000D+01
 Atom C5       Shell    54 D   1     bf  144 -   148         -0.000017965147         -2.313142148535         -0.250156524941
      0.3180000000D+00  0.1000000000D+01
 Atom C5       Shell    55 F   1     bf  149 -   155         -0.000017965147         -2.313142148535         -0.250156524941
      0.7610000000D+00  0.1000000000D+01
 Atom H6       Shell    56 S   3     bf  156 -   156          2.428759788295          3.698092575450         -0.192391376511
      0.3406134100D+02  0.2543930721D-01
      0.5123574600D+01  0.1900859489D+00
      0.1164662600D+01  0.8524411301D+00
 Atom H6       Shell    57 S   1     bf  157 -   157          2.428759788295          3.698092575450         -0.192391376511
      0.3272304100D+00  0.1000000000D+01
 Atom H6       Shell    58 S   1     bf  158 -   158          2.428759788295          3.698092575450         -0.192391376511
      0.1030724100D+00  0.1000000000D+01
 Atom H6       Shell    59 P   1     bf  159 -   161          2.428759788295          3.698092575450         -0.192391376511
      0.8000000000D+00  0.1000000000D+01
 Atom H7       Shell    60 S   3     bf  162 -   162         -2.428701867670          3.698130704472         -0.192391376511
      0.3406134100D+02  0.2543930721D-01
      0.5123574600D+01  0.1900859489D+00
      0.1164662600D+01  0.8524411301D+00
 Atom H7       Shell    61 S   1     bf  163 -   163         -2.428701867670          3.698130704472         -0.192391376511
      0.3272304100D+00  0.1000000000D+01
 Atom H7       Shell    62 S   1     bf  164 -   164         -2.428701867670          3.698130704472         -0.192391376511
      0.1030724100D+00  0.1000000000D+01
 Atom H7       Shell    63 P   1     bf  165 -   167         -2.428701867670          3.698130704472         -0.192391376511
      0.8000000000D+00  0.1000000000D+01
 Atom H8       Shell    64 S   3     bf  168 -   168          3.855484528779         -0.988748132454         -1.141600813060
      0.3406134100D+02  0.2543930721D-01
      0.5123574600D+01  0.1900859489D+00
      0.1164662600D+01  0.8524411301D+00
 Atom H8       Shell    65 S   1     bf  169 -   169          3.855484528779         -0.988748132454         -1.141600813060
      0.3272304100D+00  0.1000000000D+01
 Atom H8       Shell    66 S   1     bf  170 -   170          3.855484528779         -0.988748132454         -1.141600813060
      0.1030724100D+00  0.1000000000D+01
 Atom H8       Shell    67 P   1     bf  171 -   173          3.855484528779         -0.988748132454         -1.141600813060
      0.8000000000D+00  0.1000000000D+01
 Atom H9       Shell    68 S   3     bf  174 -   174         -3.855501382298         -0.988688146946         -1.141600813060
      0.3406134100D+02  0.2543930721D-01
      0.5123574600D+01  0.1900859489D+00
      0.1164662600D+01  0.8524411301D+00
 Atom H9       Shell    69 S   1     bf  175 -   175         -3.855501382298         -0.988688146946         -1.141600813060
      0.3272304100D+00  0.1000000000D+01
 Atom H9       Shell    70 S   1     bf  176 -   176         -3.855501382298         -0.988688146946         -1.141600813060
      0.1030724100D+00  0.1000000000D+01
 Atom H9       Shell    71 P   1     bf  177 -   179         -3.855501382298         -0.988688146946         -1.141600813060
      0.8000000000D+00  0.1000000000D+01
 Atom H10      Shell    72 S   3     bf  180 -   180          3.124765808328         -0.855218796277          2.085499621878
      0.3406134100D+02  0.2543930721D-01
      0.5123574600D+01  0.1900859489D+00
      0.1164662600D+01  0.8524411301D+00
 Atom H10      Shell    73 S   1     bf  181 -   181          3.124765808328         -0.855218796277          2.085499621878
      0.3272304100D+00  0.1000000000D+01
 Atom H10      Shell    74 S   1     bf  182 -   182          3.124765808328         -0.855218796277          2.085499621878
      0.1030724100D+00  0.1000000000D+01
 Atom H10      Shell    75 P   1     bf  183 -   185          3.124765808328         -0.855218796277          2.085499621878
      0.8000000000D+00  0.1000000000D+01
 Atom H11      Shell    76 S   3     bf  186 -   186         -3.124779610933         -0.855170834665          2.085499621878
      0.3406134100D+02  0.2543930721D-01
      0.5123574600D+01  0.1900859489D+00
      0.1164662600D+01  0.8524411301D+00
 Atom H11      Shell    77 S   1     bf  187 -   187         -3.124779610933         -0.855170834665          2.085499621878
      0.3272304100D+00  0.1000000000D+01
 Atom H11      Shell    78 S   1     bf  188 -   188         -3.124779610933         -0.855170834665          2.085499621878
      0.1030724100D+00  0.1000000000D+01
 Atom H11      Shell    79 P   1     bf  189 -   191         -3.124779610933         -0.855170834665          2.085499621878
      0.8000000000D+00  0.1000000000D+01
 Atom H12      Shell    80 S   3     bf  192 -   192         -0.000022706908         -2.969045302257         -2.205422139568
      0.3406134100D+02  0.2543930721D-01
      0.5123574600D+01  0.1900859489D+00
      0.1164662600D+01  0.8524411301D+00
 Atom H12      Shell    81 S   1     bf  193 -   193         -0.000022706908         -2.969045302257         -2.205422139568
      0.3272304100D+00  0.1000000000D+01
 Atom H12      Shell    82 S   1     bf  194 -   194         -0.000022706908         -2.969045302257         -2.205422139568
      0.1030724100D+00  0.1000000000D+01
 Atom H12      Shell    83 P   1     bf  195 -   197         -0.000022706908         -2.969045302257         -2.205422139568
      0.8000000000D+00  0.1000000000D+01
 Atom H13      Shell    84 S   3     bf  198 -   198         -0.000030888296         -3.981390488879          0.956926829427
      0.3406134100D+02  0.2543930721D-01
      0.5123574600D+01  0.1900859489D+00
      0.1164662600D+01  0.8524411301D+00
 Atom H13      Shell    85 S   1     bf  199 -   199         -0.000030888296         -3.981390488879          0.956926829427
      0.3272304100D+00  0.1000000000D+01
 Atom H13      Shell    86 S   1     bf  200 -   200         -0.000030888296         -3.981390488879          0.956926829427
      0.1030724100D+00  0.1000000000D+01
 Atom H13      Shell    87 P   1     bf  201 -   203         -0.000030888296         -3.981390488879          0.956926829427
      0.8000000000D+00  0.1000000000D+01
 There are   228 symmetry adapted cartesian basis functions of A   symmetry.
 There are   203 symmetry adapted basis functions of A   symmetry.
   203 basis functions,   319 primitive gaussians,   228 cartesian basis functions
    19 alpha electrons       19 beta electrons
       nuclear repulsion energy       171.5248948720 Hartrees.
 IExCor= 4639 DFT=T Ex+Corr=wB97XD ExCW=0 ScaHFX=  1.000000
 ScaDFX=  1.000000  1.000000  1.000000  1.000000 ScalE2=  1.000000  1.000000
 IRadAn=      5 IRanWt=     -1 IRanGd=            0 ICorTp=0 IEmpDi=121
  HFx wShort=  0.000000 wLong=  0.200000 cFull=  0.222036 cShort=  0.000000 cLong=  0.777964
  DFx wShort=  0.000000 wLong=  0.200000 cFull=  0.000000 cShort=  0.000000 cLong=  1.000000
 NAtoms=   13 NActive=   13 NUniq=   13 SFac= 1.00D+00 NAtFMM=   60 NAOKFM=F Big=F
 Integral buffers will be    131072 words long.
 Raffenetti 2 integral format.
 Two-electron integral symmetry is turned on.
 R6Disp:  Grimme-D2 Dispersion energy=       -0.0056218717 Hartrees.
 Nuclear repulsion after empirical dispersion term =      171.5192730003 Hartrees.
 Leave Link  301 at Fri Jul  9 19:19:37 2021, MaxMem=  4194304000 cpu:         0.2
 (Enter /home/minenky/programs//g09/l302.exe)
 NPDir=0 NMtPBC=     1 NCelOv=     1 NCel=       1 NClECP=     1 NCelD=      1
         NCelK=      1 NCelE2=     1 NClLst=     1 CellRange=     0.0.
 One-electron integrals computed using PRISM.
   1 Symmetry operations used in ECPInt.
 ECPInt:  NShTT=    3828 NPrTT=   11160 LenC2=    3820 LenP2D=    9632.
 LDataN:  DoStor=T MaxTD1= 6 Len=  172
 NBasis=   203 RedAO= T EigKep=  1.17D-04  NBF=   203
 NBsUse=   203 1.00D-06 EigRej= -1.00D+00 NBFU=   203
 Precomputing XC quadrature grid using
 IXCGrd= 4 IRadAn=           5 IRanWt=          -1 IRanGd=           0 AccXCQ= 0.00D+00.
 Generated NRdTot=       0 NPtTot=           0 NUsed=           0 NTot=          32
 NSgBfM=   227   227   227   227   227 MxSgAt=    13 MxSgA2=    13.
 Leave Link  302 at Fri Jul  9 19:19:38 2021, MaxMem=  4194304000 cpu:         5.6
 (Enter /home/minenky/programs//g09/l303.exe)
 DipDrv:  MaxL=1.
 Leave Link  303 at Fri Jul  9 19:19:40 2021, MaxMem=  4194304000 cpu:        11.1
 (Enter /home/minenky/programs//g09/l401.exe)
 ExpMin= 9.52D-02 ExpMax= 1.36D+04 ExpMxC= 4.63D+02 IAcc=3 IRadAn=         5 AccDes= 0.00D+00
 Harris functional with IExCor= 4639 and IRadAn=       5 diagonalized for initial guess.
 HarFok:  IExCor= 4639 AccDes= 0.00D+00 IRadAn=         5 IDoV= 1 UseB2=F ITyADJ=14
 ICtDFT=  3500011 ScaDFX=  1.000000  1.000000  1.000000  1.000000
 FoFCou: FMM=F IPFlag=           0 FMFlag=      100000 FMFlg1=           0
         NFxFlg=           0 DoJE=T BraDBF=F KetDBF=T FulRan=T
         wScrn=  0.000000 ICntrl=     500 IOpCl=  0 I1Cent=   200000004 NGrid=           0
         NMat0=    1 NMatS0=      1 NMatT0=    0 NMatD0=    1 NMtDS0=    0 NMtDT0=    0
 Petite list used in FoFCou.
 Harris En= -185.875366438267    
 JPrj=0 DoOrth=F DoCkMO=F.
 Leave Link  401 at Fri Jul  9 19:19:42 2021, MaxMem=  4194304000 cpu:        25.5
 (Enter /home/minenky/programs//g09/l502.exe)
 Closed shell SCF:
 Using DIIS extrapolation, IDIIS=  1040.
 Integral symmetry usage will be decided dynamically.
 Keep R1 ints in memory in canonical form, NReq=435072632.
 IVT=      309110 IEndB=      309110 NGot=  4194304000 MDV=  3765235749
 LenX=  3765235749 LenY=  3765183324
 Requested convergence on RMS density matrix=1.00D-08 within 380 cycles.
 Requested convergence on MAX density matrix=1.00D-06.
 Requested convergence on             energy=1.00D-06.
 No special actions if energy rises.
 FoFCou: FMM=F IPFlag=           0 FMFlag=           0 FMFlg1=           0
         NFxFlg=           0 DoJE=F BraDBF=F KetDBF=F FulRan=T
         wScrn=  0.000000 ICntrl=     600 IOpCl=  0 I1Cent=           0 NGrid=           0
         NMat0=    1 NMatS0=  20706 NMatT0=    0 NMatD0=    1 NMtDS0=    0 NMtDT0=    0
 Symmetry not used in FoFCou.
 Integral accuracy reduced to 1.0D-05 until final iterations.

 Cycle   1  Pass 0  IDiag  1:
 E= -195.276457406704    
 DIIS: error= 4.59D-02 at cycle   1 NSaved=   1.
 NSaved= 1 IEnMin= 1 EnMin= -195.276457406704     IErMin= 1 ErrMin= 4.59D-02
 ErrMax= 4.59D-02  0.00D+00 EMaxC= 1.00D-01 BMatC= 4.15D-01 BMatP= 4.15D-01
 IDIUse=3 WtCom= 5.41D-01 WtEn= 4.59D-01
 Coeff-Com:  0.100D+01
 Coeff-En:   0.100D+01
 Coeff:      0.100D+01
 Gap=     0.406 Goal=   None    Shift=    0.000
 GapD=    0.406 DampG=2.000 DampE=0.500 DampFc=1.0000 IDamp=-1.
 RMSDP=1.49D-03 MaxDP=4.28D-02              OVMax= 5.16D-02

 Cycle   2  Pass 0  IDiag  1:
 E= -195.321922704291     Delta-E=       -0.045465297587 Rises=F Damp=F
 DIIS: error= 9.82D-03 at cycle   2 NSaved=   2.
 NSaved= 2 IEnMin= 2 EnMin= -195.321922704291     IErMin= 2 ErrMin= 9.82D-03
 ErrMax= 9.82D-03  0.00D+00 EMaxC= 1.00D-01 BMatC= 1.20D-02 BMatP= 4.15D-01
 IDIUse=3 WtCom= 9.02D-01 WtEn= 9.82D-02
 Coeff-Com:  0.791D-01 0.921D+00
 Coeff-En:   0.000D+00 0.100D+01
 Coeff:      0.713D-01 0.929D+00
 Gap=     0.416 Goal=   None    Shift=    0.000
 RMSDP=7.36D-04 MaxDP=1.31D-02 DE=-4.55D-02 OVMax= 3.41D-02

 Cycle   3  Pass 0  IDiag  1:
 E= -195.327005156838     Delta-E=       -0.005082452547 Rises=F Damp=F
 DIIS: error= 8.57D-03 at cycle   3 NSaved=   3.
 NSaved= 3 IEnMin= 3 EnMin= -195.327005156838     IErMin= 3 ErrMin= 8.57D-03
 ErrMax= 8.57D-03  0.00D+00 EMaxC= 1.00D-01 BMatC= 6.79D-03 BMatP= 1.20D-02
 IDIUse=3 WtCom= 9.14D-01 WtEn= 8.57D-02
 Coeff-Com:  0.251D-01 0.435D+00 0.540D+00
 Coeff-En:   0.000D+00 0.344D+00 0.656D+00
 Coeff:      0.229D-01 0.427D+00 0.550D+00
 Gap=     0.410 Goal=   None    Shift=    0.000
 RMSDP=2.75D-04 MaxDP=5.85D-03 DE=-5.08D-03 OVMax= 1.49D-02

 Cycle   4  Pass 0  IDiag  1:
 E= -195.333486072116     Delta-E=       -0.006480915278 Rises=F Damp=F
 DIIS: error= 3.19D-04 at cycle   4 NSaved=   4.
 NSaved= 4 IEnMin= 4 EnMin= -195.333486072116     IErMin= 4 ErrMin= 3.19D-04
 ErrMax= 3.19D-04  0.00D+00 EMaxC= 1.00D-01 BMatC= 9.15D-06 BMatP= 6.79D-03
 IDIUse=3 WtCom= 9.97D-01 WtEn= 3.19D-03
 Coeff-Com: -0.498D-03-0.697D-02 0.132D-01 0.994D+00
 Coeff-En:   0.000D+00 0.000D+00 0.000D+00 0.100D+01
 Coeff:     -0.497D-03-0.695D-02 0.132D-01 0.994D+00
 Gap=     0.410 Goal=   None    Shift=    0.000
 RMSDP=4.14D-05 MaxDP=8.20D-04 DE=-6.48D-03 OVMax= 1.14D-03

 Cycle   5  Pass 0  IDiag  1:
 E= -195.333498591155     Delta-E=       -0.000012519039 Rises=F Damp=F
 DIIS: error= 8.42D-05 at cycle   5 NSaved=   5.
 NSaved= 5 IEnMin= 5 EnMin= -195.333498591155     IErMin= 5 ErrMin= 8.42D-05
 ErrMax= 8.42D-05  0.00D+00 EMaxC= 1.00D-01 BMatC= 1.51D-06 BMatP= 9.15D-06
 IDIUse=1 WtCom= 1.00D+00 WtEn= 0.00D+00
 Coeff-Com: -0.159D-02-0.261D-01-0.253D-01 0.283D+00 0.770D+00
 Coeff:     -0.159D-02-0.261D-01-0.253D-01 0.283D+00 0.770D+00
 Gap=     0.410 Goal=   None    Shift=    0.000
 RMSDP=1.14D-05 MaxDP=1.92D-04 DE=-1.25D-05 OVMax= 3.64D-04

 Cycle   6  Pass 0  IDiag  1:
 E= -195.333500297932     Delta-E=       -0.000001706777 Rises=F Damp=F
 DIIS: error= 4.38D-05 at cycle   6 NSaved=   6.
 NSaved= 6 IEnMin= 6 EnMin= -195.333500297932     IErMin= 6 ErrMin= 4.38D-05
 ErrMax= 4.38D-05  0.00D+00 EMaxC= 1.00D-01 BMatC= 1.29D-07 BMatP= 1.51D-06
 IDIUse=1 WtCom= 1.00D+00 WtEn= 0.00D+00
 Coeff-Com: -0.459D-03-0.768D-02-0.888D-02-0.235D-02 0.224D+00 0.795D+00
 Coeff:     -0.459D-03-0.768D-02-0.888D-02-0.235D-02 0.224D+00 0.795D+00
 Gap=     0.410 Goal=   None    Shift=    0.000
 RMSDP=3.43D-06 MaxDP=6.21D-05 DE=-1.71D-06 OVMax= 1.59D-04

 Initial convergence to 1.0D-05 achieved.  Increase integral accuracy.
 Cycle   7  Pass 1  IDiag  1:
 E= -195.333559505334     Delta-E=       -0.000059207402 Rises=F Damp=F
 DIIS: error= 3.57D-05 at cycle   1 NSaved=   1.
 NSaved= 1 IEnMin= 1 EnMin= -195.333559505334     IErMin= 1 ErrMin= 3.57D-05
 ErrMax= 3.57D-05  0.00D+00 EMaxC= 1.00D-01 BMatC= 4.23D-07 BMatP= 4.23D-07
 IDIUse=1 WtCom= 1.00D+00 WtEn= 0.00D+00
 Coeff-Com:  0.100D+01
 Coeff:      0.100D+01
 Gap=     0.410 Goal=   None    Shift=    0.000
 RMSDP=3.43D-06 MaxDP=6.21D-05 DE=-5.92D-05 OVMax= 8.17D-05

 Cycle   8  Pass 1  IDiag  1:
 E= -195.333559782093     Delta-E=       -0.000000276759 Rises=F Damp=F
 DIIS: error= 4.19D-06 at cycle   2 NSaved=   2.
 NSaved= 2 IEnMin= 2 EnMin= -195.333559782093     IErMin= 2 ErrMin= 4.19D-06
 ErrMax= 4.19D-06  0.00D+00 EMaxC= 1.00D-01 BMatC= 5.10D-09 BMatP= 4.23D-07
 IDIUse=1 WtCom= 1.00D+00 WtEn= 0.00D+00
 Coeff-Com: -0.663D-01 0.107D+01
 Coeff:     -0.663D-01 0.107D+01
 Gap=     0.410 Goal=   None    Shift=    0.000
 RMSDP=6.48D-07 MaxDP=1.55D-05 DE=-2.77D-07 OVMax= 2.04D-05

 Cycle   9  Pass 1  IDiag  1:
 E= -195.333559786581     Delta-E=       -0.000000004488 Rises=F Damp=F
 DIIS: error= 3.40D-06 at cycle   3 NSaved=   3.
 NSaved= 3 IEnMin= 3 EnMin= -195.333559786581     IErMin= 3 ErrMin= 3.40D-06
 ErrMax= 3.40D-06  0.00D+00 EMaxC= 1.00D-01 BMatC= 1.18D-09 BMatP= 5.10D-09
 IDIUse=1 WtCom= 1.00D+00 WtEn= 0.00D+00
 Coeff-Com: -0.290D-01 0.368D+00 0.661D+00
 Coeff:     -0.290D-01 0.368D+00 0.661D+00
 Gap=     0.410 Goal=   None    Shift=    0.000
 RMSDP=1.53D-07 MaxDP=4.92D-06 DE=-4.49D-09 OVMax= 9.73D-06

 Cycle  10  Pass 1  IDiag  1:
 E= -195.333559787681     Delta-E=       -0.000000001100 Rises=F Damp=F
 DIIS: error= 8.26D-07 at cycle   4 NSaved=   4.
 NSaved= 4 IEnMin= 4 EnMin= -195.333559787681     IErMin= 4 ErrMin= 8.26D-07
 ErrMax= 8.26D-07  0.00D+00 EMaxC= 1.00D-01 BMatC= 6.17D-11 BMatP= 1.18D-09
 IDIUse=1 WtCom= 1.00D+00 WtEn= 0.00D+00
 Coeff-Com:  0.251D-02-0.574D-01 0.113D+00 0.942D+00
 Coeff:      0.251D-02-0.574D-01 0.113D+00 0.942D+00
 Gap=     0.410 Goal=   None    Shift=    0.000
 RMSDP=8.33D-08 MaxDP=2.05D-06 DE=-1.10D-09 OVMax= 2.66D-06

 Cycle  11  Pass 1  IDiag  1:
 E= -195.333559787767     Delta-E=       -0.000000000087 Rises=F Damp=F
 DIIS: error= 1.71D-07 at cycle   5 NSaved=   5.
 NSaved= 5 IEnMin= 5 EnMin= -195.333559787767     IErMin= 5 ErrMin= 1.71D-07
 ErrMax= 1.71D-07  0.00D+00 EMaxC= 1.00D-01 BMatC= 2.22D-12 BMatP= 6.17D-11
 IDIUse=1 WtCom= 1.00D+00 WtEn= 0.00D+00
 Coeff-Com:  0.195D-02-0.280D-01-0.155D-01 0.145D+00 0.897D+00
 Coeff:      0.195D-02-0.280D-01-0.155D-01 0.145D+00 0.897D+00
 Gap=     0.410 Goal=   None    Shift=    0.000
 RMSDP=2.36D-08 MaxDP=4.14D-07 DE=-8.67D-11 OVMax= 7.26D-07

 Cycle  12  Pass 1  IDiag  1:
 E= -195.333559787770     Delta-E=       -0.000000000003 Rises=F Damp=F
 DIIS: error= 3.26D-08 at cycle   6 NSaved=   6.
 NSaved= 6 IEnMin= 6 EnMin= -195.333559787770     IErMin= 6 ErrMin= 3.26D-08
 ErrMax= 3.26D-08  0.00D+00 EMaxC= 1.00D-01 BMatC= 1.91D-13 BMatP= 2.22D-12
 IDIUse=1 WtCom= 1.00D+00 WtEn= 0.00D+00
 Coeff-Com:  0.187D-03-0.129D-02-0.112D-01-0.428D-01 0.168D+00 0.887D+00
 Coeff:      0.187D-03-0.129D-02-0.112D-01-0.428D-01 0.168D+00 0.887D+00
 Gap=     0.410 Goal=   None    Shift=    0.000
 RMSDP=7.06D-09 MaxDP=1.47D-07 DE=-2.90D-12 OVMax= 2.53D-07

 SCF Done:  E(RwB97XD) =  -195.333559788     A.U. after   12 cycles
            NFock= 12  Conv=0.71D-08     -V/T= 2.0056
 KE= 1.942425301698D+02 PE=-7.954631419840D+02 EE= 2.343677790262D+02
 Leave Link  502 at Fri Jul  9 19:20:01 2021, MaxMem=  4194304000 cpu:       207.1
 (Enter /home/minenky/programs//g09/l601.exe)
 Copying SCF densities to generalized density rwf, IOpCl= 0 IROHF=0.

 **********************************************************************

            Population analysis using the SCF density.

 **********************************************************************

 Orbital symmetries:
       Occupied  (A) (A) (A) (A) (A) (A) (A) (A) (A) (A) (A) (A)
                 (A) (A) (A) (A) (A) (A) (A)
       Virtual   (A) (A) (A) (A) (A) (A) (A) (A) (A) (A) (A) (A)
                 (A) (A) (A) (A) (A) (A) (A) (A) (A) (A) (A) (A)
                 (A) (A) (A) (A) (A) (A) (A) (A) (A) (A) (A) (A)
                 (A) (A) (A) (A) (A) (A) (A) (A) (A) (A) (A) (A)
                 (A) (A) (A) (A) (A) (A) (A) (A) (A) (A) (A) (A)
                 (A) (A) (A) (A) (A) (A) (A) (A) (A) (A) (A) (A)
                 (A) (A) (A) (A) (A) (A) (A) (A) (A) (A) (A) (A)
                 (A) (A) (A) (A) (A) (A) (A) (A) (A) (A) (A) (A)
                 (A) (A) (A) (A) (A) (A) (A) (A) (A) (A) (A) (A)
                 (A) (A) (A) (A) (A) (A) (A) (A) (A) (A) (A) (A)
                 (A) (A) (A) (A) (A) (A) (A) (A) (A) (A) (A) (A)
                 (A) (A) (A) (A) (A) (A) (A) (A) (A) (A) (A) (A)
                 (A) (A) (A) (A) (A) (A) (A) (A) (A) (A) (A) (A)
                 (A) (A) (A) (A) (A) (A) (A) (A) (A) (A) (A) (A)
                 (A) (A) (A) (A) (A) (A) (A) (A) (A) (A) (A) (A)
                 (A) (A) (A) (A)
 The electronic state is 1-A.
 Alpha  occ. eigenvalues --  -10.27841 -10.27840 -10.27659 -10.27485 -10.27392
 Alpha  occ. eigenvalues --   -0.94046  -0.80380  -0.80081  -0.66558  -0.61741
 Alpha  occ. eigenvalues --   -0.58605  -0.55502  -0.48140  -0.46083  -0.43016
 Alpha  occ. eigenvalues --   -0.42694  -0.42389  -0.41994  -0.31871
 Alpha virt. eigenvalues --    0.09141   0.11626   0.15253   0.15429   0.15969
 Alpha virt. eigenvalues --    0.17585   0.18706   0.20356   0.21528   0.24115
 Alpha virt. eigenvalues --    0.24713   0.26424   0.27872   0.29076   0.31256
 Alpha virt. eigenvalues --    0.31624   0.32476   0.34440   0.37861   0.39553
 Alpha virt. eigenvalues --    0.42573   0.43631   0.45099   0.47648   0.48802
 Alpha virt. eigenvalues --    0.49562   0.49749   0.49944   0.50519   0.51470
 Alpha virt. eigenvalues --    0.51704   0.52766   0.53598   0.54690   0.55505
 Alpha virt. eigenvalues --    0.60139   0.60468   0.63163   0.68742   0.71782
 Alpha virt. eigenvalues --    0.71812   0.78900   0.80021   0.84416   0.87657
 Alpha virt. eigenvalues --    0.94147   0.98539   1.00312   1.00646   1.03201
 Alpha virt. eigenvalues --    1.06402   1.06748   1.08998   1.10980   1.11031
 Alpha virt. eigenvalues --    1.17068   1.19056   1.19848   1.21698   1.24194
 Alpha virt. eigenvalues --    1.26583   1.30413   1.33494   1.36991   1.39517
 Alpha virt. eigenvalues --    1.41309   1.50603   1.51096   1.56806   1.58749
 Alpha virt. eigenvalues --    1.62292   1.64132   1.67183   1.69734   1.72248
 Alpha virt. eigenvalues --    1.72362   1.73780   1.74461   1.83169   1.86828
 Alpha virt. eigenvalues --    1.87832   1.90505   1.93855   1.98410   1.99236
 Alpha virt. eigenvalues --    2.03600   2.06650   2.06965   2.07975   2.16376
 Alpha virt. eigenvalues --    2.16684   2.22973   2.25085   2.26531   2.33075
 Alpha virt. eigenvalues --    2.34509   2.42811   2.43222   2.45289   2.47128
 Alpha virt. eigenvalues --    2.49759   2.50378   2.59916   2.60930   2.61643
 Alpha virt. eigenvalues --    2.64231   2.66479   2.69201   2.71212   2.73115
 Alpha virt. eigenvalues --    2.75882   2.78654   2.81093   2.85015   2.88247
 Alpha virt. eigenvalues --    2.89415   2.92454   2.94854   2.97915   2.98102
 Alpha virt. eigenvalues --    3.00466   3.01049   3.07614   3.07641   3.13807
 Alpha virt. eigenvalues --    3.14791   3.17450   3.17594   3.20485   3.22742
 Alpha virt. eigenvalues --    3.24718   3.30626   3.31006   3.34955   3.37565
 Alpha virt. eigenvalues --    3.39593   3.40892   3.41365   3.43672   3.44153
 Alpha virt. eigenvalues --    3.49286   3.52648   3.54115   3.55747   3.56266
 Alpha virt. eigenvalues --    3.67744   3.71873   3.72001   3.72631   3.79053
 Alpha virt. eigenvalues --    3.89301   3.95464   3.95639   3.99043   4.00079
 Alpha virt. eigenvalues --    4.02338   4.03684   4.06159   4.15810   4.20937
 Alpha virt. eigenvalues --    4.22620   4.27246   4.31422   4.35448   4.39449
 Alpha virt. eigenvalues --    4.44434   4.48368   4.54577   4.56227   4.66547
 Alpha virt. eigenvalues --    4.70233   4.79247   4.81678   4.83050   4.88749
 Alpha virt. eigenvalues --    5.01387   5.02282   5.18446   5.23354  22.13727
 Alpha virt. eigenvalues --   22.49935  22.58590  22.64768  22.94910
          Condensed to atoms (all electrons):
               1          2          3          4          5          6
     1  C    5.052997   0.614827   0.288633  -0.054318  -0.046803   0.410532
     2  C    0.614827   5.052997  -0.054318   0.288633  -0.046803  -0.029428
     3  C    0.288633  -0.054318   4.872988  -0.058509   0.346874  -0.031234
     4  C   -0.054318   0.288633  -0.058509   4.872988   0.346874   0.005357
     5  C   -0.046803  -0.046803   0.346874   0.346874   4.882883   0.004467
     6  H    0.410532  -0.029428  -0.031234   0.005357   0.004467   0.525261
     7  H   -0.029428   0.410532   0.005357  -0.031234   0.004467  -0.003337
     8  H   -0.036215  -0.000620   0.426606   0.009900  -0.036636  -0.000950
     9  H   -0.000620  -0.036215   0.009900   0.426606  -0.036636  -0.000186
    10  H   -0.028472  -0.004829   0.396536   0.000284  -0.025582   0.000753
    11  H   -0.004829  -0.028472   0.000284   0.396536  -0.025582  -0.000335
    12  H    0.003763   0.003763  -0.038264  -0.038264   0.418949  -0.000152
    13  H    0.007168   0.007168  -0.038668  -0.038668   0.425422  -0.000138
               7          8          9         10         11         12
     1  C   -0.029428  -0.036215  -0.000620  -0.028472  -0.004829   0.003763
     2  C    0.410532  -0.000620  -0.036215  -0.004829  -0.028472   0.003763
     3  C    0.005357   0.426606   0.009900   0.396536   0.000284  -0.038264
     4  C   -0.031234   0.009900   0.426606   0.000284   0.396536  -0.038264
     5  C    0.004467  -0.036636  -0.036636  -0.025582  -0.025582   0.418949
     6  H   -0.003337  -0.000950  -0.000186   0.000753  -0.000335  -0.000152
     7  H    0.525262  -0.000186  -0.000950  -0.000335   0.000753  -0.000152
     8  H   -0.000186   0.585129   0.000210  -0.036117  -0.000756  -0.010743
     9  H   -0.000950   0.000210   0.585129  -0.000756  -0.036117  -0.010743
    10  H   -0.000335  -0.036117  -0.000756   0.603818   0.003101   0.006200
    11  H    0.000753  -0.000756  -0.036117   0.003101   0.603818   0.006200
    12  H   -0.000152  -0.010743  -0.010743   0.006200   0.006200   0.592626
    13  H   -0.000138   0.001160   0.001160  -0.006849  -0.006849  -0.028210
              13
     1  C    0.007168
     2  C    0.007168
     3  C   -0.038668
     4  C   -0.038668
     5  C    0.425422
     6  H   -0.000138
     7  H   -0.000138
     8  H    0.001160
     9  H    0.001160
    10  H   -0.006849
    11  H   -0.006849
    12  H   -0.028210
    13  H    0.575445
 Mulliken charges:
               1
     1  C   -0.177236
     2  C   -0.177236
     3  C   -0.126184
     4  C   -0.126184
     5  C   -0.211894
     6  H    0.119390
     7  H    0.119390
     8  H    0.099218
     9  H    0.099218
    10  H    0.092248
    11  H    0.092248
    12  H    0.095026
    13  H    0.101996
 Sum of Mulliken charges =   0.00000
 Mulliken charges with hydrogens summed into heavy atoms:
               1
     1  C   -0.057845
     2  C   -0.057845
     3  C    0.065282
     4  C    0.065282
     5  C   -0.014872
 Electronic spatial extent (au):  <R**2>=            374.1876
 Charge=              0.0000 electrons
 Dipole moment (field-independent basis, Debye):
    X=              0.0000    Y=             -0.2187    Z=              0.0885  Tot=              0.2360
 Quadrupole moment (field-independent basis, Debye-Ang):
   XX=            -30.5061   YY=            -31.2242   ZZ=            -32.5157
   XY=              0.0000   XZ=              0.0000   YZ=             -0.1164
 Traceless Quadrupole moment (field-independent basis, Debye-Ang):
   XX=              0.9092   YY=              0.1911   ZZ=             -1.1004
   XY=              0.0000   XZ=              0.0000   YZ=             -0.1164
 Octapole moment (field-independent basis, Debye-Ang**2):
  XXX=              0.0000  YYY=              2.5060  ZZZ=              0.8061  XYY=              0.0000
  XXY=              1.9507  XXZ=             -0.7493  XZZ=              0.0000  YZZ=             -3.4082
  YYZ=             -0.0944  XYZ=              0.0000
 Hexadecapole moment (field-independent basis, Debye-Ang**3):
 XXXX=           -233.0926 YYYY=           -222.6146 ZZZZ=            -58.4781 XXXY=              0.0001
 XXXZ=              0.0000 YYYX=              0.0000 YYYZ=             -2.8776 ZZZX=              0.0000
 ZZZY=              1.0123 XXYY=            -73.3133 XXZZ=            -46.5672 YYZZ=            -50.2945
 XXYZ=              0.3388 YYXZ=              0.0000 ZZXY=              0.0000
 N-N= 1.715192730003D+02 E-N=-7.954631456696D+02  KE= 1.942425301698D+02
 No NMR shielding tensors so no spin-rotation constants.
 Leave Link  601 at Fri Jul  9 19:20:08 2021, MaxMem=  4194304000 cpu:        29.0
 (Enter /home/minenky/programs//g09/l701.exe)
 Compute integral first derivatives.
 ... and contract with generalized density number  0.
 R6Disp: Adding Grimme-D2 dispersion energy 1st derivatives to the gradient.
   1 Symmetry operations used in ECPInt.
 ECPInt:  NShTT=    3828 NPrTT=   11160 LenC2=    3820 LenP2D=    9632.
 LDataN:  DoStor=T MaxTD1= 7 Len=  274
 Leave Link  701 at Fri Jul  9 19:20:11 2021, MaxMem=  4194304000 cpu:        22.0
 (Enter /home/minenky/programs//g09/l702.exe)
 L702 exits ... SP integral derivatives will be done elsewhere.
 Leave Link  702 at Fri Jul  9 19:20:11 2021, MaxMem=  4194304000 cpu:         0.1
 (Enter /home/minenky/programs//g09/l703.exe)
 Compute integral first derivatives, UseDBF=F ICtDFT=           0.
 Integral derivatives from FoFJK, PRISM(SPDF).
 Calling FoFJK, ICntrl=      2127 FMM=F ISym2X=0 I1Cent= 0 IOpClX= 0 NMat=1 NMatS=1 NMatT=0.
 FoFJK:  IHMeth= 1 ICntrl=    2127 DoSepK=T KAlg= 0 I1Cent=   0 FoldK=F
 IRaf=         1 NMat=   1 IRICut=       1 DoRegI=T DoRafI=F ISym2E= 0.
 FoFCou: FMM=F IPFlag=           0 FMFlag=      100000 FMFlg1=         800
         NFxFlg=           0 DoJE=F BraDBF=F KetDBF=F FulRan=T
         wScrn=  0.000000 ICntrl=    2527 IOpCl=  0 I1Cent=           0 NGrid=           0
         NMat0=    1 NMatS0=      1 NMatT0=    0 NMatD0=    1 NMtDS0=    0 NMtDT0=    0
 Symmetry not used in FoFCou.
 Leave Link  703 at Fri Jul  9 19:20:20 2021, MaxMem=  4194304000 cpu:       139.9
 (Enter /home/minenky/programs//g09/l716.exe)
 Dipole        =-5.06644441D-07-8.60540643D-02 3.48364188D-02
 ***** Axes restored to original set *****
 -------------------------------------------------------------------
 Center     Atomic                   Forces (Hartrees/Bohr)
 Number     Number              X              Y              Z
 -------------------------------------------------------------------
      1        6          -0.003657386   -0.001613667    0.000187108
      2        6           0.003657014   -0.001612973    0.000187083
      3        6          -0.001797843   -0.000582928    0.000014347
      4        6           0.001797777   -0.000582798    0.000014216
      5        6           0.000000010    0.002883084    0.000413612
      6        1          -0.000080899    0.000118917   -0.000021873
      7        1           0.000081076    0.000118542   -0.000021852
      8        1          -0.000465914    0.000189376   -0.000046843
      9        1           0.000466124    0.000189390   -0.000046734
     10        1          -0.000483176    0.000282881   -0.000379470
     11        1           0.000483208    0.000282883   -0.000379473
     12        1          -0.000000011    0.000113627    0.000014160
     13        1           0.000000019    0.000213667    0.000065717
 -------------------------------------------------------------------
 Cartesian Forces:  Max     0.003657386 RMS     0.001123000
 Leave Link  716 at Fri Jul  9 19:20:21 2021, MaxMem=  4194304000 cpu:         0.1
 (Enter /home/minenky/programs//g09/l103.exe)

 GradGradGradGradGradGradGradGradGradGradGradGradGradGradGradGradGradGrad
 Berny optimization.
 FormGI is forming the generalized inverse of G from B-inverse, IUseBI=4.
 Internal  Forces:  Max     0.004286563 RMS     0.000749732
 Search for a local minimum.
 Step number   1 out of a maximum of   81
 All quantities printed in internal units (Hartrees-Bohrs-Radians)
 RMS Force = .74973D-03 SwitMx=.10000D-02 MixMth= 2
 Mixed Optimization -- En-DIIS/RFO-DIIS
 Second derivative matrix not updated -- first step.
 ITU=  0
     Eigenvalues ---    0.00363   0.01019   0.01288   0.01859   0.03360
     Eigenvalues ---    0.03426   0.04871   0.05202   0.05807   0.05923
     Eigenvalues ---    0.07064   0.07551   0.08139   0.08161   0.09525
     Eigenvalues ---    0.11108   0.15974   0.15986   0.21508   0.21589
     Eigenvalues ---    0.27017   0.27106   0.30079   0.31372   0.34087
     Eigenvalues ---    0.34087   0.34527   0.34527   0.34657   0.34852
     Eigenvalues ---    0.35703   0.35703   0.56587
 RFO step:  Lambda=-1.09453030D-04 EMin= 3.63365852D-03
 Linear search not attempted -- first point.
 Iteration  1 RMS(Cart)=  0.00380352 RMS(Int)=  0.00000427
 Iteration  2 RMS(Cart)=  0.00000467 RMS(Int)=  0.00000086
 Iteration  3 RMS(Cart)=  0.00000000 RMS(Int)=  0.00000086
 ITry= 1 IFail=0 DXMaxC= 1.34D-02 DCOld= 1.00D+10 DXMaxT= 3.00D-01 DXLimC= 3.00D+00 Rises=F
 Variable       Old X    -DE/DX   Delta X   Delta X   Delta X     New X
                                 (Linear)    (Quad)   (Total)
    R1        2.51119  -0.00429   0.00000  -0.00752  -0.00752   2.50367
    R2        2.84872  -0.00160   0.00000  -0.00531  -0.00531   2.84341
    R3        2.04548   0.00005   0.00000   0.00015   0.00015   2.04563
    R4        2.84872  -0.00160   0.00000  -0.00531  -0.00531   2.84341
    R5        2.04548   0.00005   0.00000   0.00014   0.00014   2.04563
    R6        2.92372  -0.00273   0.00000  -0.00918  -0.00918   2.91453
    R7        2.06450  -0.00035   0.00000  -0.00102  -0.00102   2.06349
    R8        2.07184  -0.00057   0.00000  -0.00167  -0.00167   2.07017
    R9        2.92372  -0.00273   0.00000  -0.00918  -0.00918   2.91453
   R10        2.06450  -0.00035   0.00000  -0.00102  -0.00102   2.06349
   R11        2.07184  -0.00057   0.00000  -0.00167  -0.00167   2.07017
   R12        2.06235  -0.00005   0.00000  -0.00015  -0.00015   2.06220
   R13        2.05915  -0.00013   0.00000  -0.00038  -0.00038   2.05877
    A1        1.95645   0.00015   0.00000  -0.00046  -0.00046   1.95599
    A2        2.18160  -0.00021   0.00000  -0.00065  -0.00065   2.18095
    A3        2.14433   0.00007   0.00000   0.00109   0.00109   2.14543
    A4        1.95645   0.00015   0.00000  -0.00046  -0.00046   1.95599
    A5        2.18160  -0.00021   0.00000  -0.00064  -0.00064   2.18095
    A6        2.14433   0.00007   0.00000   0.00109   0.00109   2.14543
    A7        1.79888  -0.00005   0.00000  -0.00057  -0.00057   1.79830
    A8        1.97096  -0.00005   0.00000  -0.00155  -0.00155   1.96942
    A9        1.92595  -0.00011   0.00000  -0.00155  -0.00155   1.92440
   A10        1.96202  -0.00006   0.00000  -0.00067  -0.00067   1.96135
   A11        1.95176   0.00006   0.00000   0.00060   0.00060   1.95236
   A12        1.85654   0.00020   0.00000   0.00350   0.00350   1.86003
   A13        1.79888  -0.00005   0.00000  -0.00057  -0.00057   1.79830
   A14        1.97096  -0.00005   0.00000  -0.00155  -0.00155   1.96942
   A15        1.92595  -0.00011   0.00000  -0.00155  -0.00155   1.92440
   A16        1.96202  -0.00006   0.00000  -0.00067  -0.00068   1.96135
   A17        1.95176   0.00006   0.00000   0.00060   0.00060   1.95236
   A18        1.85654   0.00020   0.00000   0.00350   0.00350   1.86003
   A19        1.84122  -0.00021   0.00000   0.00039   0.00038   1.84161
   A20        1.90643   0.00006   0.00000   0.00028   0.00028   1.90671
   A21        1.96775   0.00003   0.00000  -0.00113  -0.00113   1.96661
   A22        1.90643   0.00006   0.00000   0.00028   0.00028   1.90671
   A23        1.96774   0.00003   0.00000  -0.00113  -0.00113   1.96661
   A24        1.87350   0.00004   0.00000   0.00135   0.00135   1.87485
    D1        0.00000   0.00000   0.00000   0.00000   0.00000   0.00000
    D2        3.09948   0.00000   0.00000  -0.00026  -0.00026   3.09922
    D3       -3.09948   0.00000   0.00000   0.00026   0.00026  -3.09922
    D4        0.00000   0.00000   0.00000   0.00000   0.00000   0.00000
    D5        0.21885   0.00006   0.00000   0.00240   0.00240   0.22125
    D6        2.34028  -0.00007   0.00000   0.00040   0.00040   2.34067
    D7       -1.86770   0.00007   0.00000   0.00275   0.00275  -1.86495
    D8       -2.96381   0.00005   0.00000   0.00209   0.00209  -2.96172
    D9       -0.84239  -0.00008   0.00000   0.00009   0.00009  -0.84230
   D10        1.23282   0.00006   0.00000   0.00245   0.00245   1.23527
   D11       -0.21885  -0.00006   0.00000  -0.00240  -0.00240  -0.22125
   D12       -2.34028   0.00007   0.00000  -0.00039  -0.00039  -2.34067
   D13        1.86770  -0.00007   0.00000  -0.00275  -0.00275   1.86495
   D14        2.96381  -0.00005   0.00000  -0.00209  -0.00209   2.96172
   D15        0.84239   0.00008   0.00000  -0.00009  -0.00009   0.84230
   D16       -1.23282  -0.00006   0.00000  -0.00245  -0.00245  -1.23527
   D17       -0.33876  -0.00002   0.00000  -0.00395  -0.00395  -0.34271
   D18        1.70855  -0.00004   0.00000  -0.00329  -0.00329   1.70527
   D19       -2.49338   0.00007   0.00000  -0.00212  -0.00212  -2.49551
   D20       -2.46623   0.00010   0.00000  -0.00137  -0.00138  -2.46760
   D21       -0.41891   0.00008   0.00000  -0.00071  -0.00071  -0.41962
   D22        1.66233   0.00019   0.00000   0.00046   0.00046   1.66279
   D23        1.72986  -0.00016   0.00000  -0.00582  -0.00583   1.72404
   D24       -2.50601  -0.00017   0.00000  -0.00516  -0.00516  -2.51117
   D25       -0.42476  -0.00006   0.00000  -0.00399  -0.00399  -0.42875
   D26        0.33876   0.00002   0.00000   0.00395   0.00395   0.34271
   D27       -1.70855   0.00004   0.00000   0.00329   0.00329  -1.70526
   D28        2.49338  -0.00007   0.00000   0.00212   0.00212   2.49551
   D29        2.46623  -0.00010   0.00000   0.00137   0.00138   2.46760
   D30        0.41891  -0.00008   0.00000   0.00071   0.00071   0.41962
   D31       -1.66233  -0.00019   0.00000  -0.00046  -0.00046  -1.66279
   D32       -1.72986   0.00016   0.00000   0.00582   0.00582  -1.72404
   D33        2.50601   0.00017   0.00000   0.00516   0.00516   2.51117
   D34        0.42476   0.00006   0.00000   0.00399   0.00399   0.42875
         Item               Value     Threshold  Converged?
 Maximum Force            0.004287     0.000015     NO 
 RMS     Force            0.000750     0.000010     NO 
 Maximum Displacement     0.013385     0.000060     NO 
 RMS     Displacement     0.003805     0.000040     NO 
 Predicted change in Energy=-5.475846D-05
 Lowest energy point so far.  Saving SCF results.
 GradGradGradGradGradGradGradGradGradGradGradGradGradGradGradGradGradGrad

 Leave Link  103 at Fri Jul  9 19:20:26 2021, MaxMem=  4194304000 cpu:        61.3
 (Enter /home/minenky/programs//g09/l202.exe)
                          Input orientation:                          
 ---------------------------------------------------------------------
 Center     Atomic      Atomic             Coordinates (Angstroms)
 Number     Number       Type             X           Y           Z
 ---------------------------------------------------------------------
      1          6           0        0.662447    1.068830   -0.046323
      2          6           0       -0.662439    1.068834   -0.046323
      3          6           0        1.227810   -0.317693    0.101828
      4          6           0       -1.227812   -0.317685    0.101828
      5          6           0       -0.000004   -1.220970   -0.133267
      6          1           0        1.282718    1.954179   -0.103126
      7          1           0       -1.282705    1.954187   -0.103125
      8          1           0        2.036194   -0.523321   -0.602862
      9          1           0       -2.036198   -0.523307   -0.602862
     10          1           0        1.646474   -0.451434    1.105287
     11          1           0       -1.646477   -0.451422    1.105287
     12          1           0       -0.000005   -1.565680   -1.168662
     13          1           0       -0.000007   -2.104195    0.504559
 ---------------------------------------------------------------------
                    Distance matrix (angstroms):
                    1          2          3          4          5
     1  C    0.000000
     2  C    1.324886   0.000000
     3  C    1.504670   2.348926   0.000000
     4  C    2.348925   1.504670   2.455622   0.000000
     5  C    2.385285   2.385285   1.542305   1.542305   0.000000
     6  H    1.082500   2.137919   2.281759   3.392069   3.424595
     7  H    2.137919   1.082500   3.392069   2.281759   3.424596
     8  H    2.175284   3.182345   1.091951   3.345536   2.203029
     9  H    3.182345   2.175284   3.345536   1.091951   2.203029
    10  H    2.146094   2.994746   1.095489   3.047350   2.199339
    11  H    2.994746   2.146093   3.047350   1.095489   2.199339
    12  H    2.939240   2.939240   2.163133   2.163133   1.091269
    13  H    3.287918   3.287918   2.204839   2.204839   1.089453
                    6          7          8          9         10
     6  H    0.000000
     7  H    2.565423   0.000000
     8  H    2.637322   4.171675   0.000000
     9  H    4.171675   2.637321   4.072392   0.000000
    10  H    2.716533   3.978362   1.753517   4.060174   0.000000
    11  H    3.978362   2.716533   4.060174   1.753517   3.292951
    12  H    3.894888   3.894888   2.356428   2.356428   3.020477
    13  H    4.299425   4.299426   2.805648   2.805648   2.409023
                   11         12         13
    11  H    0.000000
    12  H    3.020478   0.000000
    13  H    2.409024   1.757745   0.000000
 Stoichiometry    C5H8
 Framework group  C1[X(C5H8)]
 Deg. of freedom    33
 Full point group                 C1      NOp   1
 RotChk:  IX=0 Diff= 3.30D-04
 Largest Abelian subgroup         C1      NOp   1
 Largest concise Abelian subgroup C1      NOp   1
                         Standard orientation:                         
 ---------------------------------------------------------------------
 Center     Atomic      Atomic             Coordinates (Angstroms)
 Number     Number       Type             X           Y           Z
 ---------------------------------------------------------------------
      1          6           0        0.662441    1.069452   -0.046099
      2          6           0       -0.662445    1.069449   -0.046099
      3          6           0        1.227812   -0.317103    0.101729
      4          6           0       -1.227810   -0.317108    0.101729
      5          6           0        0.000002   -1.220331   -0.133576
      6          1           0        1.282708    1.954817   -0.102695
      7          1           0       -1.282715    1.954812   -0.102695
      8          1           0        2.036197   -0.522561   -0.603009
      9          1           0       -2.036195   -0.522569   -0.603009
     10          1           0        1.646476   -0.451074    1.105157
     11          1           0       -1.646475   -0.451081    1.105157
     12          1           0        0.000003   -1.564800   -1.169052
     13          1           0        0.000004   -2.103704    0.504044
 ---------------------------------------------------------------------
 Rotational constants (GHZ):      7.3622392      7.3018111      3.9752251
 Leave Link  202 at Fri Jul  9 19:20:26 2021, MaxMem=  4194304000 cpu:         0.4
 (Enter /home/minenky/programs//g09/l301.exe)
 Standard basis: def2TZVP (5D, 7F)
 Ernie: Thresh=  0.10000D-02 Tol=  0.10000D-05 Strict=F.
 There are   228 symmetry adapted cartesian basis functions of A   symmetry.
 There are   203 symmetry adapted basis functions of A   symmetry.
   203 basis functions,   319 primitive gaussians,   228 cartesian basis functions
    19 alpha electrons       19 beta electrons
       nuclear repulsion energy       171.8975103015 Hartrees.
 IExCor= 4639 DFT=T Ex+Corr=wB97XD ExCW=0 ScaHFX=  1.000000
 ScaDFX=  1.000000  1.000000  1.000000  1.000000 ScalE2=  1.000000  1.000000
 IRadAn=      5 IRanWt=     -1 IRanGd=            0 ICorTp=0 IEmpDi=121
  HFx wShort=  0.000000 wLong=  0.200000 cFull=  0.222036 cShort=  0.000000 cLong=  0.777964
  DFx wShort=  0.000000 wLong=  0.200000 cFull=  0.000000 cShort=  0.000000 cLong=  1.000000
 NAtoms=   13 NActive=   13 NUniq=   13 SFac= 1.00D+00 NAtFMM=   60 NAOKFM=F Big=F
 Integral buffers will be    131072 words long.
 Raffenetti 2 integral format.
 Two-electron integral symmetry is turned on.
 R6Disp:  Grimme-D2 Dispersion energy=       -0.0056314015 Hartrees.
 Nuclear repulsion after empirical dispersion term =      171.8918789000 Hartrees.
 Leave Link  301 at Fri Jul  9 19:20:26 2021, MaxMem=  4194304000 cpu:         0.3
 (Enter /home/minenky/programs//g09/l302.exe)
 NPDir=0 NMtPBC=     1 NCelOv=     1 NCel=       1 NClECP=     1 NCelD=      1
         NCelK=      1 NCelE2=     1 NClLst=     1 CellRange=     0.0.
 One-electron integrals computed using PRISM.
   1 Symmetry operations used in ECPInt.
 ECPInt:  NShTT=    3828 NPrTT=   11160 LenC2=    3820 LenP2D=    9644.
 LDataN:  DoStor=T MaxTD1= 6 Len=  172
 NBasis=   203 RedAO= T EigKep=  1.14D-04  NBF=   203
 NBsUse=   203 1.00D-06 EigRej= -1.00D+00 NBFU=   203
 Precomputing XC quadrature grid using
 IXCGrd= 4 IRadAn=           5 IRanWt=          -1 IRanGd=           0 AccXCQ= 0.00D+00.
 Generated NRdTot=       0 NPtTot=           0 NUsed=           0 NTot=          32
 NSgBfM=   227   227   227   227   227 MxSgAt=    13 MxSgA2=    13.
 Leave Link  302 at Fri Jul  9 19:20:27 2021, MaxMem=  4194304000 cpu:         6.4
 (Enter /home/minenky/programs//g09/l303.exe)
 DipDrv:  MaxL=1.
 Leave Link  303 at Fri Jul  9 19:20:28 2021, MaxMem=  4194304000 cpu:         6.2
 (Enter /home/minenky/programs//g09/l401.exe)
 Initial guess from the checkpoint file:  "m1_00_142-29-00_C5H8_wB97XD.chk"
 B after Tr=     0.000000    0.000000    0.000000
         Rot=    1.000000   -0.000103    0.000000   -0.000005 Ang=  -0.01 deg.
 Guess basis will be translated and rotated to current coordinates.
 JPrj=2 DoOrth=T DoCkMO=T.
 Leave Link  401 at Fri Jul  9 19:20:29 2021, MaxMem=  4194304000 cpu:        19.2
 (Enter /home/minenky/programs//g09/l502.exe)
 Closed shell SCF:
 Using DIIS extrapolation, IDIIS=  1040.
 Integral symmetry usage will be decided dynamically.
 Keep R1 ints in memory in canonical form, NReq=435072632.
 IVT=      309110 IEndB=      309110 NGot=  4194304000 MDV=  3765235749
 LenX=  3765235749 LenY=  3765183324
 Requested convergence on RMS density matrix=1.00D-08 within 380 cycles.
 Requested convergence on MAX density matrix=1.00D-06.
 Requested convergence on             energy=1.00D-06.
 No special actions if energy rises.
 FoFCou: FMM=F IPFlag=           0 FMFlag=           0 FMFlg1=           0
         NFxFlg=           0 DoJE=F BraDBF=F KetDBF=F FulRan=T
         wScrn=  0.000000 ICntrl=     600 IOpCl=  0 I1Cent=           0 NGrid=           0
         NMat0=    1 NMatS0=  20706 NMatT0=    0 NMatD0=    1 NMtDS0=    0 NMtDT0=    0
 Symmetry not used in FoFCou.

 Cycle   1  Pass 1  IDiag  1:
 E= -195.333593271549    
 DIIS: error= 2.80D-04 at cycle   1 NSaved=   1.
 NSaved= 1 IEnMin= 1 EnMin= -195.333593271549     IErMin= 1 ErrMin= 2.80D-04
 ErrMax= 2.80D-04  0.00D+00 EMaxC= 1.00D-01 BMatC= 1.91D-05 BMatP= 1.91D-05
 IDIUse=3 WtCom= 9.97D-01 WtEn= 2.80D-03
 Coeff-Com:  0.100D+01
 Coeff-En:   0.100D+01
 Coeff:      0.100D+01
 Gap=     0.888 Goal=   None    Shift=    0.000
 RMSDP=2.97D-05 MaxDP=5.67D-04              OVMax= 9.65D-04

 Cycle   2  Pass 1  IDiag  1:
 E= -195.333608497206     Delta-E=       -0.000015225657 Rises=F Damp=F
 DIIS: error= 1.13D-04 at cycle   2 NSaved=   2.
 NSaved= 2 IEnMin= 2 EnMin= -195.333608497206     IErMin= 2 ErrMin= 1.13D-04
 ErrMax= 1.13D-04  0.00D+00 EMaxC= 1.00D-01 BMatC= 1.90D-06 BMatP= 1.91D-05
 IDIUse=3 WtCom= 9.99D-01 WtEn= 1.13D-03
 Coeff-Com:  0.114D+00 0.886D+00
 Coeff-En:   0.000D+00 0.100D+01
 Coeff:      0.114D+00 0.886D+00
 Gap=     0.411 Goal=   None    Shift=    0.000
 RMSDP=8.39D-06 MaxDP=1.39D-04 DE=-1.52D-05 OVMax= 4.62D-04

 Cycle   3  Pass 1  IDiag  1:
 E= -195.333609813889     Delta-E=       -0.000001316684 Rises=F Damp=F
 DIIS: error= 9.68D-05 at cycle   3 NSaved=   3.
 NSaved= 3 IEnMin= 3 EnMin= -195.333609813889     IErMin= 3 ErrMin= 9.68D-05
 ErrMax= 9.68D-05  0.00D+00 EMaxC= 1.00D-01 BMatC= 7.35D-07 BMatP= 1.90D-06
 IDIUse=1 WtCom= 1.00D+00 WtEn= 0.00D+00
 Coeff-Com: -0.419D-01 0.370D+00 0.672D+00
 Coeff:     -0.419D-01 0.370D+00 0.672D+00
 Gap=     0.411 Goal=   None    Shift=    0.000
 RMSDP=3.40D-06 MaxDP=7.93D-05 DE=-1.32D-06 OVMax= 1.80D-04

 Cycle   4  Pass 1  IDiag  1:
 E= -195.333610564800     Delta-E=       -0.000000750911 Rises=F Damp=F
 DIIS: error= 4.80D-06 at cycle   4 NSaved=   4.
 NSaved= 4 IEnMin= 4 EnMin= -195.333610564800     IErMin= 4 ErrMin= 4.80D-06
 ErrMax= 4.80D-06  0.00D+00 EMaxC= 1.00D-01 BMatC= 5.39D-09 BMatP= 7.35D-07
 IDIUse=1 WtCom= 1.00D+00 WtEn= 0.00D+00
 Coeff-Com:  0.254D-03-0.586D-01-0.295D-01 0.109D+01
 Coeff:      0.254D-03-0.586D-01-0.295D-01 0.109D+01
 Gap=     0.411 Goal=   None    Shift=    0.000
 RMSDP=1.10D-06 MaxDP=1.74D-05 DE=-7.51D-07 OVMax= 4.48D-05

 Cycle   5  Pass 1  IDiag  1:
 E= -195.333610576141     Delta-E=       -0.000000011341 Rises=F Damp=F
 DIIS: error= 1.71D-06 at cycle   5 NSaved=   5.
 NSaved= 5 IEnMin= 5 EnMin= -195.333610576141     IErMin= 5 ErrMin= 1.71D-06
 ErrMax= 1.71D-06  0.00D+00 EMaxC= 1.00D-01 BMatC= 7.68D-10 BMatP= 5.39D-09
 IDIUse=1 WtCom= 1.00D+00 WtEn= 0.00D+00
 Coeff-Com:  0.176D-02-0.349D-01-0.379D-01 0.353D+00 0.718D+00
 Coeff:      0.176D-02-0.349D-01-0.379D-01 0.353D+00 0.718D+00
 Gap=     0.411 Goal=   None    Shift=    0.000
 RMSDP=2.72D-07 MaxDP=6.09D-06 DE=-1.13D-08 OVMax= 1.03D-05

 Cycle   6  Pass 1  IDiag  1:
 E= -195.333610577125     Delta-E=       -0.000000000984 Rises=F Damp=F
 DIIS: error= 6.07D-07 at cycle   6 NSaved=   6.
 NSaved= 6 IEnMin= 6 EnMin= -195.333610577125     IErMin= 6 ErrMin= 6.07D-07
 ErrMax= 6.07D-07  0.00D+00 EMaxC= 1.00D-01 BMatC= 5.29D-11 BMatP= 7.68D-10
 IDIUse=1 WtCom= 1.00D+00 WtEn= 0.00D+00
 Coeff-Com:  0.324D-03 0.213D-04-0.479D-02-0.582D-01 0.134D+00 0.928D+00
 Coeff:      0.324D-03 0.213D-04-0.479D-02-0.582D-01 0.134D+00 0.928D+00
 Gap=     0.411 Goal=   None    Shift=    0.000
 RMSDP=1.55D-07 MaxDP=3.27D-06 DE=-9.84D-10 OVMax= 5.97D-06

 Cycle   7  Pass 1  IDiag  1:
[...]
   D24       -2.52209   0.00000   0.00000  -0.00001  -0.00001  -2.52209
   D25       -0.44085   0.00000   0.00000   0.00000   0.00000  -0.44085
   D26        0.35031   0.00000   0.00000   0.00001   0.00001   0.35032
   D27       -1.69619   0.00000   0.00000   0.00001   0.00001  -1.69618
   D28        2.50577   0.00000   0.00000   0.00000   0.00000   2.50577
   D29        2.47643   0.00000   0.00000   0.00002   0.00002   2.47645
   D30        0.42994   0.00000   0.00000   0.00001   0.00001   0.42995
   D31       -1.65129   0.00000   0.00000   0.00000   0.00000  -1.65129
   D32       -1.71461   0.00000   0.00000   0.00001   0.00001  -1.71459
   D33        2.52209   0.00000   0.00000   0.00001   0.00001   2.52209
   D34        0.44085   0.00000   0.00000   0.00000   0.00000   0.44085
         Item               Value     Threshold  Converged?
 Maximum Force            0.000002     0.000015     YES
 RMS     Force            0.000001     0.000010     YES
 Maximum Displacement     0.000019     0.000060     YES
 RMS     Displacement     0.000008     0.000040     YES
 Predicted change in Energy=-8.691862D-11
 Optimization completed.
    -- Stationary point found.
                           ----------------------------
                           !   Optimized Parameters   !
                           ! (Angstroms and Degrees)  !
 --------------------------                            --------------------------
 ! Name  Definition              Value          Derivative Info.                !
 --------------------------------------------------------------------------------
 ! R1    R(1,2)                  1.3253         -DE/DX =    0.0                 !
 ! R2    R(1,3)                  1.5053         -DE/DX =    0.0                 !
 ! R3    R(1,6)                  1.0826         -DE/DX =    0.0                 !
 ! R4    R(2,4)                  1.5053         -DE/DX =    0.0                 !
 ! R5    R(2,7)                  1.0826         -DE/DX =    0.0                 !
 ! R6    R(3,5)                  1.5419         -DE/DX =    0.0                 !
 ! R7    R(3,8)                  1.0919         -DE/DX =    0.0                 !
 ! R8    R(3,10)                 1.0956         -DE/DX =    0.0                 !
 ! R9    R(4,5)                  1.5419         -DE/DX =    0.0                 !
 ! R10   R(4,9)                  1.0919         -DE/DX =    0.0                 !
 ! R11   R(4,11)                 1.0956         -DE/DX =    0.0                 !
 ! R12   R(5,12)                 1.0915         -DE/DX =    0.0                 !
 ! R13   R(5,13)                 1.0896         -DE/DX =    0.0                 !
 ! A1    A(2,1,3)              112.0342         -DE/DX =    0.0                 !
 ! A2    A(2,1,6)              124.9698         -DE/DX =    0.0                 !
 ! A3    A(3,1,6)              122.9475         -DE/DX =    0.0                 !
 ! A4    A(1,2,4)              112.0342         -DE/DX =    0.0                 !
 ! A5    A(1,2,7)              124.9698         -DE/DX =    0.0                 !
 ! A6    A(4,2,7)              122.9475         -DE/DX =    0.0                 !
 ! A7    A(1,3,5)              102.9807         -DE/DX =    0.0                 !
 ! A8    A(1,3,8)              112.8956         -DE/DX =    0.0                 !
 ! A9    A(1,3,10)             110.1958         -DE/DX =    0.0                 !
 ! A10   A(5,3,8)              112.4479         -DE/DX =    0.0                 !
 ! A11   A(5,3,10)             111.8661         -DE/DX =    0.0                 !
 ! A12   A(8,3,10)             106.5578         -DE/DX =    0.0                 !
 ! A13   A(2,4,5)              102.9807         -DE/DX =    0.0                 !
 ! A14   A(2,4,9)              112.8956         -DE/DX =    0.0                 !
 ! A15   A(2,4,11)             110.1958         -DE/DX =    0.0                 !
 ! A16   A(5,4,9)              112.4479         -DE/DX =    0.0                 !
 ! A17   A(5,4,11)             111.8661         -DE/DX =    0.0                 !
 ! A18   A(9,4,11)             106.5578         -DE/DX =    0.0                 !
 ! A19   A(3,5,4)              105.5058         -DE/DX =    0.0                 !
 ! A20   A(3,5,12)             109.1983         -DE/DX =    0.0                 !
 ! A21   A(3,5,13)             112.7651         -DE/DX =    0.0                 !
 ! A22   A(4,5,12)             109.1983         -DE/DX =    0.0                 !
 ! A23   A(4,5,13)             112.7651         -DE/DX =    0.0                 !
 ! A24   A(12,5,13)            107.3495         -DE/DX =    0.0                 !
 ! D1    D(3,1,2,4)              0.0            -DE/DX =    0.0                 !
 ! D2    D(3,1,2,7)            177.5246         -DE/DX =    0.0                 !
 ! D3    D(6,1,2,4)           -177.5246         -DE/DX =    0.0                 !
 ! D4    D(6,1,2,7)              0.0            -DE/DX =    0.0                 !
 ! D5    D(2,1,3,5)             12.9489         -DE/DX =    0.0                 !
 ! D6    D(2,1,3,8)            134.4638         -DE/DX =    0.0                 !
 ! D7    D(2,1,3,10)          -106.5257         -DE/DX =    0.0                 !
 ! D8    D(6,1,3,5)           -169.4683         -DE/DX =    0.0                 !
 ! D9    D(6,1,3,8)            -47.9533         -DE/DX =    0.0                 !
 ! D10   D(6,1,3,10)            71.0571         -DE/DX =    0.0                 !
 ! D11   D(1,2,4,5)            -12.9489         -DE/DX =    0.0                 !
 ! D12   D(1,2,4,9)           -134.4638         -DE/DX =    0.0                 !
 ! D13   D(1,2,4,11)           106.5257         -DE/DX =    0.0                 !
 ! D14   D(7,2,4,5)            169.4683         -DE/DX =    0.0                 !
 ! D15   D(7,2,4,9)             47.9533         -DE/DX =    0.0                 !
 ! D16   D(7,2,4,11)           -71.0571         -DE/DX =    0.0                 !
 ! D17   D(1,3,5,4)            -20.0711         -DE/DX =    0.0                 !
 ! D18   D(1,3,5,12)            97.1843         -DE/DX =    0.0                 !
 ! D19   D(1,3,5,13)          -143.5698         -DE/DX =    0.0                 !
 ! D20   D(8,3,5,4)           -141.8893         -DE/DX =    0.0                 !
 ! D21   D(8,3,5,12)           -24.6338         -DE/DX =    0.0                 !
 ! D22   D(8,3,5,13)            94.6121         -DE/DX =    0.0                 !
 ! D23   D(10,3,5,4)            98.2397         -DE/DX =    0.0                 !
 ! D24   D(10,3,5,12)         -144.5049         -DE/DX =    0.0                 !
 ! D25   D(10,3,5,13)          -25.259          -DE/DX =    0.0                 !
 ! D26   D(2,4,5,3)             20.0711         -DE/DX =    0.0                 !
 ! D27   D(2,4,5,12)           -97.1843         -DE/DX =    0.0                 !
 ! D28   D(2,4,5,13)           143.5698         -DE/DX =    0.0                 !
 ! D29   D(9,4,5,3)            141.8893         -DE/DX =    0.0                 !
 ! D30   D(9,4,5,12)            24.6338         -DE/DX =    0.0                 !
 ! D31   D(9,4,5,13)           -94.6121         -DE/DX =    0.0                 !
 ! D32   D(11,4,5,3)           -98.2397         -DE/DX =    0.0                 !
 ! D33   D(11,4,5,12)          144.5049         -DE/DX =    0.0                 !
 ! D34   D(11,4,5,13)           25.259          -DE/DX =    0.0                 !
 --------------------------------------------------------------------------------
 GradGradGradGradGradGradGradGradGradGradGradGradGradGradGradGradGradGrad

 Leave Link  103 at Fri Jul  9 19:28:31 2021, MaxMem=  4194304000 cpu:        29.3
 (Enter /home/minenky/programs//g09/l9999.exe)
 1\1\GINC-CN506-03-R\Freq\RwB97XD\def2TZVP\C5H8\MINENKY\09-Jul-2021\0\\
 #P Geom=AllCheck Guess=TCheck SCRF=Check GenChk RwB97XD/def2TZVP Freq\
 \The PBEPBE optimization and frequencies\\0,1\C,0.662676744,1.06871124
 08,-0.0485328347\C,-0.6626691501,1.0687157771,-0.0485328362\C,1.227419
 1202,-0.3183262463,0.1039887919\C,-1.2274210101,-0.3183178491,0.103988
 783\C,-0.0000040241,-1.2203130664,-0.1355433322\H,1.2831382374,1.95386
 02011,-0.1073212786\H,-1.2831245926,1.9538689824,-0.1073212842\H,2.039
 9244076,-0.5254766051,-0.5954664706\H,-2.0399277119,-0.5254626447,-0.5
 954664841\H,1.6404351065,-0.4500183926,1.1101851144\H,-1.6404379045,-0
 .450007161,1.1101851041\H,-0.0000051652,-1.5582613551,-1.1733697971\H,
 -0.0000070572,-2.1086488811,0.4954465244\\Version=AM64L-G09RevD.01\Sta
 te=1-A\HF=-195.333613\RMSD=1.257e-09\RMSF=1.704e-06\ZeroPoint=0.117669
 1\Thermal=0.1222698\Dipole=-0.0000003,-0.0847093,0.035816\DipoleDeriv=
 0.0232752,-0.0762403,0.0278193,-0.049395,0.0706353,-0.0259366,0.070122
 ,-0.0355261,-0.248674,0.023276,0.0762406,-0.0278195,0.0493953,0.070634
 4,-0.0259364,-0.0701223,-0.0355256,-0.248674,0.0447288,-0.0282844,-0.0
 170706,-0.0103271,-0.0161981,0.0153012,-0.0547266,0.0187711,0.2132565,
 0.0447291,0.028284,0.0170707,0.0103267,-0.0161984,0.0153011,0.0547267,
 0.0187707,0.2132565,-0.0238438,0.0000004,-0.0000001,0.0000004,0.103782
 ,-0.0375438,0.,-0.0131207,0.1413588,0.0160904,-0.0601946,0.0014436,-0.
 0794483,-0.0880855,0.0166832,-0.0030295,0.0147634,0.1567699,0.0160914,
 0.0601939,-0.0014435,0.0794476,-0.0880864,0.0166832,0.0030296,0.014763
 4,0.1567699,-0.0939124,0.0303096,0.0694441,0.0567954,0.0251999,-0.0143
 773,0.1308552,-0.0372862,-0.0114309,-0.093913,-0.0303088,-0.0694442,-0
 .0567946,0.0252005,-0.0143768,-0.1308555,-0.0372853,-0.0114309,-0.0095
 28,0.0054881,-0.0596317,0.0637229,0.0103836,0.0134538,-0.1254091,0.033
 8179,-0.1160599,-0.0095284,-0.005488,0.0596318,-0.0637228,0.0103841,0.
 0134534,0.1254094,0.033817,-0.1160599,0.0218645,0.,-0.0000001,0.,0.016
 3591,-0.0397533,-0.0000003,-0.0989418,-0.1308109,0.0406703,-0.0000006,
 0.0000002,-0.0000006,-0.1240105,0.0670484,0.0000004,0.122982,0.0017289
 \Polar=65.5846908,-0.0000306,56.6733363,-0.0000021,-0.6203422,44.58482
 35\PG=C01 [X(C5H8)]\NImag=0\\0.86079187,0.10497640,0.60085521,-0.00261
 422,-0.03796523,0.15009917,-0.55962086,0.00424109,-0.00283563,0.860790
 45,-0.00423799,-0.10600209,0.00129230,-0.10497816,0.60085665,0.0028356
 4,0.00129228,-0.05824784,0.00261396,-0.03796524,0.15009917,-0.09888679
 ,0.03518154,-0.00316776,-0.02569200,0.03216647,-0.00608046,0.56200500,
 0.04786235,-0.18570143,0.01156413,0.02092040,-0.01042811,0.00390241,-0
 .05089964,0.43076175,-0.00439496,0.01117087,-0.07360208,-0.00255274,0.
 00224320,0.00869222,-0.01900329,0.00470624,0.56593950,-0.02569235,-0.0
 3216637,0.00608048,-0.09888737,-0.03518214,0.00316784,-0.03400576,0.00
 426386,0.00455576,0.56200569,-0.02092029,-0.01042775,0.00390237,-0.047
 86294,-0.18570087,0.01156411,-0.00426357,0.00728117,0.00412695,0.05089
 873,0.43076106,0.00255276,0.00224318,0.00869222,0.00439503,0.01117084,
 -0.07360208,-0.00455573,0.00412698,-0.00570817,0.01900333,0.00470612,0
 .56593950,0.00306837,-0.01176753,0.00309337,0.00306860,0.01176726,-0.0
 0309339,-0.13459845,-0.04760402,-0.01088630,-0.13459781,0.04760422,0.0
 1088622,0.40087257,-0.02104417,-0.03583803,-0.00292480,0.02104390,-0.0
 3583825,-0.00292477,-0.04435589,-0.10532015,-0.01195858,0.04435609,-0.
 10532078,-0.01195865,0.00000061,0.57735740,0.00257279,0.00496206,0.001
 10268,-0.00257275,0.00496208,0.00110268,-0.01538230,-0.01186013,-0.083
 21628,0.01538222,-0.01186023,-0.08321628,-0.00000010,-0.02838852,0.595
 22313,-0.15056424,-0.13104708,0.00791949,-0.00933348,-0.02810281,0.002
 15899,0.01029649,0.01062118,-0.00006196,-0.00451245,0.00072319,-0.0005
 4279,-0.00162211,0.00324937,-0.00058242,0.15447043,-0.13617687,-0.2498
 0466,0.01522230,0.00492662,0.00517996,0.00001003,-0.01642769,-0.010466
 46,-0.00019793,0.00142701,-0.00023075,0.00055660,0.00148294,-0.0032783
 4,0.00149852,0.14647633,0.25848953,0.00787696,0.01480454,-0.03940137,-
 0.00006719,0.00050749,0.00535043,0.00208044,0.00120569,0.00151271,0.00
 026495,0.00068289,0.01167490,-0.00014488,0.00017724,0.00163870,-0.0093
 7840,-0.01619149,0.02559307,-0.00933332,0.02810291,-0.00215899,-0.1505
 6241,0.13104640,-0.00791939,-0.00451247,-0.00072316,0.00054279,0.01029
 653,-0.01062132,0.00006196,-0.00162214,-0.00324939,0.00058244,0.000842
 30,-0.00072963,-0.00000652,0.15446843,-0.00492652,0.00517980,0.0000100
 5,0.13617618,-0.24980649,0.01522236,-0.00142698,-0.00023073,0.00055660
 ,0.01642755,-0.01046650,-0.00019793,-0.00148295,-0.00327830,0.00149852
 ,0.00072963,0.00040415,-0.00051731,-0.14647562,0.25849153,0.00006719,0
 .00050749,0.00535043,-0.00787686,0.01480460,-0.03940137,-0.00026494,0.
 00068289,0.01167490,-0.00208043,0.00120570,0.00151271,0.00014488,0.000
 17724,0.00163870,0.00000651,-0.00051731,-0.00596310,0.00937829,-0.0161
 9155,0.02559307,-0.00791455,0.00238395,0.00465730,-0.00014946,0.000893
 83,0.00048564,-0.18768817,0.03481536,0.12632388,-0.00252098,-0.0020750
 4,0.00049156,-0.01563886,0.00564024,0.01302305,0.00021089,0.00040161,-
 0.00027395,-0.00042409,0.00015514,-0.00071547,0.20660493,0.02396390,-0
 .00310623,-0.02176488,0.00124284,-0.00519522,0.00092819,0.03598956,-0.
 05751451,-0.03250663,-0.00153733,-0.00308387,-0.00128504,-0.01541451,0
 .00431934,0.01240832,-0.00094090,0.00051853,0.00041578,0.00105426,0.00
 035433,0.00205606,-0.04010596,0.06082503,-0.00501368,0.00119204,0.0042
 8252,-0.00034782,0.00011703,0.00034316,0.12880892,-0.03264399,-0.16004
 372,-0.00210276,-0.00053508,0.00067543,-0.00673381,0.00151970,0.003276
 26,0.00039092,-0.00055662,0.00008924,-0.00025451,0.00006661,-0.0003255
 7,-0.13626380,0.03645622,0.17110871,-0.00014948,-0.00089386,-0.0004856
 3,-0.00791473,-0.00238392,-0.00465745,-0.00252096,0.00207504,-0.000491
 57,-0.18768866,-0.03481447,-0.12632411,-0.01563879,-0.00564010,-0.0130
 2296,-0.00042410,-0.00015514,0.00071549,0.00021089,-0.00040160,0.00027
 396,-0.00059160,-0.00039828,-0.00010557,0.20660548,-0.00124287,-0.0051
 9521,0.00092819,-0.02396386,-0.00310605,-0.02176485,0.00153733,-0.0030
 8389,-0.00128504,-0.03598867,-0.05751403,-0.03250577,0.01541465,0.0043
 1928,0.01240841,-0.00105425,0.00035434,0.00205605,0.00094091,0.0005185
 3,0.00041578,0.00039829,0.00044784,0.00009639,0.04010496,0.06082448,0.
 00034782,0.00011703,0.00034316,0.00501369,0.00119201,0.00428252,0.0021
 0276,-0.00053510,0.00067543,-0.12880914,-0.03264311,-0.16004373,0.0067
 3382,0.00151965,0.00327626,0.00025452,0.00006661,-0.00032557,-0.000390
 92,-0.00055662,0.00008924,0.00010557,0.00009639,-0.00002050,0.13626405
 ,0.03645529,0.17110872,-0.00645881,0.00426321,-0.01019243,0.00015040,0
 .00167350,-0.00054022,-0.08088519,0.00851529,-0.08443639,-0.00096779,0
 .00006251,-0.00165728,-0.00645598,0.00237451,-0.02197064,-0.00000260,0
 .00022955,-0.00002923,-0.00027479,0.00021802,0.00119677,0.00894721,-0.
 00345583,0.02243436,-0.00073507,0.00016649,0.00053227,0.08819784,0.014
 75674,-0.00408288,0.02942800,-0.00015780,-0.00377534,0.00024020,0.0110
 6073,-0.04862116,0.03093399,-0.00032703,-0.00023892,0.00059521,-0.0066
 7109,0.00014886,-0.01979293,-0.00055660,-0.00012145,-0.00070229,0.0005
 2638,-0.00003109,-0.00250067,-0.00250009,0.00116166,-0.00596231,-0.000
 26159,0.00066679,0.00020700,-0.01247312,0.05551622,-0.00186430,0.00251
 036,0.00015609,0.00142674,0.00091924,0.00073113,-0.08432028,0.02648854
 ,-0.26475162,-0.00095773,-0.00047829,-0.00019186,0.00003648,-0.0005368
 1,-0.00284756,-0.00038547,0.00057979,-0.00020040,-0.00005160,0.0000715
 5,0.00004402,-0.00738046,0.00282478,-0.02111715,-0.00000319,-0.0000442
 5,-0.00009390,0.09478684,-0.03154594,0.28608842,0.00015039,-0.00167352
 ,0.00054022,-0.00645894,-0.00426320,0.01019263,-0.00096779,-0.00006250
 ,0.00165728,-0.08088533,-0.00851507,0.08443660,-0.00645595,-0.00237446
 ,0.02197050,-0.00027480,-0.00021802,-0.00119679,-0.00000259,-0.0002295
 5,0.00002922,-0.00073507,-0.00016648,-0.00053227,0.00894725,0.00345577
 ,-0.02243440,0.00007851,0.00000606,-0.00029028,0.08819801,0.00015777,-
 0.00377533,0.00024020,-0.01475672,-0.00408275,0.02942793,0.00032704,-0
 .00023892,0.00059520,-0.01106051,-0.04862103,0.03093341,0.00667114,0.0
 0014883,-0.01979308,-0.00052638,-0.00003109,-0.00250067,0.00055660,-0.
 00012145,-0.00070229,0.00026160,0.00066679,0.00020701,0.00250004,0.001
 16162,-0.00596216,-0.00000606,0.00007603,0.00012545,0.01247290,0.05551
 605,-0.00142674,0.00091925,0.00073113,0.00186432,0.00251035,0.00015609
 ,0.00095773,-0.00047829,-0.00019186,0.08432047,0.02648796,-0.26475162,
 -0.00003649,-0.00053681,-0.00284756,0.00005160,0.00007155,0.00004402,0
 .00038547,0.00057978,-0.00020040,0.00000319,-0.00004425,-0.00009390,0.
 00738048,0.00282473,-0.02111715,0.00029029,0.00012545,-0.00035265,-0.0
 9478706,-0.03154528,0.28608842,-0.00120908,0.00043847,-0.00048818,-0.0
 0120908,-0.00043846,0.00048818,-0.00358468,-0.00912571,-0.02646312,-0.
 00358461,0.00912570,0.02646300,-0.04334659,-0.00000011,-0.00000025,0.0
 0016610,-0.00020530,0.00032581,0.00016610,0.00020530,-0.00032580,0.001
 00819,0.00062147,-0.00046792,0.00100818,-0.00062147,0.00046792,-0.0030
 9289,-0.00413844,-0.00095039,-0.00309285,0.00413845,0.00095039,0.05696
 861,-0.00108727,0.00010058,0.00017114,0.00108727,0.00010058,0.00017114
 ,-0.00065167,-0.00504360,-0.01773137,0.00065166,-0.00504367,-0.0177315
 5,-0.00000011,-0.07475573,-0.07379816,0.00005469,-0.00026304,0.0002051
 5,-0.00005469,-0.00026304,0.00020515,0.00031560,0.00135915,0.00017881,
 -0.00031559,0.00135916,0.00017881,-0.00184096,-0.00170990,-0.00047622,
 0.00184097,-0.00170994,-0.00047622,0.00000007,0.07651976,0.00001545,-0
 .00012570,0.00014337,-0.00001545,-0.00012570,0.00014337,-0.00053692,-0
 .00013505,-0.00406298,0.00053692,-0.00013505,-0.00406298,-0.00000025,-
 0.07539971,-0.29109467,-0.00001162,-0.00014551,-0.00016511,0.00001162,
 -0.00014551,-0.00016511,-0.00033221,0.00027620,0.00167927,0.00033221,0
 .00027620,0.00167927,-0.00073492,-0.00089889,0.00125743,0.00073491,-0.
 00089890,0.00125743,0.00000028,0.08332593,0.31129445,-0.00418115,-0.00
 203920,-0.00034802,-0.00418112,0.00203921,0.00034802,0.00104077,-0.020
 65844,0.01521061,0.00104090,0.02065835,-0.01521055,-0.04703286,-0.0000
 0060,0.00000044,0.00074755,-0.00103141,-0.00016669,0.00074756,0.001031
 40,0.00016669,-0.00110843,-0.00085273,0.00018794,-0.00110842,0.0008527
 3,-0.00018795,0.00149917,0.00073586,-0.00004636,0.00149916,-0.00073586
 ,0.00004636,-0.00019740,0.00000003,-0.00000002,0.05123427,-0.00208117,
 -0.00220200,-0.00010378,0.00208119,-0.00220202,-0.00010378,0.00176275,
 -0.01139396,0.00934649,-0.00176284,-0.01139409,0.00934660,-0.00000060,
 -0.22266413,0.12775512,0.00037363,-0.00075073,-0.00014307,-0.00037364,
 -0.00075074,-0.00014307,-0.00058452,-0.00075285,-0.00013580,0.00058452
 ,-0.00075286,-0.00013580,0.00027288,0.00101118,-0.00043822,-0.00027289
 ,0.00101118,-0.00043822,0.00000003,0.00934968,-0.00586831,0.00000065,0
 .24149133,-0.00095472,-0.00162818,0.00035051,0.00095470,-0.00162819,0.
 00035051,-0.00063816,-0.00702434,0.00308194,0.00063811,-0.00702434,0.0
 0308194,0.00000045,0.13123482,-0.14403605,0.00018063,-0.00039654,0.000
 15247,-0.00018063,-0.00039654,0.00015247,-0.00012430,0.00013886,0.0001
 4623,0.00012430,0.00013886,0.00014623,0.00032056,-0.00012683,0.0012780
 5,-0.00032056,-0.00012682,0.00127805,0.00000009,0.02577739,-0.01790373
 ,-0.00000047,-0.13893816,0.15192136\\-0.00000119,0.00000280,-0.0000019
 9,0.00000119,0.00000281,-0.00000199,-0.00000136,-0.00000319,-0.0000003
 9,0.00000136,-0.00000319,-0.00000039,0.,0.00000119,0.00000376,0.000000
 55,-0.00000042,-0.00000307,-0.00000055,-0.00000041,-0.00000307,0.00000
 014,-0.00000058,0.00000064,-0.00000014,-0.00000058,0.00000064,0.000000
 07,0.00000200,0.00000028,-0.00000007,0.00000200,0.00000028,0.,-0.00000
 163,0.00000243,0.,-0.00000080,0.00000288\\\@


 THE PROBLEM WITH THE LADDER OF SUCCESS IS YOU CAN'T
 CLIMB IT WHILE YOU'RE TWIDDLING YOUR THUMBS.
 Job cpu time:       0 days  1 hours  2 minutes 22.2 seconds.
 File lengths (MBytes):  RWF=     48 Int=      0 D2E=      0 Chk=      4 Scr=      1
 Normal termination of Gaussian 09 at Fri Jul  9 19:28:32 2021.
