 Entering Gaussian System, Link 0=g09
 Initial command:
 /home/minenky/programs//g09/l1.exe "/local/scratch/minenky/m1_00_91-20-3_C10H8_wB97XD/Gau-223764.inp" -scrdir="/local/scratch/minenky/m1_00_91-20-3_C10H8_wB97XD/"
 Entering Link 1 = /home/minenky/programs//g09/l1.exe PID=    223765.
  
 Copyright (c) 1988,1990,1992,1993,1995,1998,2003,2009,2013,
            Gaussian, Inc.  All Rights Reserved.
  
 This is part of the Gaussian(R) 09 program.  It is based on
 the Gaussian(R) 03 system (copyright 2003, Gaussian, Inc.),
 the Gaussian(R) 98 system (copyright 1998, Gaussian, Inc.),
 the Gaussian(R) 94 system (copyright 1995, Gaussian, Inc.),
 the Gaussian 92(TM) system (copyright 1992, Gaussian, Inc.),
 the Gaussian 90(TM) system (copyright 1990, Gaussian, Inc.),
 the Gaussian 88(TM) system (copyright 1988, Gaussian, Inc.),
 the Gaussian 86(TM) system (copyright 1986, Carnegie Mellon
 University), and the Gaussian 82(TM) system (copyright 1983,
 Carnegie Mellon University). Gaussian is a federally registered
 trademark of Gaussian, Inc.
  
 This software contains proprietary and confidential information,
 including trade secrets, belonging to Gaussian, Inc.
  
 This software is provided under written license and may be
 used, copied, transmitted, or stored only in accord with that
 written license.
  
 The following legend is applicable only to US Government
 contracts under FAR:
  
                    RESTRICTED RIGHTS LEGEND
  
 Use, reproduction and disclosure by the US Government is
 subject to restrictions as set forth in subparagraphs (a)
 and (c) of the Commercial Computer Software - Restricted
 Rights clause in FAR 52.227-19.
  
 Gaussian, Inc.
 340 Quinnipiac St., Bldg. 40, Wallingford CT 06492
  
  
 ---------------------------------------------------------------
 Warning -- This program may not be used in any manner that
 competes with the business of Gaussian, Inc. or will provide
 assistance to any competitor of Gaussian, Inc.  The licensee
 of this program is prohibited from giving any competitor of
 Gaussian, Inc. access to this program.  By using this program,
 the user acknowledges that Gaussian, Inc. is engaged in the
 business of creating and licensing software in the field of
 computational chemistry and represents and warrants to the
 licensee that it is not a competitor of Gaussian, Inc. and that
 it will not use this program in any manner prohibited above.
 ---------------------------------------------------------------
  

 Cite this work as:
 Gaussian 09, Revision D.01,
 M. J. Frisch, G. W. Trucks, H. B. Schlegel, G. E. Scuseria, 
 M. A. Robb, J. R. Cheeseman, G. Scalmani, V. Barone, B. Mennucci, 
 G. A. Petersson, H. Nakatsuji, M. Caricato, X. Li, H. P. Hratchian, 
 A. F. Izmaylov, J. Bloino, G. Zheng, J. L. Sonnenberg, M. Hada, 
 M. Ehara, K. Toyota, R. Fukuda, J. Hasegawa, M. Ishida, T. Nakajima, 
 Y. Honda, O. Kitao, H. Nakai, T. Vreven, J. A. Montgomery, Jr., 
 J. E. Peralta, F. Ogliaro, M. Bearpark, J. J. Heyd, E. Brothers, 
 K. N. Kudin, V. N. Staroverov, T. Keith, R. Kobayashi, J. Normand, 
 K. Raghavachari, A. Rendell, J. C. Burant, S. S. Iyengar, J. Tomasi, 
 M. Cossi, N. Rega, J. M. Millam, M. Klene, J. E. Knox, J. B. Cross, 
 V. Bakken, C. Adamo, J. Jaramillo, R. Gomperts, R. E. Stratmann, 
 O. Yazyev, A. J. Austin, R. Cammi, C. Pomelli, J. W. Ochterski, 
 R. L. Martin, K. Morokuma, V. G. Zakrzewski, G. A. Voth, 
 P. Salvador, J. J. Dannenberg, S. Dapprich, A. D. Daniels, 
 O. Farkas, J. B. Foresman, J. V. Ortiz, J. Cioslowski, 
 and D. J. Fox, Gaussian, Inc., Wallingford CT, 2013.
 
 ******************************************
 Gaussian 09:  AM64L-G09RevD.01 24-Apr-2013
                 9-Jul-2021 
 ******************************************
 %Mem=32000MB
 %NProcShared=16
 Will use up to   16 processors via shared memory.
 %Chk=m1_00_91-20-3_C10H8_wB97XD
 ----------------------------------------------------------------------
 #P wB97XD/def2tzvp opt=(tight) freq integral(Grid=ultrafine) # SCF(Max
 Cycle=380) 5d 7f GFPrint
 ----------------------------------------------------------------------
 1/7=10,14=-1,18=20,19=15,26=4,38=1/1,3;
 2/9=110,12=2,17=6,18=5,40=1/2;
 3/5=44,7=101,8=11,11=2,16=1,24=100,25=1,30=1,71=1,74=-58,75=-5/1,2,3;
 4//1;
 5/5=2,7=380,38=5/2;
 6/7=2,8=2,9=2,10=2,28=1/1;
 7//1,2,3,16;
 1/7=10,14=-1,18=20,19=15,26=4/3(2);
 2/9=110/2;
 99//99;
 2/9=110/2;
 3/5=44,7=101,8=11,11=2,16=1,25=1,30=1,71=1,74=-58,75=-5/1,2,3;
 4/5=5,16=3,69=1/1;
 5/5=2,7=380,38=5/2;
 7//1,2,3,16;
 1/7=10,14=-1,18=20,19=15,26=4/3(-5);
 2/9=110/2;
 6/7=2,8=2,9=2,10=2,19=2,28=1/1;
 99/9=1/99;
 Leave Link    1 at Fri Jul  9 19:19:35 2021, MaxMem=  4194304000 cpu:         1.8
 (Enter /home/minenky/programs//g09/l101.exe)
 ---------------------------------------
 The PBEPBE optimization and frequencies
 ---------------------------------------
 Symbolic Z-matrix:
 Charge =  0 Multiplicity = 1
 C                     0.        0.        0.71364 
 C                     0.        0.       -0.71364 
 C                     0.        1.23951  -1.39667 
 C                     0.       -1.23951  -1.39667 
 C                     0.       -1.23951   1.39667 
 C                     0.        1.23951   1.39667 
 C                     0.        2.42257  -0.70567 
 C                     0.       -2.42257  -0.70567 
 C                     0.       -2.42257   0.70567 
 C                     0.        2.42257   0.70567 
 H                     0.        1.23696  -2.48002 
 H                     0.       -1.23696  -2.48002 
 H                     0.       -1.23696   2.48002 
 H                     0.        1.23696   2.48002 
 H                     0.        3.36369  -1.24031 
 H                     0.       -3.36369  -1.24031 
 H                     0.       -3.36369   1.24031 
 H                     0.        3.36369   1.24031 
 
 NAtoms=     18 NQM=       18 NQMF=       0 NMMI=      0 NMMIF=      0
                NMic=       0 NMicF=      0.
                    Isotopes and Nuclear Properties:
 (Nuclear quadrupole moments (NQMom) in fm**2, nuclear magnetic moments (NMagM)
  in nuclear magnetons)

  Atom         1           2           3           4           5           6           7           8           9          10
 IAtWgt=          12          12          12          12          12          12          12          12          12          12
 AtmWgt=  12.0000000  12.0000000  12.0000000  12.0000000  12.0000000  12.0000000  12.0000000  12.0000000  12.0000000  12.0000000
 NucSpn=           0           0           0           0           0           0           0           0           0           0
 AtZEff=   0.0000000   0.0000000   0.0000000   0.0000000   0.0000000   0.0000000   0.0000000   0.0000000   0.0000000   0.0000000
 NQMom=    0.0000000   0.0000000   0.0000000   0.0000000   0.0000000   0.0000000   0.0000000   0.0000000   0.0000000   0.0000000
 NMagM=    0.0000000   0.0000000   0.0000000   0.0000000   0.0000000   0.0000000   0.0000000   0.0000000   0.0000000   0.0000000
 AtZNuc=   6.0000000   6.0000000   6.0000000   6.0000000   6.0000000   6.0000000   6.0000000   6.0000000   6.0000000   6.0000000

  Atom        11          12          13          14          15          16          17          18
 IAtWgt=           1           1           1           1           1           1           1           1
 AtmWgt=   1.0078250   1.0078250   1.0078250   1.0078250   1.0078250   1.0078250   1.0078250   1.0078250
 NucSpn=           1           1           1           1           1           1           1           1
 AtZEff=   0.0000000   0.0000000   0.0000000   0.0000000   0.0000000   0.0000000   0.0000000   0.0000000
 NQMom=    0.0000000   0.0000000   0.0000000   0.0000000   0.0000000   0.0000000   0.0000000   0.0000000
 NMagM=    2.7928460   2.7928460   2.7928460   2.7928460   2.7928460   2.7928460   2.7928460   2.7928460
 AtZNuc=   1.0000000   1.0000000   1.0000000   1.0000000   1.0000000   1.0000000   1.0000000   1.0000000
 Leave Link  101 at Fri Jul  9 19:19:35 2021, MaxMem=  4194304000 cpu:         0.7
 (Enter /home/minenky/programs//g09/l103.exe)

 GradGradGradGradGradGradGradGradGradGradGradGradGradGradGradGradGradGrad
 Berny optimization.
 Initialization pass.
                           ----------------------------
                           !    Initial Parameters    !
                           ! (Angstroms and Degrees)  !
 --------------------------                            --------------------------
 ! Name  Definition              Value          Derivative Info.                !
 --------------------------------------------------------------------------------
 ! R1    R(1,2)                  1.4273         estimate D2E/DX2                !
 ! R2    R(1,5)                  1.4152         estimate D2E/DX2                !
 ! R3    R(1,6)                  1.4152         estimate D2E/DX2                !
 ! R4    R(2,3)                  1.4152         estimate D2E/DX2                !
 ! R5    R(2,4)                  1.4152         estimate D2E/DX2                !
 ! R6    R(3,7)                  1.3701         estimate D2E/DX2                !
 ! R7    R(3,11)                 1.0834         estimate D2E/DX2                !
 ! R8    R(4,8)                  1.3701         estimate D2E/DX2                !
 ! R9    R(4,12)                 1.0834         estimate D2E/DX2                !
 ! R10   R(5,9)                  1.3701         estimate D2E/DX2                !
 ! R11   R(5,13)                 1.0834         estimate D2E/DX2                !
 ! R12   R(6,10)                 1.3701         estimate D2E/DX2                !
 ! R13   R(6,14)                 1.0834         estimate D2E/DX2                !
 ! R14   R(7,10)                 1.4113         estimate D2E/DX2                !
 ! R15   R(7,15)                 1.0824         estimate D2E/DX2                !
 ! R16   R(8,9)                  1.4113         estimate D2E/DX2                !
 ! R17   R(8,16)                 1.0824         estimate D2E/DX2                !
 ! R18   R(9,17)                 1.0824         estimate D2E/DX2                !
 ! R19   R(10,18)                1.0824         estimate D2E/DX2                !
 ! A1    A(2,1,5)              118.8572         estimate D2E/DX2                !
 ! A2    A(2,1,6)              118.8572         estimate D2E/DX2                !
 ! A3    A(5,1,6)              122.2855         estimate D2E/DX2                !
 ! A4    A(1,2,3)              118.8572         estimate D2E/DX2                !
 ! A5    A(1,2,4)              118.8572         estimate D2E/DX2                !
 ! A6    A(3,2,4)              122.2855         estimate D2E/DX2                !
 ! A7    A(2,3,7)              120.8543         estimate D2E/DX2                !
 ! A8    A(2,3,11)             118.7223         estimate D2E/DX2                !
 ! A9    A(7,3,11)             120.4234         estimate D2E/DX2                !
 ! A10   A(2,4,8)              120.8543         estimate D2E/DX2                !
 ! A11   A(2,4,12)             118.7223         estimate D2E/DX2                !
 ! A12   A(8,4,12)             120.4234         estimate D2E/DX2                !
 ! A13   A(1,5,9)              120.8543         estimate D2E/DX2                !
 ! A14   A(1,5,13)             118.7223         estimate D2E/DX2                !
 ! A15   A(9,5,13)             120.4234         estimate D2E/DX2                !
 ! A16   A(1,6,10)             120.8543         estimate D2E/DX2                !
 ! A17   A(1,6,14)             118.7223         estimate D2E/DX2                !
 ! A18   A(10,6,14)            120.4234         estimate D2E/DX2                !
 ! A19   A(3,7,10)             120.2885         estimate D2E/DX2                !
 ! A20   A(3,7,15)             120.111          estimate D2E/DX2                !
 ! A21   A(10,7,15)            119.6005         estimate D2E/DX2                !
 ! A22   A(4,8,9)              120.2885         estimate D2E/DX2                !
 ! A23   A(4,8,16)             120.111          estimate D2E/DX2                !
 ! A24   A(9,8,16)             119.6005         estimate D2E/DX2                !
 ! A25   A(5,9,8)              120.2885         estimate D2E/DX2                !
 ! A26   A(5,9,17)             120.111          estimate D2E/DX2                !
 ! A27   A(8,9,17)             119.6005         estimate D2E/DX2                !
 ! A28   A(6,10,7)             120.2885         estimate D2E/DX2                !
 ! A29   A(6,10,18)            120.111          estimate D2E/DX2                !
 ! A30   A(7,10,18)            119.6005         estimate D2E/DX2                !
 ! D1    D(5,1,2,3)            180.0            estimate D2E/DX2                !
 ! D2    D(5,1,2,4)              0.0            estimate D2E/DX2                !
 ! D3    D(6,1,2,3)              0.0            estimate D2E/DX2                !
 ! D4    D(6,1,2,4)            180.0            estimate D2E/DX2                !
 ! D5    D(2,1,5,9)              0.0            estimate D2E/DX2                !
 ! D6    D(2,1,5,13)           180.0            estimate D2E/DX2                !
 ! D7    D(6,1,5,9)            180.0            estimate D2E/DX2                !
 ! D8    D(6,1,5,13)             0.0            estimate D2E/DX2                !
 ! D9    D(2,1,6,10)             0.0            estimate D2E/DX2                !
 ! D10   D(2,1,6,14)           180.0            estimate D2E/DX2                !
 ! D11   D(5,1,6,10)           180.0            estimate D2E/DX2                !
 ! D12   D(5,1,6,14)             0.0            estimate D2E/DX2                !
 ! D13   D(1,2,3,7)              0.0            estimate D2E/DX2                !
 ! D14   D(1,2,3,11)           180.0            estimate D2E/DX2                !
 ! D15   D(4,2,3,7)            180.0            estimate D2E/DX2                !
 ! D16   D(4,2,3,11)             0.0            estimate D2E/DX2                !
 ! D17   D(1,2,4,8)              0.0            estimate D2E/DX2                !
 ! D18   D(1,2,4,12)           180.0            estimate D2E/DX2                !
 ! D19   D(3,2,4,8)            180.0            estimate D2E/DX2                !
 ! D20   D(3,2,4,12)             0.0            estimate D2E/DX2                !
 ! D21   D(2,3,7,10)             0.0            estimate D2E/DX2                !
 ! D22   D(2,3,7,15)           180.0            estimate D2E/DX2                !
 ! D23   D(11,3,7,10)          180.0            estimate D2E/DX2                !
 ! D24   D(11,3,7,15)            0.0            estimate D2E/DX2                !
 ! D25   D(2,4,8,9)              0.0            estimate D2E/DX2                !
 ! D26   D(2,4,8,16)           180.0            estimate D2E/DX2                !
 ! D27   D(12,4,8,9)           180.0            estimate D2E/DX2                !
 ! D28   D(12,4,8,16)            0.0            estimate D2E/DX2                !
 ! D29   D(1,5,9,8)              0.0            estimate D2E/DX2                !
 ! D30   D(1,5,9,17)           180.0            estimate D2E/DX2                !
 ! D31   D(13,5,9,8)           180.0            estimate D2E/DX2                !
 ! D32   D(13,5,9,17)            0.0            estimate D2E/DX2                !
 ! D33   D(1,6,10,7)             0.0            estimate D2E/DX2                !
 ! D34   D(1,6,10,18)          180.0            estimate D2E/DX2                !
 ! D35   D(14,6,10,7)          180.0            estimate D2E/DX2                !
 ! D36   D(14,6,10,18)           0.0            estimate D2E/DX2                !
 ! D37   D(3,7,10,6)             0.0            estimate D2E/DX2                !
 ! D38   D(3,7,10,18)          180.0            estimate D2E/DX2                !
 ! D39   D(15,7,10,6)          180.0            estimate D2E/DX2                !
 ! D40   D(15,7,10,18)           0.0            estimate D2E/DX2                !
 ! D41   D(4,8,9,5)              0.0            estimate D2E/DX2                !
 ! D42   D(4,8,9,17)           180.0            estimate D2E/DX2                !
 ! D43   D(16,8,9,5)           180.0            estimate D2E/DX2                !
 ! D44   D(16,8,9,17)            0.0            estimate D2E/DX2                !
 --------------------------------------------------------------------------------
 Trust Radius=3.00D-01 FncErr=1.00D-07 GrdErr=1.00D-06
 Number of steps in this run=    103 maximum allowed number of steps=    108.
 GradGradGradGradGradGradGradGradGradGradGradGradGradGradGradGradGradGrad

 Leave Link  103 at Fri Jul  9 19:19:36 2021, MaxMem=  4194304000 cpu:         0.0
 (Enter /home/minenky/programs//g09/l202.exe)
                          Input orientation:                          
 ---------------------------------------------------------------------
 Center     Atomic      Atomic             Coordinates (Angstroms)
 Number     Number       Type             X           Y           Z
 ---------------------------------------------------------------------
      1          6           0        0.000000    0.000000    0.713635
      2          6           0        0.000000    0.000000   -0.713635
      3          6           0        0.000000    1.239507   -1.396673
      4          6           0        0.000000   -1.239507   -1.396673
      5          6           0        0.000000   -1.239507    1.396673
      6          6           0        0.000000    1.239507    1.396673
      7          6           0        0.000000    2.422570   -0.705666
      8          6           0        0.000000   -2.422570   -0.705666
      9          6           0        0.000000   -2.422570    0.705666
     10          6           0        0.000000    2.422570    0.705666
     11          1           0        0.000000    1.236956   -2.480020
     12          1           0        0.000000   -1.236956   -2.480020
     13          1           0        0.000000   -1.236956    2.480020
     14          1           0        0.000000    1.236956    2.480020
     15          1           0        0.000000    3.363690   -1.240308
     16          1           0        0.000000   -3.363690   -1.240308
     17          1           0        0.000000   -3.363690    1.240308
     18          1           0        0.000000    3.363690    1.240308
 ---------------------------------------------------------------------
                    Distance matrix (angstroms):
                    1          2          3          4          5
     1  C    0.000000
     2  C    1.427270   0.000000
     3  C    2.447402   1.415245   0.000000
     4  C    2.447402   1.415245   2.479014   0.000000
     5  C    1.415245   2.447402   3.734741   2.793346   0.000000
     6  C    1.415245   2.447402   2.793346   3.734741   2.479014
     7  C    2.807715   2.422583   1.370083   3.726701   4.222634
     8  C    2.807715   2.422583   3.726701   1.370083   2.412357
     9  C    2.422583   2.807715   4.222634   2.412357   1.370083
    10  C    2.422583   2.807715   2.412357   4.222634   3.726701
    11  H    3.424835   2.156427   1.083350   2.703056   4.600176
    12  H    3.424835   2.156427   2.703056   1.083350   3.876694
    13  H    2.156427   3.424835   4.600176   3.876694   1.083350
    14  H    2.156427   3.424835   3.876694   4.600176   2.703056
    15  H    3.890026   3.404673   2.129930   4.605852   5.305006
    16  H    3.890026   3.404673   4.605852   2.129930   3.386122
    17  H    3.404673   3.890026   5.305006   3.386122   2.129930
    18  H    3.404673   3.890026   3.386122   5.305006   4.605852
                    6          7          8          9         10
     6  C    0.000000
     7  C    2.412357   0.000000
     8  C    4.222634   4.845140   0.000000
     9  C    3.726701   5.046508   1.411332   0.000000
    10  C    1.370083   1.411332   5.046508   4.845140   0.000000
    11  H    3.876694   2.134013   4.066997   4.851879   3.399158
    12  H    4.600176   4.066997   2.134013   3.399158   4.851879
    13  H    2.703056   4.851879   3.399158   2.134013   4.066997
    14  H    1.083350   3.399158   4.851879   4.066997   2.134013
    15  H    3.386122   1.082381   5.810908   6.104721   2.161602
    16  H    5.305006   5.810908   1.082381   2.161602   6.104721
    17  H    4.605852   6.104721   2.161602   1.082381   5.810908
    18  H    2.129930   2.161602   6.104721   5.810908   1.082381
                   11         12         13         14         15
    11  H    0.000000
    12  H    2.473912   0.000000
    13  H    5.542764   4.960040   0.000000
    14  H    4.960040   5.542764   2.473912   0.000000
    15  H    2.461683   4.764749   5.916653   4.285305   0.000000
    16  H    4.764749   2.461683   4.285305   5.916653   6.727380
    17  H    5.916653   4.285305   2.461683   4.764749   7.170153
    18  H    4.285305   5.916653   4.764749   2.461683   2.480616
                   16         17         18
    16  H    0.000000
    17  H    2.480616   0.000000
    18  H    7.170153   6.727380   0.000000
 Stoichiometry    C10H8
 Framework group  D2H[C2"(C.C),SG(C8H8)]
 Deg. of freedom     9
 Full point group                 D2H     NOp   8
 Largest Abelian subgroup         D2H     NOp   8
 Largest concise Abelian subgroup D2      NOp   4
                         Standard orientation:                         
 ---------------------------------------------------------------------
 Center     Atomic      Atomic             Coordinates (Angstroms)
 Number     Number       Type             X           Y           Z
 ---------------------------------------------------------------------
      1          6           0        0.000000    0.000000    0.713635
      2          6           0        0.000000    0.000000   -0.713635
      3          6           0        0.000000    1.239507   -1.396673
      4          6           0        0.000000   -1.239507   -1.396673
      5          6           0        0.000000   -1.239507    1.396673
      6          6           0        0.000000    1.239507    1.396673
      7          6           0        0.000000    2.422570   -0.705666
      8          6           0        0.000000   -2.422570   -0.705666
      9          6           0        0.000000   -2.422570    0.705666
     10          6           0        0.000000    2.422570    0.705666
     11          1           0        0.000000    1.236956   -2.480020
     12          1           0        0.000000   -1.236956   -2.480020
     13          1           0        0.000000   -1.236956    2.480020
     14          1           0        0.000000    1.236956    2.480020
     15          1           0        0.000000    3.363690   -1.240308
     16          1           0        0.000000   -3.363690   -1.240308
     17          1           0        0.000000   -3.363690    1.240308
     18          1           0        0.000000    3.363690    1.240308
 ---------------------------------------------------------------------
 Rotational constants (GHZ):      3.1437959      1.2410143      0.8897752
 Leave Link  202 at Fri Jul  9 19:19:36 2021, MaxMem=  4194304000 cpu:         0.9
 (Enter /home/minenky/programs//g09/l301.exe)
 Standard basis: def2TZVP (5D, 7F)
 ======================================================================================================
                                       Pseudopotential Parameters
 ======================================================================================================
  Center     Atomic      Valence      Angular      Power
  Number     Number     Electrons     Momentum     of R      Exponent        Coefficient   SO-Coeffient
 ======================================================================================================
    1          6
                                   No pseudopotential on this center.
    2          6
                                   No pseudopotential on this center.
    3          6
                                   No pseudopotential on this center.
    4          6
                                   No pseudopotential on this center.
    5          6
                                   No pseudopotential on this center.
    6          6
                                   No pseudopotential on this center.
    7          6
                                   No pseudopotential on this center.
    8          6
                                   No pseudopotential on this center.
    9          6
                                   No pseudopotential on this center.
   10          6
                                   No pseudopotential on this center.
   11          1
                                   No pseudopotential on this center.
   12          1
                                   No pseudopotential on this center.
   13          1
                                   No pseudopotential on this center.
   14          1
                                   No pseudopotential on this center.
   15          1
                                   No pseudopotential on this center.
   16          1
                                   No pseudopotential on this center.
   17          1
                                   No pseudopotential on this center.
   18          1
                                   No pseudopotential on this center.
 ======================================================================================================
 Ernie: Thresh=  0.10000D-02 Tol=  0.10000D-05 Strict=F.
 AO basis set (Overlap normalization):
 Atom C1       Shell     1 S   6     bf    1 -     1          0.000000000000          0.000000000000          1.348574708842
      0.1357534968D+05  0.6064550360D-03
      0.2035233368D+04  0.4697908888D-02
      0.4632256236D+03  0.2433247765D-01
      0.1312001960D+03  0.9739996831D-01
      0.4285301589D+02  0.3019558425D+00
      0.1558418577D+02  0.6623360914D+00
 Atom C1       Shell     2 S   2     bf    2 -     2          0.000000000000          0.000000000000          1.348574708842
      0.6206713851D+01  0.6559530854D+00
      0.2576489653D+01  0.3758563329D+00
 Atom C1       Shell     3 S   1     bf    3 -     3          0.000000000000          0.000000000000          1.348574708842
      0.5769633942D+00  0.1000000000D+01
 Atom C1       Shell     4 S   1     bf    4 -     4          0.000000000000          0.000000000000          1.348574708842
      0.2297283136D+00  0.1000000000D+01
 Atom C1       Shell     5 S   1     bf    5 -     5          0.000000000000          0.000000000000          1.348574708842
      0.9516444003D-01  0.1000000000D+01
 Atom C1       Shell     6 P   4     bf    6 -     8          0.000000000000          0.000000000000          1.348574708842
      0.3469723224D+02  0.1132722000D-01
      0.7958262283D+01  0.7616965920D-01
      0.2378082688D+01  0.3019225220D+00
      0.8143320818D+00  0.7278502735D+00
 Atom C1       Shell     7 P   1     bf    9 -    11          0.000000000000          0.000000000000          1.348574708842
      0.2888754725D+00  0.1000000000D+01
 Atom C1       Shell     8 P   1     bf   12 -    14          0.000000000000          0.000000000000          1.348574708842
      0.1005682367D+00  0.1000000000D+01
 Atom C1       Shell     9 D   1     bf   15 -    19          0.000000000000          0.000000000000          1.348574708842
      0.1097000000D+01  0.1000000000D+01
 Atom C1       Shell    10 D   1     bf   20 -    24          0.000000000000          0.000000000000          1.348574708842
      0.3180000000D+00  0.1000000000D+01
 Atom C1       Shell    11 F   1     bf   25 -    31          0.000000000000          0.000000000000          1.348574708842
      0.7610000000D+00  0.1000000000D+01
 Atom C2       Shell    12 S   6     bf   32 -    32          0.000000000000          0.000000000000         -1.348574708842
      0.1357534968D+05  0.6064550360D-03
      0.2035233368D+04  0.4697908888D-02
      0.4632256236D+03  0.2433247765D-01
      0.1312001960D+03  0.9739996831D-01
      0.4285301589D+02  0.3019558425D+00
      0.1558418577D+02  0.6623360914D+00
 Atom C2       Shell    13 S   2     bf   33 -    33          0.000000000000          0.000000000000         -1.348574708842
      0.6206713851D+01  0.6559530854D+00
      0.2576489653D+01  0.3758563329D+00
 Atom C2       Shell    14 S   1     bf   34 -    34          0.000000000000          0.000000000000         -1.348574708842
      0.5769633942D+00  0.1000000000D+01
 Atom C2       Shell    15 S   1     bf   35 -    35          0.000000000000          0.000000000000         -1.348574708842
      0.2297283136D+00  0.1000000000D+01
 Atom C2       Shell    16 S   1     bf   36 -    36          0.000000000000          0.000000000000         -1.348574708842
      0.9516444003D-01  0.1000000000D+01
 Atom C2       Shell    17 P   4     bf   37 -    39          0.000000000000          0.000000000000         -1.348574708842
      0.3469723224D+02  0.1132722000D-01
      0.7958262283D+01  0.7616965920D-01
      0.2378082688D+01  0.3019225220D+00
      0.8143320818D+00  0.7278502735D+00
 Atom C2       Shell    18 P   1     bf   40 -    42          0.000000000000          0.000000000000         -1.348574708842
      0.2888754725D+00  0.1000000000D+01
 Atom C2       Shell    19 P   1     bf   43 -    45          0.000000000000          0.000000000000         -1.348574708842
      0.1005682367D+00  0.1000000000D+01
 Atom C2       Shell    20 D   1     bf   46 -    50          0.000000000000          0.000000000000         -1.348574708842
      0.1097000000D+01  0.1000000000D+01
 Atom C2       Shell    21 D   1     bf   51 -    55          0.000000000000          0.000000000000         -1.348574708842
      0.3180000000D+00  0.1000000000D+01
 Atom C2       Shell    22 F   1     bf   56 -    62          0.000000000000          0.000000000000         -1.348574708842
      0.7610000000D+00  0.1000000000D+01
 Atom C3       Shell    23 S   6     bf   63 -    63          0.000000000000          2.342328769795         -2.639329467196
      0.1357534968D+05  0.6064550360D-03
      0.2035233368D+04  0.4697908888D-02
      0.4632256236D+03  0.2433247765D-01
      0.1312001960D+03  0.9739996831D-01
      0.4285301589D+02  0.3019558425D+00
      0.1558418577D+02  0.6623360914D+00
 Atom C3       Shell    24 S   2     bf   64 -    64          0.000000000000          2.342328769795         -2.639329467196
      0.6206713851D+01  0.6559530854D+00
      0.2576489653D+01  0.3758563329D+00
 Atom C3       Shell    25 S   1     bf   65 -    65          0.000000000000          2.342328769795         -2.639329467196
      0.5769633942D+00  0.1000000000D+01
 Atom C3       Shell    26 S   1     bf   66 -    66          0.000000000000          2.342328769795         -2.639329467196
      0.2297283136D+00  0.1000000000D+01
 Atom C3       Shell    27 S   1     bf   67 -    67          0.000000000000          2.342328769795         -2.639329467196
      0.9516444003D-01  0.1000000000D+01
 Atom C3       Shell    28 P   4     bf   68 -    70          0.000000000000          2.342328769795         -2.639329467196
      0.3469723224D+02  0.1132722000D-01
      0.7958262283D+01  0.7616965920D-01
      0.2378082688D+01  0.3019225220D+00
      0.8143320818D+00  0.7278502735D+00
 Atom C3       Shell    29 P   1     bf   71 -    73          0.000000000000          2.342328769795         -2.639329467196
      0.2888754725D+00  0.1000000000D+01
 Atom C3       Shell    30 P   1     bf   74 -    76          0.000000000000          2.342328769795         -2.639329467196
      0.1005682367D+00  0.1000000000D+01
 Atom C3       Shell    31 D   1     bf   77 -    81          0.000000000000          2.342328769795         -2.639329467196
      0.1097000000D+01  0.1000000000D+01
 Atom C3       Shell    32 D   1     bf   82 -    86          0.000000000000          2.342328769795         -2.639329467196
      0.3180000000D+00  0.1000000000D+01
 Atom C3       Shell    33 F   1     bf   87 -    93          0.000000000000          2.342328769795         -2.639329467196
      0.7610000000D+00  0.1000000000D+01
 Atom C4       Shell    34 S   6     bf   94 -    94          0.000000000000         -2.342328769795         -2.639329467196
      0.1357534968D+05  0.6064550360D-03
      0.2035233368D+04  0.4697908888D-02
      0.4632256236D+03  0.2433247765D-01
      0.1312001960D+03  0.9739996831D-01
      0.4285301589D+02  0.3019558425D+00
      0.1558418577D+02  0.6623360914D+00
 Atom C4       Shell    35 S   2     bf   95 -    95          0.000000000000         -2.342328769795         -2.639329467196
      0.6206713851D+01  0.6559530854D+00
      0.2576489653D+01  0.3758563329D+00
 Atom C4       Shell    36 S   1     bf   96 -    96          0.000000000000         -2.342328769795         -2.639329467196
      0.5769633942D+00  0.1000000000D+01
 Atom C4       Shell    37 S   1     bf   97 -    97          0.000000000000         -2.342328769795         -2.639329467196
      0.2297283136D+00  0.1000000000D+01
 Atom C4       Shell    38 S   1     bf   98 -    98          0.000000000000         -2.342328769795         -2.639329467196
      0.9516444003D-01  0.1000000000D+01
 Atom C4       Shell    39 P   4     bf   99 -   101          0.000000000000         -2.342328769795         -2.639329467196
      0.3469723224D+02  0.1132722000D-01
      0.7958262283D+01  0.7616965920D-01
      0.2378082688D+01  0.3019225220D+00
      0.8143320818D+00  0.7278502735D+00
 Atom C4       Shell    40 P   1     bf  102 -   104          0.000000000000         -2.342328769795         -2.639329467196
      0.2888754725D+00  0.1000000000D+01
 Atom C4       Shell    41 P   1     bf  105 -   107          0.000000000000         -2.342328769795         -2.639329467196
      0.1005682367D+00  0.1000000000D+01
 Atom C4       Shell    42 D   1     bf  108 -   112          0.000000000000         -2.342328769795         -2.639329467196
      0.1097000000D+01  0.1000000000D+01
 Atom C4       Shell    43 D   1     bf  113 -   117          0.000000000000         -2.342328769795         -2.639329467196
      0.3180000000D+00  0.1000000000D+01
 Atom C4       Shell    44 F   1     bf  118 -   124          0.000000000000         -2.342328769795         -2.639329467196
      0.7610000000D+00  0.1000000000D+01
 Atom C5       Shell    45 S   6     bf  125 -   125          0.000000000000         -2.342328769795          2.639329467196
      0.1357534968D+05  0.6064550360D-03
      0.2035233368D+04  0.4697908888D-02
      0.4632256236D+03  0.2433247765D-01
      0.1312001960D+03  0.9739996831D-01
      0.4285301589D+02  0.3019558425D+00
      0.1558418577D+02  0.6623360914D+00
 Atom C5       Shell    46 S   2     bf  126 -   126          0.000000000000         -2.342328769795          2.639329467196
      0.6206713851D+01  0.6559530854D+00
      0.2576489653D+01  0.3758563329D+00
 Atom C5       Shell    47 S   1     bf  127 -   127          0.000000000000         -2.342328769795          2.639329467196
      0.5769633942D+00  0.1000000000D+01
 Atom C5       Shell    48 S   1     bf  128 -   128          0.000000000000         -2.342328769795          2.639329467196
      0.2297283136D+00  0.1000000000D+01
 Atom C5       Shell    49 S   1     bf  129 -   129          0.000000000000         -2.342328769795          2.639329467196
      0.9516444003D-01  0.1000000000D+01
 Atom C5       Shell    50 P   4     bf  130 -   132          0.000000000000         -2.342328769795          2.639329467196
      0.3469723224D+02  0.1132722000D-01
      0.7958262283D+01  0.7616965920D-01
      0.2378082688D+01  0.3019225220D+00
      0.8143320818D+00  0.7278502735D+00
 Atom C5       Shell    51 P   1     bf  133 -   135          0.000000000000         -2.342328769795          2.639329467196
      0.2888754725D+00  0.1000000000D+01
 Atom C5       Shell    52 P   1     bf  136 -   138          0.000000000000         -2.342328769795          2.639329467196
      0.1005682367D+00  0.1000000000D+01
 Atom C5       Shell    53 D   1     bf  139 -   143          0.000000000000         -2.342328769795          2.639329467196
      0.1097000000D+01  0.1000000000D+01
 Atom C5       Shell    54 D   1     bf  144 -   148          0.000000000000         -2.342328769795          2.639329467196
      0.3180000000D+00  0.1000000000D+01
 Atom C5       Shell    55 F   1     bf  149 -   155          0.000000000000         -2.342328769795          2.639329467196
      0.7610000000D+00  0.1000000000D+01
 Atom C6       Shell    56 S   6     bf  156 -   156          0.000000000000          2.342328769795          2.639329467196
      0.1357534968D+05  0.6064550360D-03
      0.2035233368D+04  0.4697908888D-02
      0.4632256236D+03  0.2433247765D-01
      0.1312001960D+03  0.9739996831D-01
      0.4285301589D+02  0.3019558425D+00
      0.1558418577D+02  0.6623360914D+00
 Atom C6       Shell    57 S   2     bf  157 -   157          0.000000000000          2.342328769795          2.639329467196
      0.6206713851D+01  0.6559530854D+00
      0.2576489653D+01  0.3758563329D+00
 Atom C6       Shell    58 S   1     bf  158 -   158          0.000000000000          2.342328769795          2.639329467196
      0.5769633942D+00  0.1000000000D+01
 Atom C6       Shell    59 S   1     bf  159 -   159          0.000000000000          2.342328769795          2.639329467196
      0.2297283136D+00  0.1000000000D+01
 Atom C6       Shell    60 S   1     bf  160 -   160          0.000000000000          2.342328769795          2.639329467196
      0.9516444003D-01  0.1000000000D+01
 Atom C6       Shell    61 P   4     bf  161 -   163          0.000000000000          2.342328769795          2.639329467196
      0.3469723224D+02  0.1132722000D-01
      0.7958262283D+01  0.7616965920D-01
      0.2378082688D+01  0.3019225220D+00
      0.8143320818D+00  0.7278502735D+00
 Atom C6       Shell    62 P   1     bf  164 -   166          0.000000000000          2.342328769795          2.639329467196
      0.2888754725D+00  0.1000000000D+01
 Atom C6       Shell    63 P   1     bf  167 -   169          0.000000000000          2.342328769795          2.639329467196
      0.1005682367D+00  0.1000000000D+01
 Atom C6       Shell    64 D   1     bf  170 -   174          0.000000000000          2.342328769795          2.639329467196
      0.1097000000D+01  0.1000000000D+01
 Atom C6       Shell    65 D   1     bf  175 -   179          0.000000000000          2.342328769795          2.639329467196
      0.3180000000D+00  0.1000000000D+01
 Atom C6       Shell    66 F   1     bf  180 -   186          0.000000000000          2.342328769795          2.639329467196
      0.7610000000D+00  0.1000000000D+01
 Atom C7       Shell    67 S   6     bf  187 -   187          0.000000000000          4.577993837745         -1.333515481289
      0.1357534968D+05  0.6064550360D-03
      0.2035233368D+04  0.4697908888D-02
      0.4632256236D+03  0.2433247765D-01
      0.1312001960D+03  0.9739996831D-01
      0.4285301589D+02  0.3019558425D+00
      0.1558418577D+02  0.6623360914D+00
 Atom C7       Shell    68 S   2     bf  188 -   188          0.000000000000          4.577993837745         -1.333515481289
      0.6206713851D+01  0.6559530854D+00
      0.2576489653D+01  0.3758563329D+00
 Atom C7       Shell    69 S   1     bf  189 -   189          0.000000000000          4.577993837745         -1.333515481289
      0.5769633942D+00  0.1000000000D+01
 Atom C7       Shell    70 S   1     bf  190 -   190          0.000000000000          4.577993837745         -1.333515481289
      0.2297283136D+00  0.1000000000D+01
 Atom C7       Shell    71 S   1     bf  191 -   191          0.000000000000          4.577993837745         -1.333515481289
      0.9516444003D-01  0.1000000000D+01
 Atom C7       Shell    72 P   4     bf  192 -   194          0.000000000000          4.577993837745         -1.333515481289
      0.3469723224D+02  0.1132722000D-01
      0.7958262283D+01  0.7616965920D-01
      0.2378082688D+01  0.3019225220D+00
      0.8143320818D+00  0.7278502735D+00
 Atom C7       Shell    73 P   1     bf  195 -   197          0.000000000000          4.577993837745         -1.333515481289
      0.2888754725D+00  0.1000000000D+01
 Atom C7       Shell    74 P   1     bf  198 -   200          0.000000000000          4.577993837745         -1.333515481289
      0.1005682367D+00  0.1000000000D+01
 Atom C7       Shell    75 D   1     bf  201 -   205          0.000000000000          4.577993837745         -1.333515481289
      0.1097000000D+01  0.1000000000D+01
 Atom C7       Shell    76 D   1     bf  206 -   210          0.000000000000          4.577993837745         -1.333515481289
      0.3180000000D+00  0.1000000000D+01
 Atom C7       Shell    77 F   1     bf  211 -   217          0.000000000000          4.577993837745         -1.333515481289
      0.7610000000D+00  0.1000000000D+01
 Atom C8       Shell    78 S   6     bf  218 -   218          0.000000000000         -4.577993837745         -1.333515481289
      0.1357534968D+05  0.6064550360D-03
      0.2035233368D+04  0.4697908888D-02
      0.4632256236D+03  0.2433247765D-01
      0.1312001960D+03  0.9739996831D-01
      0.4285301589D+02  0.3019558425D+00
      0.1558418577D+02  0.6623360914D+00
 Atom C8       Shell    79 S   2     bf  219 -   219          0.000000000000         -4.577993837745         -1.333515481289
      0.6206713851D+01  0.6559530854D+00
      0.2576489653D+01  0.3758563329D+00
 Atom C8       Shell    80 S   1     bf  220 -   220          0.000000000000         -4.577993837745         -1.333515481289
      0.5769633942D+00  0.1000000000D+01
 Atom C8       Shell    81 S   1     bf  221 -   221          0.000000000000         -4.577993837745         -1.333515481289
      0.2297283136D+00  0.1000000000D+01
 Atom C8       Shell    82 S   1     bf  222 -   222          0.000000000000         -4.577993837745         -1.333515481289
      0.9516444003D-01  0.1000000000D+01
 Atom C8       Shell    83 P   4     bf  223 -   225          0.000000000000         -4.577993837745         -1.333515481289
      0.3469723224D+02  0.1132722000D-01
      0.7958262283D+01  0.7616965920D-01
      0.2378082688D+01  0.3019225220D+00
      0.8143320818D+00  0.7278502735D+00
 Atom C8       Shell    84 P   1     bf  226 -   228          0.000000000000         -4.577993837745         -1.333515481289
      0.2888754725D+00  0.1000000000D+01
 Atom C8       Shell    85 P   1     bf  229 -   231          0.000000000000         -4.577993837745         -1.333515481289
      0.1005682367D+00  0.1000000000D+01
 Atom C8       Shell    86 D   1     bf  232 -   236          0.000000000000         -4.577993837745         -1.333515481289
      0.1097000000D+01  0.1000000000D+01
 Atom C8       Shell    87 D   1     bf  237 -   241          0.000000000000         -4.577993837745         -1.333515481289
      0.3180000000D+00  0.1000000000D+01
 Atom C8       Shell    88 F   1     bf  242 -   248          0.000000000000         -4.577993837745         -1.333515481289
      0.7610000000D+00  0.1000000000D+01
 Atom C9       Shell    89 S   6     bf  249 -   249          0.000000000000         -4.577993837745          1.333515481289
      0.1357534968D+05  0.6064550360D-03
      0.2035233368D+04  0.4697908888D-02
      0.4632256236D+03  0.2433247765D-01
      0.1312001960D+03  0.9739996831D-01
      0.4285301589D+02  0.3019558425D+00
      0.1558418577D+02  0.6623360914D+00
 Atom C9       Shell    90 S   2     bf  250 -   250          0.000000000000         -4.577993837745          1.333515481289
      0.6206713851D+01  0.6559530854D+00
      0.2576489653D+01  0.3758563329D+00
 Atom C9       Shell    91 S   1     bf  251 -   251          0.000000000000         -4.577993837745          1.333515481289
      0.5769633942D+00  0.1000000000D+01
 Atom C9       Shell    92 S   1     bf  252 -   252          0.000000000000         -4.577993837745          1.333515481289
      0.2297283136D+00  0.1000000000D+01
 Atom C9       Shell    93 S   1     bf  253 -   253          0.000000000000         -4.577993837745          1.333515481289
      0.9516444003D-01  0.1000000000D+01
 Atom C9       Shell    94 P   4     bf  254 -   256          0.000000000000         -4.577993837745          1.333515481289
      0.3469723224D+02  0.1132722000D-01
      0.7958262283D+01  0.7616965920D-01
      0.2378082688D+01  0.3019225220D+00
      0.8143320818D+00  0.7278502735D+00
 Atom C9       Shell    95 P   1     bf  257 -   259          0.000000000000         -4.577993837745          1.333515481289
      0.2888754725D+00  0.1000000000D+01
 Atom C9       Shell    96 P   1     bf  260 -   262          0.000000000000         -4.577993837745          1.333515481289
      0.1005682367D+00  0.1000000000D+01
 Atom C9       Shell    97 D   1     bf  263 -   267          0.000000000000         -4.577993837745          1.333515481289
      0.1097000000D+01  0.1000000000D+01
 Atom C9       Shell    98 D   1     bf  268 -   272          0.000000000000         -4.577993837745          1.333515481289
      0.3180000000D+00  0.1000000000D+01
 Atom C9       Shell    99 F   1     bf  273 -   279          0.000000000000         -4.577993837745          1.333515481289
      0.7610000000D+00  0.1000000000D+01
 Atom C10      Shell   100 S   6     bf  280 -   280          0.000000000000          4.577993837745          1.333515481289
      0.1357534968D+05  0.6064550360D-03
      0.2035233368D+04  0.4697908888D-02
      0.4632256236D+03  0.2433247765D-01
      0.1312001960D+03  0.9739996831D-01
      0.4285301589D+02  0.3019558425D+00
      0.1558418577D+02  0.6623360914D+00
 Atom C10      Shell   101 S   2     bf  281 -   281          0.000000000000          4.577993837745          1.333515481289
      0.6206713851D+01  0.6559530854D+00
      0.2576489653D+01  0.3758563329D+00
 Atom C10      Shell   102 S   1     bf  282 -   282          0.000000000000          4.577993837745          1.333515481289
      0.5769633942D+00  0.1000000000D+01
 Atom C10      Shell   103 S   1     bf  283 -   283          0.000000000000          4.577993837745          1.333515481289
      0.2297283136D+00  0.1000000000D+01
 Atom C10      Shell   104 S   1     bf  284 -   284          0.000000000000          4.577993837745          1.333515481289
      0.9516444003D-01  0.1000000000D+01
 Atom C10      Shell   105 P   4     bf  285 -   287          0.000000000000          4.577993837745          1.333515481289
      0.3469723224D+02  0.1132722000D-01
      0.7958262283D+01  0.7616965920D-01
      0.2378082688D+01  0.3019225220D+00
      0.8143320818D+00  0.7278502735D+00
 Atom C10      Shell   106 P   1     bf  288 -   290          0.000000000000          4.577993837745          1.333515481289
      0.2888754725D+00  0.1000000000D+01
 Atom C10      Shell   107 P   1     bf  291 -   293          0.000000000000          4.577993837745          1.333515481289
      0.1005682367D+00  0.1000000000D+01
 Atom C10      Shell   108 D   1     bf  294 -   298          0.000000000000          4.577993837745          1.333515481289
      0.1097000000D+01  0.1000000000D+01
 Atom C10      Shell   109 D   1     bf  299 -   303          0.000000000000          4.577993837745          1.333515481289
      0.3180000000D+00  0.1000000000D+01
 Atom C10      Shell   110 F   1     bf  304 -   310          0.000000000000          4.577993837745          1.333515481289
      0.7610000000D+00  0.1000000000D+01
 Atom H11      Shell   111 S   3     bf  311 -   311          0.000000000000          2.337508078430         -4.686558604079
      0.3406134100D+02  0.2543930721D-01
      0.5123574600D+01  0.1900859489D+00
      0.1164662600D+01  0.8524411301D+00
 Atom H11      Shell   112 S   1     bf  312 -   312          0.000000000000          2.337508078430         -4.686558604079
      0.3272304100D+00  0.1000000000D+01
 Atom H11      Shell   113 S   1     bf  313 -   313          0.000000000000          2.337508078430         -4.686558604079
      0.1030724100D+00  0.1000000000D+01
 Atom H11      Shell   114 P   1     bf  314 -   316          0.000000000000          2.337508078430         -4.686558604079
      0.8000000000D+00  0.1000000000D+01
 Atom H12      Shell   115 S   3     bf  317 -   317          0.000000000000         -2.337508078430         -4.686558604079
      0.3406134100D+02  0.2543930721D-01
      0.5123574600D+01  0.1900859489D+00
      0.1164662600D+01  0.8524411301D+00
 Atom H12      Shell   116 S   1     bf  318 -   318          0.000000000000         -2.337508078430         -4.686558604079
      0.3272304100D+00  0.1000000000D+01
 Atom H12      Shell   117 S   1     bf  319 -   319          0.000000000000         -2.337508078430         -4.686558604079
      0.1030724100D+00  0.1000000000D+01
 Atom H12      Shell   118 P   1     bf  320 -   322          0.000000000000         -2.337508078430         -4.686558604079
      0.8000000000D+00  0.1000000000D+01
 Atom H13      Shell   119 S   3     bf  323 -   323          0.000000000000         -2.337508078430          4.686558604079
      0.3406134100D+02  0.2543930721D-01
      0.5123574600D+01  0.1900859489D+00
      0.1164662600D+01  0.8524411301D+00
 Atom H13      Shell   120 S   1     bf  324 -   324          0.000000000000         -2.337508078430          4.686558604079
      0.3272304100D+00  0.1000000000D+01
 Atom H13      Shell   121 S   1     bf  325 -   325          0.000000000000         -2.337508078430          4.686558604079
      0.1030724100D+00  0.1000000000D+01
 Atom H13      Shell   122 P   1     bf  326 -   328          0.000000000000         -2.337508078430          4.686558604079
      0.8000000000D+00  0.1000000000D+01
 Atom H14      Shell   123 S   3     bf  329 -   329          0.000000000000          2.337508078430          4.686558604079
      0.3406134100D+02  0.2543930721D-01
      0.5123574600D+01  0.1900859489D+00
      0.1164662600D+01  0.8524411301D+00
 Atom H14      Shell   124 S   1     bf  330 -   330          0.000000000000          2.337508078430          4.686558604079
      0.3272304100D+00  0.1000000000D+01
 Atom H14      Shell   125 S   1     bf  331 -   331          0.000000000000          2.337508078430          4.686558604079
      0.1030724100D+00  0.1000000000D+01
 Atom H14      Shell   126 P   1     bf  332 -   334          0.000000000000          2.337508078430          4.686558604079
      0.8000000000D+00  0.1000000000D+01
 Atom H15      Shell   127 S   3     bf  335 -   335          0.000000000000          6.356452895926         -2.343842440427
      0.3406134100D+02  0.2543930721D-01
      0.5123574600D+01  0.1900859489D+00
      0.1164662600D+01  0.8524411301D+00
 Atom H15      Shell   128 S   1     bf  336 -   336          0.000000000000          6.356452895926         -2.343842440427
      0.3272304100D+00  0.1000000000D+01
 Atom H15      Shell   129 S   1     bf  337 -   337          0.000000000000          6.356452895926         -2.343842440427
      0.1030724100D+00  0.1000000000D+01
 Atom H15      Shell   130 P   1     bf  338 -   340          0.000000000000          6.356452895926         -2.343842440427
      0.8000000000D+00  0.1000000000D+01
 Atom H16      Shell   131 S   3     bf  341 -   341          0.000000000000         -6.356452895926         -2.343842440427
      0.3406134100D+02  0.2543930721D-01
      0.5123574600D+01  0.1900859489D+00
      0.1164662600D+01  0.8524411301D+00
 Atom H16      Shell   132 S   1     bf  342 -   342          0.000000000000         -6.356452895926         -2.343842440427
      0.3272304100D+00  0.1000000000D+01
 Atom H16      Shell   133 S   1     bf  343 -   343          0.000000000000         -6.356452895926         -2.343842440427
      0.1030724100D+00  0.1000000000D+01
 Atom H16      Shell   134 P   1     bf  344 -   346          0.000000000000         -6.356452895926         -2.343842440427
      0.8000000000D+00  0.1000000000D+01
 Atom H17      Shell   135 S   3     bf  347 -   347          0.000000000000         -6.356452895926          2.343842440427
      0.3406134100D+02  0.2543930721D-01
      0.5123574600D+01  0.1900859489D+00
      0.1164662600D+01  0.8524411301D+00
 Atom H17      Shell   136 S   1     bf  348 -   348          0.000000000000         -6.356452895926          2.343842440427
      0.3272304100D+00  0.1000000000D+01
 Atom H17      Shell   137 S   1     bf  349 -   349          0.000000000000         -6.356452895926          2.343842440427
      0.1030724100D+00  0.1000000000D+01
 Atom H17      Shell   138 P   1     bf  350 -   352          0.000000000000         -6.356452895926          2.343842440427
      0.8000000000D+00  0.1000000000D+01
 Atom H18      Shell   139 S   3     bf  353 -   353          0.000000000000          6.356452895926          2.343842440427
      0.3406134100D+02  0.2543930721D-01
      0.5123574600D+01  0.1900859489D+00
      0.1164662600D+01  0.8524411301D+00
 Atom H18      Shell   140 S   1     bf  354 -   354          0.000000000000          6.356452895926          2.343842440427
      0.3272304100D+00  0.1000000000D+01
 Atom H18      Shell   141 S   1     bf  355 -   355          0.000000000000          6.356452895926          2.343842440427
      0.1030724100D+00  0.1000000000D+01
 Atom H18      Shell   142 P   1     bf  356 -   358          0.000000000000          6.356452895926          2.343842440427
      0.8000000000D+00  0.1000000000D+01
 There are    77 symmetry adapted cartesian basis functions of AG  symmetry.
 There are    27 symmetry adapted cartesian basis functions of B1G symmetry.
 There are    32 symmetry adapted cartesian basis functions of B2G symmetry.
 There are    68 symmetry adapted cartesian basis functions of B3G symmetry.
 There are    27 symmetry adapted cartesian basis functions of AU  symmetry.
 There are    77 symmetry adapted cartesian basis functions of B1U symmetry.
 There are    68 symmetry adapted cartesian basis functions of B2U symmetry.
 There are    32 symmetry adapted cartesian basis functions of B3U symmetry.
 There are    66 symmetry adapted basis functions of AG  symmetry.
 There are    25 symmetry adapted basis functions of B1G symmetry.
 There are    29 symmetry adapted basis functions of B2G symmetry.
 There are    59 symmetry adapted basis functions of B3G symmetry.
 There are    25 symmetry adapted basis functions of AU  symmetry.
 There are    66 symmetry adapted basis functions of B1U symmetry.
 There are    59 symmetry adapted basis functions of B2U symmetry.
 There are    29 symmetry adapted basis functions of B3U symmetry.
   358 basis functions,   574 primitive gaussians,   408 cartesian basis functions
    34 alpha electrons       34 beta electrons
       nuclear repulsion energy       459.1802025075 Hartrees.
 IExCor= 4639 DFT=T Ex+Corr=wB97XD ExCW=0 ScaHFX=  1.000000
 ScaDFX=  1.000000  1.000000  1.000000  1.000000 ScalE2=  1.000000  1.000000
 IRadAn=      5 IRanWt=     -1 IRanGd=            0 ICorTp=0 IEmpDi=121
  HFx wShort=  0.000000 wLong=  0.200000 cFull=  0.222036 cShort=  0.000000 cLong=  0.777964
  DFx wShort=  0.000000 wLong=  0.200000 cFull=  0.000000 cShort=  0.000000 cLong=  1.000000
 NAtoms=   18 NActive=   18 NUniq=    5 SFac= 4.00D+00 NAtFMM=   60 NAOKFM=F Big=F
 Integral buffers will be    131072 words long.
 Raffenetti 2 integral format.
 Two-electron integral symmetry is turned on.
 R6Disp:  Grimme-D2 Dispersion energy=       -0.0091205356 Hartrees.
 Nuclear repulsion after empirical dispersion term =      459.1710819719 Hartrees.
 Leave Link  301 at Fri Jul  9 19:19:36 2021, MaxMem=  4194304000 cpu:         0.2
 (Enter /home/minenky/programs//g09/l302.exe)
 NPDir=0 NMtPBC=     1 NCelOv=     1 NCel=       1 NClECP=     1 NCelD=      1
         NCelK=      1 NCelE2=     1 NClLst=     1 CellRange=     0.0.
 One-electron integrals computed using PRISM.
 One-electron integral symmetry used in STVInt
   8 Symmetry operations used in ECPInt.
 ECPInt:  NShTT=   10153 NPrTT=   31120 LenC2=    9872 LenP2D=   23938.
 LDataN:  DoStor=T MaxTD1= 6 Len=  172
 NBasis=   358 RedAO= T EigKep=  4.96D-06  NBF=    66    25    29    59    25    66    59    29
 NBsUse=   358 1.00D-06 EigRej= -1.00D+00 NBFU=    66    25    29    59    25    66    59    29
 Precomputing XC quadrature grid using
 IXCGrd= 4 IRadAn=           5 IRanWt=          -1 IRanGd=           0 AccXCQ= 0.00D+00.
 Generated NRdTot=       0 NPtTot=           0 NUsed=           0 NTot=          32
 NSgBfM=   407   407   407   407   407 MxSgAt=    18 MxSgA2=    18.
 Leave Link  302 at Fri Jul  9 19:20:00 2021, MaxMem=  4194304000 cpu:       294.6
 (Enter /home/minenky/programs//g09/l303.exe)
 DipDrv:  MaxL=1.
 Leave Link  303 at Fri Jul  9 19:20:00 2021, MaxMem=  4194304000 cpu:         4.7
 (Enter /home/minenky/programs//g09/l401.exe)
 ExpMin= 9.52D-02 ExpMax= 1.36D+04 ExpMxC= 4.63D+02 IAcc=3 IRadAn=         5 AccDes= 0.00D+00
 Harris functional with IExCor= 4639 and IRadAn=       5 diagonalized for initial guess.
 HarFok:  IExCor= 4639 AccDes= 0.00D+00 IRadAn=         5 IDoV= 1 UseB2=F ITyADJ=14
 ICtDFT=  3500011 ScaDFX=  1.000000  1.000000  1.000000  1.000000
 FoFCou: FMM=F IPFlag=           0 FMFlag=      100000 FMFlg1=           0
         NFxFlg=           0 DoJE=T BraDBF=F KetDBF=T FulRan=T
         wScrn=  0.000000 ICntrl=     500 IOpCl=  0 I1Cent=   200000004 NGrid=           0
         NMat0=    1 NMatS0=      1 NMatT0=    0 NMatD0=    1 NMtDS0=    0 NMtDT0=    0
 Petite list used in FoFCou.
 Harris En= -368.189762803913    
 JPrj=0 DoOrth=F DoCkMO=F.
 Initial guess orbital symmetries:
       Occupied  (B2U) (AG) (B1U) (B3G) (B1U) (B2U) (B3G) (AG)
                 (AG) (B1U) (AG) (B2U) (B1U) (AG) (B3G) (B2U) (B1U)
                 (AG) (B2U) (AG) (B3G) (AG) (B1U) (B2U) (B3G) (B1U)
                 (B3U) (B2U) (B3G) (B1G) (AG) (B2G) (B3U) (AU)
       Virtual   (B1G) (B2G) (B3U) (AG) (B2U) (AU) (B1U) (AG) (B3G)
                 (B1U) (B2U) (AG) (B2G) (B3G) (B2U) (B1U) (AG)
                 (B3U) (B1U) (B2U) (B1G) (AG) (B2G) (B3G) (B1U)
                 (AG) (B3G) (B3U) (AG) (AU) (B2U) (B2U) (B3U) (B1U)
                 (B2G) (AG) (B1G) (B2U) (B1U) (B1U) (B3G) (B2U)
                 (B3G) (AU) (AG) (AG) (B1G) (B1U) (B3G) (B2G) (B1U)
                 (B2U) (B3G) (AG) (B3G) (B2U) (B1U) (B3U) (B2U)
                 (AG) (B1U) (B3G) (B3U) (B1U) (AG) (B3G) (B1U)
                 (B1G) (B1U) (B3G) (B2U) (B2G) (AU) (B2U) (AG)
                 (B1G) (AG) (B2U) (B3G) (AG) (B3U) (AU) (B3G) (B1U)
                 (AG) (B2U) (B2U) (B1U) (B3U) (B2G) (AG) (B1U)
                 (B3G) (B2G) (AG) (AU) (B1G) (B3G) (B2U) (B1G)
                 (AG) (B2U) (B1U) (B3U) (B3G) (B1U) (B2G) (AG)
                 (B2U) (AU) (B1U) (B3G) (B3U) (AG) (B1U) (B3G)
                 (B1G) (B2U) (B2G) (AG) (B1U) (AU) (B2U) (B3U)
                 (B3G) (AG) (B3G) (AU) (B2U) (B1G) (B2G) (B1U)
                 (AG) (B3U) (B1U) (B3G) (B2G) (B1U) (B2U) (B1G)
                 (AU) (AG) (B3U) (B2G) (AU) (B2U) (B1U) (AG) (B3U)
                 (B2G) (B3G) (B1G) (AG) (B2U) (AG) (B3G) (B2U)
                 (B1U) (B3G) (B2U) (B3G) (AG) (B1U) (B2G) (B2U)
                 (B3U) (B1U) (AU) (AG) (AG) (B1G) (B2U) (B3G) (B1G)
                 (AG) (B1U) (B2U) (B2U) (B3G) (B3U) (B3G) (AG)
                 (B2G) (B1U) (AU) (B1G) (AG) (B3U) (B1U) (B1U)
                 (B2U) (B2G) (B3G) (B3U) (B1G) (AG) (B2U) (B1U)
                 (B3U) (AU) (AU) (B3G) (AG) (B2U) (B1U) (B3G) (B1G)
                 (B1U) (B2G) (AG) (B3U) (B3G) (B3U) (B2U) (B1G)
                 (AG) (B2G) (B1U) (B2U) (B3G) (B1G) (B2G) (B3U)
                 (AU) (AG) (B2U) (B1U) (AU) (AG) (B3G) (B3U) (B2U)
                 (B1G) (AG) (B1U) (B2G) (AG) (B2U) (B3G) (B3G)
                 (B1U) (AU) (B2U) (B2G) (B1G) (AU) (B1U) (B1G)
                 (B3U) (B2G) (B1U) (B3G) (B2U) (AG) (B3G) (AU)
                 (B1U) (AG) (B3G) (B3U) (B1U) (B2U) (AU) (B2G)
                 (AG) (B2U) (B1U) (B3G) (AG) (B3G) (B2U) (AG) (B1U)
                 (B3U) (B2G) (B3G) (B1G) (AU) (B3G) (B1U) (AG)
                 (B1G) (B2G) (B2U) (B3U) (AG) (B2U) (AU) (B3G)
                 (B1U) (B2G) (B2U) (B1U) (B2U) (AG) (AG) (AU) (B2G)
                 (B1U) (B3G) (B2U) (B1U) (AG) (B1U) (B3G) (B3G)
                 (AG) (B1U) (B3G) (B2U) (B1U) (B3G) (B1U) (B3G)
                 (AG) (B2U) (B3G) (B2U) (B1U) (AG) (AG) (B3G) (B1U)
                 (B1U)
 The electronic state of the initial guess is 1-AG.
 Leave Link  401 at Fri Jul  9 19:20:07 2021, MaxMem=  4194304000 cpu:        79.1
 (Enter /home/minenky/programs//g09/l502.exe)
 Closed shell SCF:
 Using DIIS extrapolation, IDIIS=  1040.
 Integral symmetry usage will be decided dynamically.
 IVT=      658826 IEndB=      658826 NGot=  4194304000 MDV=  4193957207
 LenX=  4193957207 LenY=  4193790302
 Requested convergence on RMS density matrix=1.00D-08 within 380 cycles.
 Requested convergence on MAX density matrix=1.00D-06.
 Requested convergence on             energy=1.00D-06.
 No special actions if energy rises.
 Fock matrices will be formed incrementally for  20 cycles.
 Integral accuracy reduced to 1.0D-05 until final iterations.

 Cycle   1  Pass 0  IDiag  1:
 FoFJK:  IHMeth= 1 ICntrl=       0 DoSepK=T KAlg= 0 I1Cent=   0 FoldK=F
 IRaf=         1 NMat=   1 IRICut=       1 DoRegI=T DoRafI=F ISym2E= 1.
 FoFCou: FMM=F IPFlag=           0 FMFlag=      100000 FMFlg1=           0
         NFxFlg=           0 DoJE=T BraDBF=F KetDBF=F FulRan=T
         wScrn=  0.000000 ICntrl=     500 IOpCl=  0 I1Cent=           0 NGrid=           0
         NMat0=    1 NMatS0=      1 NMatT0=    0 NMatD0=    1 NMtDS0=    0 NMtDT0=    0
 Petite list used in FoFCou.
 E= -385.793972956443    
 DIIS: error= 5.18D-02 at cycle   1 NSaved=   1.
 NSaved= 1 IEnMin= 1 EnMin= -385.793972956443     IErMin= 1 ErrMin= 5.18D-02
 ErrMax= 5.18D-02  0.00D+00 EMaxC= 1.00D-01 BMatC= 8.19D-01 BMatP= 8.19D-01
 IDIUse=3 WtCom= 4.82D-01 WtEn= 5.18D-01
 Coeff-Com:  0.100D+01
 Coeff-En:   0.100D+01
 Coeff:      0.100D+01
 Gap=     0.307 Goal=   None    Shift=    0.000
 GapD=    0.307 DampG=1.000 DampE=0.500 DampFc=0.5000 IDamp=-1.
 Damping current iteration by 5.00D-01
 RMSDP=1.88D-03 MaxDP=8.27D-02              OVMax= 4.05D-02

 Cycle   2  Pass 0  IDiag  1:
 RMSU=  8.76D-04    CP:  9.60D-01
 E= -385.840903167127     Delta-E=       -0.046930210683 Rises=F Damp=T
 DIIS: error= 2.52D-02 at cycle   2 NSaved=   2.
 NSaved= 2 IEnMin= 2 EnMin= -385.840903167127     IErMin= 2 ErrMin= 2.52D-02
 ErrMax= 2.52D-02  0.00D+00 EMaxC= 1.00D-01 BMatC= 1.84D-01 BMatP= 8.19D-01
 IDIUse=3 WtCom= 7.48D-01 WtEn= 2.52D-01
 Coeff-Com: -0.882D+00 0.188D+01
 Coeff-En:   0.000D+00 0.100D+01
 Coeff:     -0.659D+00 0.166D+01
 Gap=     0.311 Goal=   None    Shift=    0.000
 RMSDP=9.50D-04 MaxDP=4.58D-02 DE=-4.69D-02 OVMax= 2.25D-02

 Cycle   3  Pass 0  IDiag  1:
 RMSU=  4.83D-04    CP:  9.27D-01  1.88D+00
 E= -385.884487378974     Delta-E=       -0.043584211847 Rises=F Damp=F
 DIIS: error= 2.44D-03 at cycle   3 NSaved=   3.
 NSaved= 3 IEnMin= 3 EnMin= -385.884487378974     IErMin= 3 ErrMin= 2.44D-03
 ErrMax= 2.44D-03  0.00D+00 EMaxC= 1.00D-01 BMatC= 1.68D-03 BMatP= 1.84D-01
 IDIUse=3 WtCom= 9.76D-01 WtEn= 2.44D-02
 Coeff-Com: -0.299D+00 0.643D+00 0.657D+00
 Coeff-En:   0.000D+00 0.000D+00 0.100D+01
 Coeff:     -0.292D+00 0.627D+00 0.665D+00
 Gap=     0.310 Goal=   None    Shift=    0.000
 RMSDP=1.70D-04 MaxDP=3.84D-03 DE=-4.36D-02 OVMax= 9.41D-03

 Cycle   4  Pass 0  IDiag  1:
 RMSU=  1.56D-04    CP:  9.27D-01  1.91D+00  1.13D+00
 E= -385.885954947403     Delta-E=       -0.001467568429 Rises=F Damp=F
 DIIS: error= 9.51D-04 at cycle   4 NSaved=   4.
 NSaved= 4 IEnMin= 4 EnMin= -385.885954947403     IErMin= 4 ErrMin= 9.51D-04
 ErrMax= 9.51D-04  0.00D+00 EMaxC= 1.00D-01 BMatC= 5.80D-05 BMatP= 1.68D-03
 IDIUse=3 WtCom= 9.90D-01 WtEn= 9.51D-03
 Coeff-Com: -0.741D-01 0.160D+00 0.211D+00 0.703D+00
 Coeff-En:   0.000D+00 0.000D+00 0.000D+00 0.100D+01
 Coeff:     -0.734D-01 0.158D+00 0.209D+00 0.706D+00
 Gap=     0.310 Goal=   None    Shift=    0.000
 RMSDP=8.10D-05 MaxDP=2.57D-03 DE=-1.47D-03 OVMax= 3.63D-03

 Cycle   5  Pass 0  IDiag  1:
 RMSU=  5.57D-05    CP:  9.29D-01  1.89D+00  1.23D+00  1.12D+00
 E= -385.886002890030     Delta-E=       -0.000047942626 Rises=F Damp=F
 DIIS: error= 3.96D-04 at cycle   5 NSaved=   5.
 NSaved= 5 IEnMin= 5 EnMin= -385.886002890030     IErMin= 5 ErrMin= 3.96D-04
 ErrMax= 3.96D-04  0.00D+00 EMaxC= 1.00D-01 BMatC= 1.55D-05 BMatP= 5.80D-05
 IDIUse=3 WtCom= 9.96D-01 WtEn= 3.96D-03
 Coeff-Com:  0.286D-01-0.615D-01-0.441D-01 0.341D+00 0.736D+00
 Coeff-En:   0.000D+00 0.000D+00 0.000D+00 0.140D+00 0.860D+00
 Coeff:      0.285D-01-0.613D-01-0.439D-01 0.340D+00 0.737D+00
 Gap=     0.310 Goal=   None    Shift=    0.000
 RMSDP=3.87D-05 MaxDP=9.17D-04 DE=-4.79D-05 OVMax= 2.00D-03

 Cycle   6  Pass 0  IDiag  1:
 RMSU=  2.56D-05    CP:  9.30D-01  1.89D+00  1.27D+00  1.14D+00  1.39D+00
 E= -385.886018721193     Delta-E=       -0.000015831163 Rises=F Damp=F
 DIIS: error= 9.13D-05 at cycle   6 NSaved=   6.
 NSaved= 6 IEnMin= 6 EnMin= -385.886018721193     IErMin= 6 ErrMin= 9.13D-05
 ErrMax= 9.13D-05  0.00D+00 EMaxC= 1.00D-01 BMatC= 2.19D-07 BMatP= 1.55D-05
 IDIUse=1 WtCom= 1.00D+00 WtEn= 0.00D+00
 Coeff-Com:  0.410D-02-0.880D-02-0.891D-02 0.183D-02 0.472D-01 0.965D+00
 Coeff:      0.410D-02-0.880D-02-0.891D-02 0.183D-02 0.472D-01 0.965D+00
 Gap=     0.310 Goal=   None    Shift=    0.000
 RMSDP=1.06D-04 MaxDP=3.59D-03 DE=-1.58D-05 OVMax= 4.93D-04

 Cycle   7  Pass 0  IDiag  1:
 RMSU=  3.75D-05    CP:  9.27D-01  1.90D+00  1.15D+00  7.20D-01  9.48D-01
                    CP:  2.27D+00
 E= -385.886018497786     Delta-E=        0.000000223407 Rises=F Damp=F
 DIIS: error= 3.39D-05 at cycle   7 NSaved=   7.
 NSaved= 7 IEnMin= 6 EnMin= -385.886018721193     IErMin= 7 ErrMin= 3.39D-05
 ErrMax= 3.39D-05  0.00D+00 EMaxC= 1.00D-01 BMatC= 1.20D-07 BMatP= 2.19D-07
 IDIUse=1 WtCom= 1.00D+00 WtEn= 0.00D+00
 Coeff-Com: -0.164D-02 0.353D-02 0.130D-02-0.391D-01-0.633D-01 0.441D+00
 Coeff-Com:  0.659D+00
 Coeff:     -0.164D-02 0.353D-02 0.130D-02-0.391D-01-0.633D-01 0.441D+00
 Coeff:      0.659D+00
 Gap=     0.310 Goal=   None    Shift=    0.000
 RMSDP=8.32D-05 MaxDP=2.30D-03 DE= 2.23D-07 OVMax= 2.25D-04

 Cycle   8  Pass 0  IDiag  1:
 RMSU=  2.55D-05    CP:  9.26D-01  1.91D+00  1.08D+00  3.62D-01  7.50D-01
                    CP:  3.00D+00  1.89D+00
 E= -385.886019765696     Delta-E=       -0.000001267910 Rises=F Damp=F
 DIIS: error= 3.79D-05 at cycle   8 NSaved=   8.
 NSaved= 8 IEnMin= 8 EnMin= -385.886019765696     IErMin= 7 ErrMin= 3.39D-05
 ErrMax= 3.79D-05  0.00D+00 EMaxC= 1.00D-01 BMatC= 9.30D-08 BMatP= 1.20D-07
 IDIUse=1 WtCom= 1.00D+00 WtEn= 0.00D+00
 Coeff-Com: -0.631D-03 0.136D-02-0.590D-04-0.242D-01-0.346D-01 0.343D+00
 Coeff-Com:  0.412D+00 0.302D+00
 Coeff:     -0.631D-03 0.136D-02-0.590D-04-0.242D-01-0.346D-01 0.343D+00
 Coeff:      0.412D+00 0.302D+00
 Gap=     0.310 Goal=   None    Shift=    0.000
 RMSDP=3.07D-05 MaxDP=6.59D-04 DE=-1.27D-06 OVMax= 2.02D-05

 Cycle   9  Pass 0  IDiag  1:
 RMSU=  8.27D-06    CP:  9.26D-01  1.90D+00  1.07D+00  2.39D-01  7.30D-01
                    CP:  3.00D+00  2.25D+00  1.67D+00
 E= -385.886020207862     Delta-E=       -0.000000442166 Rises=F Damp=F
 DIIS: error= 3.18D-05 at cycle   9 NSaved=   9.
 NSaved= 9 IEnMin= 9 EnMin= -385.886020207862     IErMin= 9 ErrMin= 3.18D-05
 ErrMax= 3.18D-05  0.00D+00 EMaxC= 1.00D-01 BMatC= 9.64D-08 BMatP= 9.30D-08
 IDIUse=1 WtCom= 1.00D+00 WtEn= 0.00D+00
 Coeff-Com: -0.137D-02 0.294D-02 0.779D-03-0.385D-01-0.609D-01 0.460D+00
 Coeff-Com:  0.461D+00-0.880D+00 0.106D+01
 Coeff:     -0.137D-02 0.294D-02 0.779D-03-0.385D-01-0.609D-01 0.460D+00
 Coeff:      0.461D+00-0.880D+00 0.106D+01
 Gap=     0.310 Goal=   None    Shift=    0.000
 RMSDP=7.73D-05 MaxDP=2.88D-03 DE=-4.42D-07 OVMax= 4.05D-05

 Cycle  10  Pass 0  IDiag  1:
 RMSU=  2.69D-05    CP:  9.27D-01  1.89D+00  1.16D+00  4.81D-01  1.18D+00
                    CP:  2.89D+00  1.57D+00  2.09D+00  2.06D-01
 E= -385.886019681027     Delta-E=        0.000000526835 Rises=F Damp=F
 DIIS: error= 3.05D-05 at cycle  10 NSaved=  10.
 NSaved=10 IEnMin= 9 EnMin= -385.886020207862     IErMin=10 ErrMin= 3.05D-05
 ErrMax= 3.05D-05  0.00D+00 EMaxC= 1.00D-01 BMatC= 5.22D-08 BMatP= 9.30D-08
 IDIUse=1 WtCom= 1.00D+00 WtEn= 0.00D+00
 Coeff-Com: -0.224D-02 0.481D-02 0.245D-02-0.431D-01-0.763D-01 0.343D+00
 Coeff-Com:  0.393D+00-0.145D+01 0.107D+01 0.764D+00
 Coeff:     -0.224D-02 0.481D-02 0.245D-02-0.431D-01-0.763D-01 0.343D+00
 Coeff:      0.393D+00-0.145D+01 0.107D+01 0.764D+00
 Gap=     0.310 Goal=   None    Shift=    0.000
 RMSDP=3.25D-05 MaxDP=7.36D-04 DE= 5.27D-07 OVMax= 6.08D-05

 Cycle  11  Pass 0  IDiag  1:
 RMSU=  7.08D-06    CP:  9.28D-01  1.88D+00  1.19D+00  4.41D-01  1.27D+00
                    CP:  3.00D+00  1.72D+00  2.69D+00  1.64D+00  1.54D+00
 E= -385.886018795978     Delta-E=        0.000000885049 Rises=F Damp=F
 DIIS: error= 2.04D-05 at cycle  11 NSaved=  11.
 NSaved=11 IEnMin= 9 EnMin= -385.886020207862     IErMin=11 ErrMin= 2.04D-05
 ErrMax= 2.04D-05  0.00D+00 EMaxC= 1.00D-01 BMatC= 2.91D-08 BMatP= 5.22D-08
 IDIUse=1 WtCom= 1.00D+00 WtEn= 0.00D+00
 Coeff-Com: -0.761D-03 0.164D-02 0.894D-03-0.124D-01-0.224D-01 0.521D-01
 Coeff-Com:  0.224D+00 0.131D+00-0.696D+00 0.188D+00 0.113D+01
 Coeff:     -0.761D-03 0.164D-02 0.894D-03-0.124D-01-0.224D-01 0.521D-01
 Coeff:      0.224D+00 0.131D+00-0.696D+00 0.188D+00 0.113D+01
 Gap=     0.310 Goal=   None    Shift=    0.000
 RMSDP=5.18D-05 MaxDP=1.74D-03 DE= 8.85D-07 OVMax= 5.10D-05

 Problem detected with inexpensive integrals.
 Switching to full accuracy and repeating last cycle.
 Cycle  12  Pass 1  IDiag  1:
 E= -385.886122253032     Delta-E=       -0.000103457054 Rises=F Damp=F
 DIIS: error= 5.97D-04 at cycle   1 NSaved=   1.
 NSaved= 1 IEnMin= 1 EnMin= -385.886122253032     IErMin= 1 ErrMin= 5.97D-04
 ErrMax= 5.97D-04  0.00D+00 EMaxC= 1.00D-01 BMatC= 2.54D-05 BMatP= 2.54D-05
 IDIUse=3 WtCom= 9.94D-01 WtEn= 5.97D-03
 Coeff-Com:  0.100D+01
 Coeff-En:   0.100D+01
 Coeff:      0.100D+01
 Gap=     0.310 Goal=   None    Shift=    0.000
 RMSDP=7.67D-04 MaxDP=2.00D-02 DE=-1.03D-04 OVMax= 4.37D-04

 Cycle  13  Pass 1  IDiag  1:
 RMSU=  7.60D-04    CP:  9.87D-01
 E= -385.886131105066     Delta-E=       -0.000008852034 Rises=F Damp=F
 DIIS: error= 1.45D-05 at cycle   2 NSaved=   2.
 NSaved= 2 IEnMin= 2 EnMin= -385.886131105066     IErMin= 2 ErrMin= 1.45D-05
 ErrMax= 1.45D-05  0.00D+00 EMaxC= 1.00D-01 BMatC= 2.25D-08 BMatP= 2.54D-05
 IDIUse=1 WtCom= 1.00D+00 WtEn= 0.00D+00
 Coeff-Com: -0.211D-01 0.102D+01
 Coeff:     -0.211D-01 0.102D+01
 Gap=     0.310 Goal=   None    Shift=    0.000
 RMSDP=4.98D-05 MaxDP=1.38D-03 DE=-8.85D-06 OVMax= 5.30D-05

 Cycle  14  Pass 1  IDiag  1:
 RMSU=  1.24D-05    CP:  9.86D-01  1.06D+00
 E= -385.886131129887     Delta-E=       -0.000000024821 Rises=F Damp=F
 DIIS: error= 6.37D-06 at cycle   3 NSaved=   3.
 NSaved= 3 IEnMin= 3 EnMin= -385.886131129887     IErMin= 3 ErrMin= 6.37D-06
 ErrMax= 6.37D-06  0.00D+00 EMaxC= 1.00D-01 BMatC= 1.72D-09 BMatP= 2.25D-08
 IDIUse=1 WtCom= 1.00D+00 WtEn= 0.00D+00
 Coeff-Com: -0.314D-02 0.133D+00 0.870D+00
 Coeff:     -0.314D-02 0.133D+00 0.870D+00
 Gap=     0.310 Goal=   None    Shift=    0.000
 RMSDP=2.66D-06 MaxDP=6.47D-05 DE=-2.48D-08 OVMax= 3.11D-05

 Cycle  15  Pass 1  IDiag  1:
 RMSU=  5.68D-07    CP:  9.86D-01  1.07D+00  1.09D+00
 E= -385.886131130906     Delta-E=       -0.000000001020 Rises=F Damp=F
 DIIS: error= 3.51D-06 at cycle   4 NSaved=   4.
 NSaved= 4 IEnMin= 4 EnMin= -385.886131130906     IErMin= 4 ErrMin= 3.51D-06
 ErrMax= 3.51D-06  0.00D+00 EMaxC= 1.00D-01 BMatC= 1.35D-09 BMatP= 1.72D-09
 IDIUse=1 WtCom= 1.00D+00 WtEn= 0.00D+00
 Coeff-Com:  0.110D-02-0.640D-01 0.481D+00 0.582D+00
 Coeff:      0.110D-02-0.640D-01 0.481D+00 0.582D+00
 Gap=     0.310 Goal=   None    Shift=    0.000
 RMSDP=7.35D-07 MaxDP=1.74D-05 DE=-1.02D-09 OVMax= 1.63D-05

 Cycle  16  Pass 1  IDiag  1:
 RMSU=  1.04D-07    CP:  9.86D-01  1.07D+00  1.12D+00  1.27D+00
 E= -385.886131132427     Delta-E=       -0.000000001521 Rises=F Damp=F
 DIIS: error= 9.33D-07 at cycle   5 NSaved=   5.
 NSaved= 5 IEnMin= 5 EnMin= -385.886131132427     IErMin= 5 ErrMin= 9.33D-07
 ErrMax= 9.33D-07  0.00D+00 EMaxC= 1.00D-01 BMatC= 1.49D-11 BMatP= 1.35D-09
 IDIUse=1 WtCom= 1.00D+00 WtEn= 0.00D+00
 Coeff-Com:  0.383D-05 0.189D-02-0.100D+00-0.558D-01 0.115D+01
 Coeff:      0.383D-05 0.189D-02-0.100D+00-0.558D-01 0.115D+01
 Gap=     0.310 Goal=   None    Shift=    0.000
 RMSDP=7.63D-08 MaxDP=2.01D-06 DE=-1.52D-09 OVMax= 5.73D-06

 Cycle  17  Pass 1  IDiag  1:
 RMSU=  3.17D-08    CP:  9.86D-01  1.07D+00  1.12D+00  1.37D+00  1.13D+00
 E= -385.886131132514     Delta-E=       -0.000000000087 Rises=F Damp=F
 DIIS: error= 2.38D-07 at cycle   6 NSaved=   6.
 NSaved= 6 IEnMin= 6 EnMin= -385.886131132514     IErMin= 6 ErrMin= 2.38D-07
 ErrMax= 2.38D-07  0.00D+00 EMaxC= 1.00D-01 BMatC= 4.38D-12 BMatP= 1.49D-11
 IDIUse=1 WtCom= 1.00D+00 WtEn= 0.00D+00
 Coeff-Com: -0.143D-03 0.918D-02-0.102D+00-0.976D-01 0.419D+00 0.771D+00
 Coeff:     -0.143D-03 0.918D-02-0.102D+00-0.976D-01 0.419D+00 0.771D+00
 Gap=     0.310 Goal=   None    Shift=    0.000
 RMSDP=2.08D-08 MaxDP=5.10D-07 DE=-8.66D-11 OVMax= 1.97D-06

 Cycle  18  Pass 1  IDiag  1:
 RMSU=  7.39D-09    CP:  9.86D-01  1.07D+00  1.12D+00  1.38D+00  1.14D+00
                    CP:  1.27D+00
 E= -385.886131132531     Delta-E=       -0.000000000017 Rises=F Damp=F
 DIIS: error= 7.15D-08 at cycle   7 NSaved=   7.
 NSaved= 7 IEnMin= 7 EnMin= -385.886131132531     IErMin= 7 ErrMin= 7.15D-08
 ErrMax= 7.15D-08  0.00D+00 EMaxC= 1.00D-01 BMatC= 3.44D-13 BMatP= 4.38D-12
 IDIUse=1 WtCom= 1.00D+00 WtEn= 0.00D+00
 Coeff-Com: -0.411D-04 0.224D-02-0.131D-01-0.182D-01-0.559D-01 0.150D+00
 Coeff-Com:  0.935D+00
 Coeff:     -0.411D-04 0.224D-02-0.131D-01-0.182D-01-0.559D-01 0.150D+00
 Coeff:      0.935D+00
 Gap=     0.310 Goal=   None    Shift=    0.000
 RMSDP=1.36D-08 MaxDP=2.82D-07 DE=-1.71D-11 OVMax= 8.44D-07

 Cycle  19  Pass 1  IDiag  1:
 RMSU=  3.13D-09    CP:  9.86D-01  1.07D+00  1.12D+00  1.37D+00  1.13D+00
                    CP:  1.37D+00  1.40D+00
 E= -385.886131132560     Delta-E=       -0.000000000029 Rises=F Damp=F
 DIIS: error= 2.69D-08 at cycle   8 NSaved=   8.
 NSaved= 8 IEnMin= 8 EnMin= -385.886131132560     IErMin= 8 ErrMin= 2.69D-08
 ErrMax= 2.69D-08  0.00D+00 EMaxC= 1.00D-01 BMatC= 4.35D-14 BMatP= 3.44D-13
 IDIUse=1 WtCom= 1.00D+00 WtEn= 0.00D+00
 Coeff-Com:  0.586D-05-0.480D-03 0.864D-02 0.693D-02-0.597D-01-0.541D-01
 Coeff-Com:  0.258D+00 0.841D+00
 Coeff:      0.586D-05-0.480D-03 0.864D-02 0.693D-02-0.597D-01-0.541D-01
 Coeff:      0.258D+00 0.841D+00
 Gap=     0.310 Goal=   None    Shift=    0.000
 RMSDP=4.05D-09 MaxDP=9.73D-08 DE=-2.86D-11 OVMax= 1.82D-07

 SCF Done:  E(RwB97XD) =  -385.886131133     A.U. after   19 cycles
            NFock= 19  Conv=0.41D-08     -V/T= 2.0052
 KE= 3.839056604241D+02 PE=-1.813274070615D+03 EE= 5.843111970865D+02
 Leave Link  502 at Fri Jul  9 19:27:17 2021, MaxMem=  4194304000 cpu:      5429.9
 (Enter /home/minenky/programs//g09/l601.exe)
 Copying SCF densities to generalized density rwf, IOpCl= 0 IROHF=0.

 **********************************************************************

            Population analysis using the SCF density.

 **********************************************************************

 Orbital symmetries:
       Occupied  (AG) (B1U) (B2U) (AG) (B3G) (B1U) (B2U) (AG) (B3G)
                 (B1U) (AG) (B2U) (B1U) (AG) (B3G) (B2U) (B1U)
                 (AG) (B2U) (B3G) (AG) (B1U) (AG) (B3G) (B2U) (B3U)
                 (B1U) (B2U) (B3G) (B1G) (AG) (B2G) (B3U) (AU)
       Virtual   (B1G) (B2G) (B3U) (AG) (B2U) (B1U) (AU) (AG) (B3G)
                 (B1U) (B2U) (AG) (B3G) (B2G) (B2U) (B1U) (AG)
                 (B1U) (B3U) (B1G) (B2U) (AG) (B2G) (B3G) (AG)
                 (B3G) (B1U) (B3U) (AU) (AG) (B2U) (B2U) (B3U)
                 (AG) (B1U) (B1G) (B2G) (B2U) (B1U) (B1U) (B3G)
                 (B2U) (B3G) (AU) (AG) (AG) (B1U) (B1G) (B2G) (B3G)
                 (B1U) (B2U) (B3G) (AG) (B1U) (B3G) (B2U) (B3U)
                 (B2U) (AG) (B1U) (B3G) (B3U) (B1U) (AG) (B3G)
                 (B1U) (B2U) (B3G) (B1G) (B1U) (B2G) (AU) (AG)
                 (B2U) (B1G) (AG) (B3G) (B2U) (AG) (B3G) (B1U)
                 (B3U) (AU) (AG) (B2U) (B2U) (B1U) (B3U) (B2G)
                 (AG) (B1U) (B3G) (B2G) (AU) (AG) (B1G) (B3G) (B2U)
                 (B1G) (AG) (B1U) (B2U) (B1U) (B3G) (B3U) (B2G)
                 (AG) (B2U) (AU) (B1U) (B3G) (B1U) (B3U) (AG) (B3G)
                 (B1G) (B2U) (B2G) (AG) (B1U) (AU) (B2U) (B3U)
                 (B3G) (AG) (B3G) (AU) (B1U) (B2U) (B2G) (B1G)
                 (AG) (B3U) (B2G) (B1U) (B3G) (B1U) (B2U) (B1G)
                 (AU) (B3U) (AG) (B2G) (AU) (B2U) (B1U) (B3U) (AG)
                 (B2G) (B3G) (B1G) (AG) (B2U) (AG) (B3G) (B1U)
                 (B2U) (B3G) (B2U) (B3G) (AG) (B1U) (B2G) (B2U)
                 (B3U) (AU) (B1U) (AG) (AG) (B1G) (B2U) (B3G) (B1U)
                 (AG) (B2U) (B1G) (B2U) (B3G) (B3U) (B3G) (AG)
                 (B1U) (B2G) (B1G) (AU) (AG) (B3U) (B1U) (B1U)
                 (B2U) (B2G) (B3G) (B3U) (B1G) (AG) (B2U) (B1U)
                 (B3U) (AU) (B3G) (AU) (B2U) (AG) (B1U) (B3G) (B1G)
                 (B1U) (B2G) (B3G) (B3U) (AG) (B3U) (B2U) (B1G)
                 (AG) (B2G) (B1U) (B2U) (B3G) (B1G) (B2G) (AU)
                 (B3U) (AG) (B1U) (AU) (B2U) (B3G) (AG) (B3U) (B1G)
                 (B2U) (AG) (B1U) (B2G) (B3G) (AG) (B2U) (B1U)
                 (B3G) (AU) (B2U) (B2G) (AU) (B1G) (B1U) (B1G)
                 (B3U) (B2G) (B1U) (B3G) (B2U) (AG) (B3G) (AU)
                 (B1U) (AG) (B3G) (B1U) (B3U) (B2U) (AU) (B2G)
                 (AG) (B2U) (B1U) (B3G) (AG) (B3G) (B2U) (AG) (B3U)
                 (B1U) (B2G) (B3G) (B1G) (AU) (B3G) (AG) (B1U)
                 (B2G) (B1G) (B2U) (B3U) (AG) (B2U) (AU) (B3G)
                 (B1U) (B2G) (B2U) (B1U) (B2U) (AG) (AU) (AG) (B2G)
                 (B1U) (B3G) (B2U) (B1U) (AG) (B1U) (B3G) (B3G)
                 (AG) (B1U) (B3G) (B2U) (B1U) (B3G) (B1U) (B3G)
                 (AG) (B2U) (B3G) (B2U) (B1U) (AG) (AG) (B3G) (B1U)
                 (B1U)
 The electronic state is 1-AG.
 Alpha  occ. eigenvalues --  -10.29909 -10.29867 -10.29039 -10.29035 -10.29026
 Alpha  occ. eigenvalues --  -10.29025 -10.28969 -10.28969 -10.28934 -10.28933
 Alpha  occ. eigenvalues --   -0.98064  -0.92632  -0.87706  -0.84300  -0.82055
 Alpha  occ. eigenvalues --   -0.72330  -0.70875  -0.69313  -0.60932  -0.60270
 Alpha  occ. eigenvalues --   -0.58726  -0.53756  -0.53066  -0.50502  -0.50459
 Alpha  occ. eigenvalues --   -0.48780  -0.48739  -0.45404  -0.42173  -0.41999
 Alpha  occ. eigenvalues --   -0.41271  -0.37229  -0.32174  -0.29287
 Alpha virt. eigenvalues --    0.01755   0.04628   0.08767   0.12689   0.13974
 Alpha virt. eigenvalues --    0.14033   0.16703   0.16934   0.17340   0.18145
 Alpha virt. eigenvalues --    0.19857   0.20374   0.22448   0.24029   0.24043
 Alpha virt. eigenvalues --    0.25715   0.26424   0.27159   0.27351   0.30563
 Alpha virt. eigenvalues --    0.30842   0.32041   0.32925   0.33083   0.33267
 Alpha virt. eigenvalues --    0.34280   0.35162   0.35950   0.36004   0.37958
 Alpha virt. eigenvalues --    0.38399   0.39859   0.40539   0.43190   0.43255
 Alpha virt. eigenvalues --    0.43382   0.43409   0.43842   0.44426   0.47190
 Alpha virt. eigenvalues --    0.47450   0.49181   0.49201   0.49896   0.50581
 Alpha virt. eigenvalues --    0.51181   0.51823   0.54332   0.54752   0.54892
 Alpha virt. eigenvalues --    0.56535   0.57047   0.57818   0.59093   0.60047
 Alpha virt. eigenvalues --    0.60502   0.61550   0.63571   0.64678   0.66435
 Alpha virt. eigenvalues --    0.70904   0.71416   0.74665   0.74815   0.75717
 Alpha virt. eigenvalues --    0.77975   0.78794   0.80070   0.80365   0.81123
 Alpha virt. eigenvalues --    0.81491   0.82128   0.82357   0.84148   0.84357
[...]
 ! A17   A(1,6,14)             118.7763         -DE/DX =    0.0                 !
 ! A18   A(10,6,14)            120.4223         -DE/DX =    0.0                 !
 ! A19   A(3,7,10)             120.273          -DE/DX =    0.0                 !
 ! A20   A(3,7,15)             120.1204         -DE/DX =    0.0                 !
 ! A21   A(10,7,15)            119.6066         -DE/DX =    0.0                 !
 ! A22   A(4,8,9)              120.273          -DE/DX =    0.0                 !
 ! A23   A(4,8,16)             120.1204         -DE/DX =    0.0                 !
 ! A24   A(9,8,16)             119.6066         -DE/DX =    0.0                 !
 ! A25   A(5,9,8)              120.273          -DE/DX =    0.0                 !
 ! A26   A(5,9,17)             120.1204         -DE/DX =    0.0                 !
 ! A27   A(8,9,17)             119.6066         -DE/DX =    0.0                 !
 ! A28   A(6,10,7)             120.273          -DE/DX =    0.0                 !
 ! A29   A(6,10,18)            120.1204         -DE/DX =    0.0                 !
 ! A30   A(7,10,18)            119.6066         -DE/DX =    0.0                 !
 ! D1    D(5,1,2,3)            180.0            -DE/DX =    0.0                 !
 ! D2    D(5,1,2,4)              0.0            -DE/DX =    0.0                 !
 ! D3    D(6,1,2,3)              0.0            -DE/DX =    0.0                 !
 ! D4    D(6,1,2,4)            180.0            -DE/DX =    0.0                 !
 ! D5    D(2,1,5,9)              0.0            -DE/DX =    0.0                 !
 ! D6    D(2,1,5,13)           180.0            -DE/DX =    0.0                 !
 ! D7    D(6,1,5,9)            180.0            -DE/DX =    0.0                 !
 ! D8    D(6,1,5,13)             0.0            -DE/DX =    0.0                 !
 ! D9    D(2,1,6,10)             0.0            -DE/DX =    0.0                 !
 ! D10   D(2,1,6,14)           180.0            -DE/DX =    0.0                 !
 ! D11   D(5,1,6,10)           180.0            -DE/DX =    0.0                 !
 ! D12   D(5,1,6,14)             0.0            -DE/DX =    0.0                 !
 ! D13   D(1,2,3,7)              0.0            -DE/DX =    0.0                 !
 ! D14   D(1,2,3,11)           180.0            -DE/DX =    0.0                 !
 ! D15   D(4,2,3,7)            180.0            -DE/DX =    0.0                 !
 ! D16   D(4,2,3,11)             0.0            -DE/DX =    0.0                 !
 ! D17   D(1,2,4,8)              0.0            -DE/DX =    0.0                 !
 ! D18   D(1,2,4,12)           180.0            -DE/DX =    0.0                 !
 ! D19   D(3,2,4,8)            180.0            -DE/DX =    0.0                 !
 ! D20   D(3,2,4,12)             0.0            -DE/DX =    0.0                 !
 ! D21   D(2,3,7,10)             0.0            -DE/DX =    0.0                 !
 ! D22   D(2,3,7,15)           180.0            -DE/DX =    0.0                 !
 ! D23   D(11,3,7,10)          180.0            -DE/DX =    0.0                 !
 ! D24   D(11,3,7,15)            0.0            -DE/DX =    0.0                 !
 ! D25   D(2,4,8,9)              0.0            -DE/DX =    0.0                 !
 ! D26   D(2,4,8,16)           180.0            -DE/DX =    0.0                 !
 ! D27   D(12,4,8,9)           180.0            -DE/DX =    0.0                 !
 ! D28   D(12,4,8,16)            0.0            -DE/DX =    0.0                 !
 ! D29   D(1,5,9,8)              0.0            -DE/DX =    0.0                 !
 ! D30   D(1,5,9,17)           180.0            -DE/DX =    0.0                 !
 ! D31   D(13,5,9,8)           180.0            -DE/DX =    0.0                 !
 ! D32   D(13,5,9,17)            0.0            -DE/DX =    0.0                 !
 ! D33   D(1,6,10,7)             0.0            -DE/DX =    0.0                 !
 ! D34   D(1,6,10,18)          180.0            -DE/DX =    0.0                 !
 ! D35   D(14,6,10,7)          180.0            -DE/DX =    0.0                 !
 ! D36   D(14,6,10,18)           0.0            -DE/DX =    0.0                 !
 ! D37   D(3,7,10,6)             0.0            -DE/DX =    0.0                 !
 ! D38   D(3,7,10,18)          180.0            -DE/DX =    0.0                 !
 ! D39   D(15,7,10,6)          180.0            -DE/DX =    0.0                 !
 ! D40   D(15,7,10,18)           0.0            -DE/DX =    0.0                 !
 ! D41   D(4,8,9,5)              0.0            -DE/DX =    0.0                 !
 ! D42   D(4,8,9,17)           180.0            -DE/DX =    0.0                 !
 ! D43   D(16,8,9,5)           180.0            -DE/DX =    0.0                 !
 ! D44   D(16,8,9,17)            0.0            -DE/DX =    0.0                 !
 --------------------------------------------------------------------------------
 GradGradGradGradGradGradGradGradGradGradGradGradGradGradGradGradGradGrad

 Leave Link  103 at Fri Jul  9 19:55:42 2021, MaxMem=  4194304000 cpu:        51.6
 (Enter /home/minenky/programs//g09/l9999.exe)
 1\1\GINC-CN513-12-R\Freq\RwB97XD\def2TZVP\C10H8\MINENKY\09-Jul-2021\0\
 \#P Geom=AllCheck Guess=TCheck SCRF=Check GenChk RwB97XD/def2TZVP Freq
 \\The PBEPBE optimization and frequencies\\0,1\C,0.,0.,0.7087239339\C,
 0.,0.,-0.7087239339\C,0.,1.2386696246,-1.3932280317\C,0.,-1.2386696246
 ,-1.3932280317\C,0.,-1.2386696246,1.3932280317\C,0.,1.2386696246,1.393
 2280317\C,0.,2.4172473555,-0.7052676001\C,0.,-2.4172473555,-0.70526760
 01\C,0.,-2.4172473555,0.7052676001\C,0.,2.4172473555,0.7052676001\H,0.
 ,1.2358456946,-2.4770356081\H,0.,-1.2358456946,-2.4770356081\H,0.,-1.2
 358456946,2.4770356081\H,0.,1.2358456946,2.4770356081\H,0.,3.358570032
 1,-1.240157096\H,0.,-3.3585700321,-1.240157096\H,0.,-3.3585700321,1.24
 0157096\H,0.,3.3585700321,1.240157096\\Version=AM64L-G09RevD.01\State=
 1-AG\HF=-385.8862968\RMSD=1.809e-09\RMSF=2.560e-06\ZeroPoint=0.1486613
 \Thermal=0.1554045\Dipole=0.,0.,0.\DipoleDeriv=0.0124591,0.,0.,0.,0.11
 54089,0.,0.,0.,-0.1584036,0.0124591,0.,0.,0.,0.1154089,0.,0.,0.,-0.158
 4034,-0.1289193,0.,0.,0.,-0.0303632,-0.0030901,0.,-0.0415999,0.1097196
 ,-0.1289193,0.,0.,0.,-0.0303632,0.0030899,0.,0.0415998,0.1097195,-0.12
 89193,0.,0.,0.,-0.0303631,-0.00309,0.,-0.0415999,0.1097194,-0.1289193,
 0.,0.,0.,-0.0303631,0.0030899,0.,0.0415999,0.1097196,-0.1448019,0.,0.,
 0.,-0.0240351,-0.1217873,0.,-0.0783588,0.0324477,-0.1448019,0.,0.,0.,-
 0.0240352,0.1217873,0.,0.0783588,0.0324478,-0.1448019,0.,0.,0.,-0.0240
 352,-0.1217873,0.,-0.0783588,0.0324477,-0.1448019,0.,0.,0.,-0.0240351,
 0.1217873,0.,0.0783588,0.0324477,0.1289398,0.,0.,0.,0.0575754,-0.03013
 35,0.,0.0189493,-0.0903144,0.1289398,0.,0.,0.,0.0575754,0.0301335,0.,-
 0.0189493,-0.0903144,0.1289398,0.,0.,0.,0.0575754,-0.0301335,0.,0.0189
 493,-0.0903144,0.1289398,0.,0.,0.,0.0575754,0.0301335,0.,-0.0189493,-0
 .0903145,0.1385519,0.,0.,0.,-0.0608815,0.072775,0.,0.0771025,0.0273489
 ,0.1385519,0.,0.,0.,-0.0608815,-0.0727749,0.,-0.0771024,0.0273489,0.13
 85519,0.,0.,0.,-0.0608816,0.072775,0.,0.0771025,0.0273489,0.1385519,0.
 ,0.,0.,-0.0608816,-0.072775,0.,-0.0771025,0.0273489\Polar=58.6354537,0
 .,161.0463796,0.,0.0000003,117.752611\PG=D02H [C2"(C1.C1),SG(C8H8)]\NI
 mag=0\\0.16957278,0.,0.70116947,0.,-0.00000001,0.66112951,-0.08001361,
 0.,0.,0.16957278,0.,-0.15572372,0.,0.,0.70116947,0.,0.,-0.27565107,0.,
 0.00000001,0.66112951,0.00692719,0.,0.,-0.06874566,0.,0.,0.13747157,0.
 ,0.04486069,0.04680505,0.,-0.22734947,0.06751847,0.,0.69203041,0.,0.02
 977290,-0.02033272,0.,0.09941011,-0.17341861,0.,0.05310998,0.74795840,
 0.00692718,0.,0.,-0.06874566,0.,0.,0.00388185,0.,0.,0.13747157,0.,0.04
 486069,-0.04680504,0.,-0.22734947,-0.06751847,0.,-0.07049908,-0.010396
 57,0.,0.69203041,0.,-0.02977290,-0.02033272,0.,-0.09941012,-0.17341860
 ,0.,0.01039657,0.01583614,0.,-0.05310998,0.74795840,-0.06874566,0.,0.,
 0.00692718,0.,0.,0.00557679,0.,0.,-0.00409625,0.,0.,0.13747157,0.,-0.2
 2734947,0.06751847,0.,0.04486069,0.04680504,0.,-0.02148541,-0.00010957
 ,0.,-0.06666786,0.00245202,0.,0.69203041,0.,0.09941012,-0.17341860,0.,
 0.02977290,-0.02033272,0.,-0.00010957,-0.00589845,0.,-0.00245202,-0.00
 125297,0.,0.05310998,0.74795840,-0.06874566,0.,0.,0.00692719,0.,0.,-0.
 00409625,0.,0.,0.00557679,0.,0.,0.00388185,0.,0.,0.13747157,0.,-0.2273
 4947,-0.06751847,0.,0.04486069,-0.04680505,0.,-0.06666786,-0.00245202,
 0.,-0.02148541,0.00010957,0.,-0.07049908,-0.01039657,0.,0.69203041,0.,
 -0.09941011,-0.17341861,0.,-0.02977290,-0.02033272,0.,0.00245202,-0.00
 125297,0.,0.00010957,-0.00589845,0.,0.01039657,0.01583614,0.,-0.053109
 98,0.74795840,-0.00661480,0.,0.,0.00659924,0.,0.,-0.06122874,0.,0.,0.0
 0610252,0.,0.,-0.00084608,0.,0.,0.00710417,0.,0.,0.13448768,0.,-0.0220
 3211,-0.01737059,0.,-0.06487256,0.00547496,0.,-0.33404625,-0.14820327,
 0.,0.01405074,0.00617621,0.,0.01117710,-0.00167284,0.,0.03481000,0.029
 89813,0.,0.77270941,0.,-0.04329789,-0.03040037,0.,-0.03673721,0.045165
 15,0.,-0.08214033,-0.20078457,0.,0.02909254,0.00041360,0.,0.02261934,-
 0.00251027,0.,0.07882659,-0.02967669,0.,-0.00911681,0.66320202,-0.0066
 1480,0.,0.,0.00659924,0.,0.,0.00610252,0.,0.,-0.06122874,0.,0.,0.00710
 417,0.,0.,-0.00084608,0.,0.,-0.00021797,0.,0.,0.13448768,0.,-0.0220321
 1,0.01737059,0.,-0.06487256,-0.00547496,0.,0.01405074,-0.00617621,0.,-
 0.33404625,0.14820327,0.,0.03481000,-0.02989813,0.,0.01117710,0.001672
 84,0.,-0.00716015,-0.01159753,0.,0.77270941,0.,0.04329789,-0.03040037,
 0.,0.03673721,0.04516516,0.,-0.02909254,0.00041360,0.,0.08214033,-0.20
 078457,0.,-0.07882659,-0.02967669,0.,-0.02261934,-0.00251027,0.,0.0115
 9753,0.02034177,0.,0.00911681,0.66320202,0.00659924,0.,0.,-0.00661480,
 0.,0.,-0.00084608,0.,0.,0.00710417,0.,0.,-0.06122874,0.,0.,0.00610252,
 0.,0.,0.00032727,0.,0.,-0.06258941,0.,0.,0.13448768,0.,-0.06487256,0.0
 0547496,0.,-0.02203211,-0.01737059,0.,0.01117710,-0.00167284,0.,0.0348
 1000,0.02989813,0.,-0.33404625,-0.14820327,0.,0.01405074,0.00617621,0.
 ,-0.00640245,-0.01033397,0.,-0.12937990,0.03463257,0.,0.77270941,0.,-0
 .03673721,0.04516516,0.,-0.04329789,-0.03040037,0.,0.02261934,-0.00251
 027,0.,0.07882659,-0.02967669,0.,-0.08214033,-0.20078457,0.,0.02909254
 ,0.00041360,0.,-0.01033397,-0.01980169,0.,-0.03463257,-0.29593901,0.,-
 0.00911681,0.66320202,0.00659924,0.,0.,-0.00661480,0.,0.,0.00710417,0.
 ,0.,-0.00084608,0.,0.,0.00610252,0.,0.,-0.06122874,0.,0.,-0.06258941,0
 .,0.,0.00032727,0.,0.,-0.00021797,0.,0.,0.13448768,0.,-0.06487256,-0.0
 0547496,0.,-0.02203211,0.01737059,0.,0.03481000,-0.02989813,0.,0.01117
 710,0.00167284,0.,0.01405074,-0.00617621,0.,-0.33404625,0.14820327,0.,
 -0.12937990,-0.03463257,0.,-0.00640245,0.01033397,0.,-0.00716015,-0.01
 159753,0.,0.77270941,0.,0.03673721,0.04516515,0.,0.04329789,-0.0304003
 7,0.,-0.07882659,-0.02967669,0.,-0.02261934,-0.00251027,0.,-0.02909254
 ,0.00041360,0.,0.08214033,-0.20078457,0.,0.03463257,-0.29593901,0.,0.0
 1033397,-0.01980169,0.,0.01159753,0.02034177,0.,0.00911681,0.66320202,
 0.00527236,0.,0.,0.00309699,0.,0.,-0.03678816,0.,0.,-0.00293374,0.,0.,
 0.00001399,0.,0.,-0.00087908,0.,0.,0.00379378,0.,0.,-0.00012639,0.,0.,
 -0.00012268,0.,0.,0.00891752,0.,0.,0.02529695,0.,-0.00456221,0.0016399
 7,0.,0.00403725,0.02749456,0.,-0.05981668,0.00087565,0.,0.00134899,0.0
 0155454,0.,0.00028866,0.00137055,0.,-0.00119240,-0.00001826,0.,0.00479
 902,-0.02898033,0.,0.00020194,-0.00052293,0.,0.00017627,0.00023458,0.,
 -0.00449036,-0.00220953,0.,0.05908772,0.,0.00295711,0.00069051,0.,-0.0
 0257787,-0.01263347,0.,0.00027948,-0.33825472,0.,-0.00170032,0.0010300
 4,0.,-0.00077169,-0.00068790,0.,0.00013532,0.00067277,0.,0.00308189,-0
 .01163827,0.,0.00035385,-0.00005398,0.,0.00014063,0.00031605,0.,-0.003
 20286,0.00067822,0.,0.00031353,0.35957942,0.00527236,0.,0.,0.00309699,
 0.,0.,-0.00293374,0.,0.,-0.03678816,0.,0.,-0.00087908,0.,0.,0.00001399
 ,0.,0.,-0.00012639,0.,0.,0.00379378,0.,0.,0.00891752,0.,0.,-0.00012268
 ,0.,0.,0.00021967,0.,0.,0.02529695,0.,-0.00456221,-0.00163997,0.,0.004
 03725,-0.02749456,0.,0.00134899,-0.00155454,0.,-0.05981668,-0.00087565
 ,0.,-0.00119240,0.00001826,0.,0.00028866,-0.00137055,0.,0.00020194,0.0
 0052293,0.,0.00479902,0.02898033,0.,-0.00449036,0.00220953,0.,0.000176
 27,-0.00023458,0.,-0.00050737,0.00087058,0.,0.05908772,0.,-0.00295711,
 0.00069051,0.,0.00257787,-0.01263347,0.,0.00170032,0.00103004,0.,-0.00
 027948,-0.33825472,0.,-0.00013532,0.00067277,0.,0.00077169,-0.00068790
 ,0.,-0.00035385,-0.00005398,0.,-0.00308189,-0.01163827,0.,0.00320286,0
 .00067822,0.,-0.00014063,0.00031605,0.,-0.00087058,0.00038223,0.,-0.00
 031353,0.35957942,0.00309699,0.,0.,0.00527236,0.,0.,0.00001399,0.,0.,-
 0.00087908,0.,0.,-0.03678816,0.,0.,-0.00293374,0.,0.,-0.00012268,0.,0.
 ,0.00891752,0.,0.,0.00379378,0.,0.,-0.00012639,0.,0.,0.00021402,0.,0.,
 -0.00117937,0.,0.,0.02529695,0.,0.00403725,0.02749456,0.,-0.00456221,0
 .00163997,0.,0.00028866,0.00137055,0.,-0.00119240,-0.00001826,0.,-0.05
 981668,0.00087565,0.,0.00134899,0.00155454,0.,0.00017627,0.00023458,0.
 ,-0.00449036,-0.00220953,0.,0.00479902,-0.02898033,0.,0.00020194,-0.00
 052293,0.,-0.00038071,0.00021919,0.,0.00013510,0.00000342,0.,0.0590877
 2,0.,-0.00257787,-0.01263347,0.,0.00295711,0.00069051,0.,-0.00077169,-
 0.00068790,0.,0.00013532,0.00067277,0.,0.00027948,-0.33825472,0.,-0.00
 170032,0.00103004,0.,0.00014063,0.00031605,0.,-0.00320286,0.00067822,0
 .,0.00308189,-0.01163827,0.,0.00035385,-0.00005398,0.,0.00021919,-0.00
 014067,0.,-0.00000342,-0.00010939,0.,0.00031353,0.35957942,0.00309699,
 0.,0.,0.00527236,0.,0.,-0.00087908,0.,0.,0.00001399,0.,0.,-0.00293374,
 0.,0.,-0.03678816,0.,0.,0.00891752,0.,0.,-0.00012268,0.,0.,-0.00012639
 ,0.,0.,0.00379378,0.,0.,-0.00117937,0.,0.,0.00021402,0.,0.,0.00021967,
 0.,0.,0.02529695,0.,0.00403725,-0.02749456,0.,-0.00456221,-0.00163997,
 0.,-0.00119240,0.00001826,0.,0.00028866,-0.00137055,0.,0.00134899,-0.0
 0155454,0.,-0.05981668,-0.00087565,0.,-0.00449036,0.00220953,0.,0.0001
 7627,-0.00023458,0.,0.00020194,0.00052293,0.,0.00479902,0.02898033,0.,
 0.00013510,-0.00000342,0.,-0.00038071,-0.00021919,0.,-0.00050737,0.000
 87058,0.,0.05908772,0.,0.00257787,-0.01263347,0.,-0.00295711,0.0006905
 1,0.,-0.00013532,0.00067277,0.,0.00077169,-0.00068790,0.,0.00170032,0.
 00103004,0.,-0.00027948,-0.33825472,0.,0.00320286,0.00067822,0.,-0.000
 14063,0.00031605,0.,-0.00035385,-0.00005398,0.,-0.00308189,-0.01163827
 ,0.,0.00000342,-0.00010939,0.,-0.00021919,-0.00014067,0.,-0.00087058,0
 .00038223,0.,-0.00031353,0.35957942,-0.00092538,0.,0.,0.00961048,0.,0.
 ,0.00334944,0.,0.,0.00017836,0.,0.,-0.00088057,0.,0.,0.00579240,0.,0.,
 -0.03719208,0.,0.,-0.00063231,0.,0.,0.00011491,0.,0.,0.00212339,0.,0.,
 -0.00510233,0.,0.,0.00017049,0.,0.,0.00004442,0.,0.,0.00009155,0.,0.,0
 .02588534,0.,-0.00003819,-0.00067557,0.,-0.00276628,-0.00410760,0.,-0.
 01898804,0.01650214,0.,-0.00042190,0.00119807,0.,0.00027790,0.00007506
 ,0.,0.00162258,-0.00052656,0.,-0.27286226,0.12082917,0.,-0.00051516,-0
 .00016912,0.,-0.00003509,-0.00026337,0.,0.00387178,-0.00259623,0.,0.00
 085807,-0.00035466,0.,-0.00000341,-0.00005820,0.,-0.00001761,0.0000357
 4,0.,0.00003771,-0.00016531,0.,0.28846665,0.,-0.00118544,-0.00046922,0
 .,-0.00341281,-0.00134050,0.,-0.01561286,0.01198809,0.,-0.00009166,0.0
 0064590,0.,0.00048298,0.00008365,0.,-0.00123307,-0.00581168,0.,0.12166
 970,-0.12950293,0.,-0.00032724,0.00019650,0.,-0.00016361,-0.00032321,0
 .,0.02898676,-0.00968231,0.,0.00034782,0.00082470,0.,0.00001209,-0.000
 01533,0.,-0.00006490,0.00004237,0.,0.00137520,-0.00068257,0.,-0.130266
 68,0.13311061,-0.00092538,0.,0.,0.00961048,0.,0.,0.00017836,0.,0.,0.00
 334944,0.,0.,0.00579240,0.,0.,-0.00088057,0.,0.,-0.00063231,0.,0.,-0.0
 3719208,0.,0.,0.00212339,0.,0.,0.00011491,0.,0.,0.00017049,0.,0.,-0.00
 510233,0.,0.,0.00009155,0.,0.,0.00004442,0.,0.,-0.00003155,0.,0.,0.025
 88534,0.,-0.00003819,0.00067556,0.,-0.00276628,0.00410759,0.,-0.000421
 90,-0.00119807,0.,-0.01898804,-0.01650214,0.,0.00162258,0.00052656,0.,
 0.00027790,-0.00007506,0.,-0.00051516,0.00016912,0.,-0.27286226,-0.120
 82917,0.,0.00387178,0.00259623,0.,-0.00003509,0.00026337,0.,-0.0000034
 1,0.00005820,0.,0.00085807,0.00035466,0.,0.00003771,0.00016531,0.,-0.0
 0001761,-0.00003574,0.,-0.00012391,-0.00006893,0.,0.28846665,0.,0.0011
 8544,-0.00046923,0.,0.00341281,-0.00134050,0.,0.00009166,0.00064590,0.
 ,0.01561286,0.01198809,0.,0.00123307,-0.00581168,0.,-0.00048298,0.0000
 8365,0.,0.00032724,0.00019650,0.,-0.12166970,-0.12950293,0.,-0.0289867
 6,-0.00968231,0.,0.00016361,-0.00032321,0.,-0.00001209,-0.00001533,0.,
 -0.00034782,0.00082470,0.,-0.00137520,-0.00068257,0.,0.00006490,0.0000
 4237,0.,0.00006893,0.00004759,0.,0.13026668,0.13311061,0.00961048,0.,0
 .,-0.00092538,0.,0.,-0.00088057,0.,0.,0.00579240,0.,0.,0.00334944,0.,0
 .,0.00017836,0.,0.,0.00011491,0.,0.,0.00212339,0.,0.,-0.03719208,0.,0.
 ,-0.00063231,0.,0.,0.00004442,0.,0.,0.00009155,0.,0.,-0.00510233,0.,0.
 ,0.00017049,0.,0.,0.00008210,0.,0.,-0.00267867,0.,0.,0.02588534,0.,-0.
 00276628,-0.00410759,0.,-0.00003819,-0.00067556,0.,0.00027790,0.000075
 06,0.,0.00162258,-0.00052656,0.,-0.01898804,0.01650214,0.,-0.00042190,
 0.00119807,0.,-0.00003509,-0.00026337,0.,0.00387178,-0.00259623,0.,-0.
 27286226,0.12082917,0.,-0.00051516,-0.00016912,0.,-0.00001761,0.000035
 74,0.,0.00003771,-0.00016531,0.,0.00085807,-0.00035466,0.,-0.00000341,
 -0.00005820,0.,-0.00002073,0.00001341,0.,0.00065788,0.00046076,0.,0.28
 846665,0.,-0.00341281,-0.00134050,0.,-0.00118544,-0.00046923,0.,0.0004
 8298,0.00008365,0.,-0.00123307,-0.00581168,0.,-0.01561286,0.01198809,0
 .,-0.00009166,0.00064590,0.,-0.00016361,-0.00032321,0.,0.02898676,-0.0
 0968231,0.,0.12166970,-0.12950293,0.,-0.00032724,0.00019650,0.,-0.0000
 6490,0.00004237,0.,0.00137520,-0.00068257,0.,0.00034782,0.00082470,0.,
 0.00001209,-0.00001533,0.,0.00001341,0.00000261,0.,-0.00046076,0.00088
 575,0.,-0.13026668,0.13311061,0.00961048,0.,0.,-0.00092538,0.,0.,0.005
 79240,0.,0.,-0.00088057,0.,0.,0.00017836,0.,0.,0.00334944,0.,0.,0.0021
 2339,0.,0.,0.00011491,0.,0.,-0.00063231,0.,0.,-0.03719208,0.,0.,0.0000
 9155,0.,0.,0.00004442,0.,0.,0.00017049,0.,0.,-0.00510233,0.,0.,-0.0026
 7867,0.,0.,0.00008210,0.,0.,-0.00003155,0.,0.,0.02588534,0.,-0.0027662
 8,0.00410760,0.,-0.00003819,0.00067557,0.,0.00162258,0.00052656,0.,0.0
 0027790,-0.00007506,0.,-0.00042190,-0.00119807,0.,-0.01898804,-0.01650
 214,0.,0.00387178,0.00259623,0.,-0.00003509,0.00026337,0.,-0.00051516,
 0.00016912,0.,-0.27286226,-0.12082917,0.,0.00003771,0.00016531,0.,-0.0
 0001761,-0.00003574,0.,-0.00000341,0.00005820,0.,0.00085807,0.00035466
 ,0.,0.00065788,-0.00046076,0.,-0.00002073,-0.00001341,0.,-0.00012391,-
 0.00006893,0.,0.28846665,0.,0.00341281,-0.00134050,0.,0.00118544,-0.00
 046922,0.,0.00123307,-0.00581168,0.,-0.00048298,0.00008365,0.,0.000091
 66,0.00064590,0.,0.01561286,0.01198809,0.,-0.02898676,-0.00968231,0.,0
 .00016361,-0.00032321,0.,0.00032724,0.00019650,0.,-0.12166970,-0.12950
 293,0.,-0.00137520,-0.00068257,0.,0.00006490,0.00004237,0.,-0.00001209
 ,-0.00001533,0.,-0.00034782,0.00082470,0.,0.00046076,0.00088575,0.,-0.
 00001341,0.00000261,0.,0.00006893,0.00004759,0.,0.13026668,0.13311061\
 \0.,0.,-0.00001029,0.,0.,0.00001029,0.,0.00000047,-0.00000106,0.,-0.00
 000047,-0.00000106,0.,-0.00000047,0.00000106,0.,0.00000047,0.00000106,
 0.,0.00000435,0.00000290,0.,-0.00000435,0.00000290,0.,-0.00000435,-0.0
 0000290,0.,0.00000435,-0.00000290,0.,0.00000119,0.00000064,0.,-0.00000
 119,0.00000064,0.,-0.00000119,-0.00000064,0.,0.00000119,-0.00000064,0.
 ,-0.00000102,-0.00000198,0.,0.00000102,-0.00000198,0.,0.00000102,0.000
 00198,0.,-0.00000102,0.00000198\\\@


 LET US PLACE AT THE END OF EVERY CHAPTER.....THE
 TWO LETTERS USED BY THE ROMAN JUDGES WHEN THEY DID
 NOT UNDERSTAND A PLEADING.
 N. L. -NON LIQUET- IT IS NOT CLEAR.
                                              -- VOLTAIRE
 Job cpu time:       0 days  2 hours  1 minutes 55.4 seconds.
 File lengths (MBytes):  RWF=    107 Int=      0 D2E=      0 Chk=     10 Scr=      1
 Normal termination of Gaussian 09 at Fri Jul  9 19:55:42 2021.
