 Entering Gaussian System, Link 0=g09
 Initial command:
 /home/minenky/programs//g09/l1.exe "/local/scratch/minenky/m1_00_192-60-9-C32H18_wB97XD/Gau-239165.inp" -scrdir="/local/scratch/minenky/m1_00_192-60-9-C32H18_wB97XD/"
 Entering Link 1 = /home/minenky/programs//g09/l1.exe PID=    239166.
  
 Copyright (c) 1988,1990,1992,1993,1995,1998,2003,2009,2013,
            Gaussian, Inc.  All Rights Reserved.
  
 This is part of the Gaussian(R) 09 program.  It is based on
 the Gaussian(R) 03 system (copyright 2003, Gaussian, Inc.),
 the Gaussian(R) 98 system (copyright 1998, Gaussian, Inc.),
 the Gaussian(R) 94 system (copyright 1995, Gaussian, Inc.),
 the Gaussian 92(TM) system (copyright 1992, Gaussian, Inc.),
 the Gaussian 90(TM) system (copyright 1990, Gaussian, Inc.),
 the Gaussian 88(TM) system (copyright 1988, Gaussian, Inc.),
 the Gaussian 86(TM) system (copyright 1986, Carnegie Mellon
 University), and the Gaussian 82(TM) system (copyright 1983,
 Carnegie Mellon University). Gaussian is a federally registered
 trademark of Gaussian, Inc.
  
 This software contains proprietary and confidential information,
 including trade secrets, belonging to Gaussian, Inc.
  
 This software is provided under written license and may be
 used, copied, transmitted, or stored only in accord with that
 written license.
  
 The following legend is applicable only to US Government
 contracts under FAR:
  
                    RESTRICTED RIGHTS LEGEND
  
 Use, reproduction and disclosure by the US Government is
 subject to restrictions as set forth in subparagraphs (a)
 and (c) of the Commercial Computer Software - Restricted
 Rights clause in FAR 52.227-19.
  
 Gaussian, Inc.
 340 Quinnipiac St., Bldg. 40, Wallingford CT 06492
  
  
 ---------------------------------------------------------------
 Warning -- This program may not be used in any manner that
 competes with the business of Gaussian, Inc. or will provide
 assistance to any competitor of Gaussian, Inc.  The licensee
 of this program is prohibited from giving any competitor of
 Gaussian, Inc. access to this program.  By using this program,
 the user acknowledges that Gaussian, Inc. is engaged in the
 business of creating and licensing software in the field of
 computational chemistry and represents and warrants to the
 licensee that it is not a competitor of Gaussian, Inc. and that
 it will not use this program in any manner prohibited above.
 ---------------------------------------------------------------
  

 Cite this work as:
 Gaussian 09, Revision D.01,
 M. J. Frisch, G. W. Trucks, H. B. Schlegel, G. E. Scuseria, 
 M. A. Robb, J. R. Cheeseman, G. Scalmani, V. Barone, B. Mennucci, 
 G. A. Petersson, H. Nakatsuji, M. Caricato, X. Li, H. P. Hratchian, 
 A. F. Izmaylov, J. Bloino, G. Zheng, J. L. Sonnenberg, M. Hada, 
 M. Ehara, K. Toyota, R. Fukuda, J. Hasegawa, M. Ishida, T. Nakajima, 
 Y. Honda, O. Kitao, H. Nakai, T. Vreven, J. A. Montgomery, Jr., 
 J. E. Peralta, F. Ogliaro, M. Bearpark, J. J. Heyd, E. Brothers, 
 K. N. Kudin, V. N. Staroverov, T. Keith, R. Kobayashi, J. Normand, 
 K. Raghavachari, A. Rendell, J. C. Burant, S. S. Iyengar, J. Tomasi, 
 M. Cossi, N. Rega, J. M. Millam, M. Klene, J. E. Knox, J. B. Cross, 
 V. Bakken, C. Adamo, J. Jaramillo, R. Gomperts, R. E. Stratmann, 
 O. Yazyev, A. J. Austin, R. Cammi, C. Pomelli, J. W. Ochterski, 
 R. L. Martin, K. Morokuma, V. G. Zakrzewski, G. A. Voth, 
 P. Salvador, J. J. Dannenberg, S. Dapprich, A. D. Daniels, 
 O. Farkas, J. B. Foresman, J. V. Ortiz, J. Cioslowski, 
 and D. J. Fox, Gaussian, Inc., Wallingford CT, 2013.
 
 ******************************************
 Gaussian 09:  AM64L-G09RevD.01 24-Apr-2013
                27-Jul-2019 
 ******************************************
 %Mem=32000MB
 %NProcShared=16
 Will use up to   16 processors via shared memory.
 %Chk=m1_00_192-60-9-C32H18_wB97XD
 ----------------------------------------------------------------------
 #P wB97XD/def2tzvp opt=(tight) freq integral(Grid=ultrafine) # SCF(Max
 Cycle=380) 5d 7f GFPrint
 ----------------------------------------------------------------------
 1/7=10,14=-1,18=20,19=15,26=4,38=1/1,3;
 2/9=110,12=2,17=6,18=5,40=1/2;
 3/5=44,7=101,8=11,11=2,16=1,24=100,25=1,30=1,71=1,74=-58,75=-5/1,2,3;
 4//1;
 5/5=2,7=380,38=5/2;
 6/7=2,8=2,9=2,10=2,28=1/1;
 7//1,2,3,16;
 1/7=10,14=-1,18=20,19=15,26=4/3(2);
 2/9=110/2;
 99//99;
 2/9=110/2;
 3/5=44,7=101,8=11,11=2,16=1,25=1,30=1,71=1,74=-58,75=-5/1,2,3;
 4/5=5,16=3,69=1/1;
 5/5=2,7=380,38=5/2;
 7//1,2,3,16;
 1/7=10,14=-1,18=20,19=15,26=4/3(-5);
 2/9=110/2;
 6/7=2,8=2,9=2,10=2,19=2,28=1/1;
 99/9=1/99;
 Leave Link    1 at Sat Jul 27 14:34:55 2019, MaxMem=  4194304000 cpu:         1.1
 (Enter /home/minenky/programs//g09/l101.exe)
 ---------------------------------------
 The PBEPBE optimization and frequencies
 ---------------------------------------
 Symbolic Z-matrix:
 Charge =  0 Multiplicity = 1
 C                     2.9269    1.7828    3.0554 
 C                     3.8069    1.3267    2.0412 
 C                     3.4457    2.5965    4.1591 
 C                     1.563     1.4211    2.9789 
 C                     5.2298    1.6752    2.0997 
 C                     3.2816    0.5284    1.0002 
 C                     5.7486    2.3632    3.2356 
 C                     4.8478    2.827     4.2762 
 C                     5.3527    3.5642    5.3878 
 C                     7.1447    2.6444    3.3156 
 C                     6.1031    1.3432    1.0506 
 C                     2.5836    3.1589    5.1152 
 C                     7.7005    3.2826    4.5198 
 C                     6.8039    3.7391    5.5584 
 C                     7.3401    4.3083    6.7009 
 C                     9.0646    3.4362    4.7012 
 C                     7.967     2.296     2.2368 
 C                     4.4461    4.108     6.3062 
 C                     9.626     4.0337    5.8565 
 C                     8.7325    4.4837    6.8938 
 C                     9.2675    5.0666    8.0538 
 C                     11.0106   4.1908    6.03 
 C                     7.4513    1.6599    1.1136 
 C                     3.0766    3.9144    6.1677 
 C                     11.5436   4.7745    7.1827 
 C                     10.6455   5.2252    8.226 
 C                     12.9521   4.9437    7.3731 
 C                     11.2059   5.8192    9.4014 
 C                     1.0706    0.6467    1.9439 
 C                     1.9404    0.1944    0.9429 
 C                     13.4455   5.5175    8.5139 
 C                     12.5601   5.9613    9.5424 
 H                     0.8752    1.7361    3.7546 
 H                     3.9385    0.1448    0.2286 
 H                     5.7278    0.8527    0.1608 
 H                     1.5119    3.0286    5.0294 
 H                     6.6928    4.6268    7.5105 
 H                     9.7617    3.0756    3.953 
 H                     9.023     2.5368    2.2543 
 H                     4.8013    4.7099    7.134 
 H                     8.5917    5.4043    8.8371 
 H                     11.685    3.8504    5.2466 
 H                     8.1068    1.4111    0.2836 
 H                     2.3919    4.357     6.886 
 H                     13.6248   4.605     6.5886 
 H                     10.5295   6.1564    10.1834 
 H                     0.0169    0.3833    1.9177 
 H                     1.5701   -0.4246    0.1304 
 H                     14.5173   5.6391    8.6443 
 H                     12.971    6.414     10.4407 
 
 NAtoms=     50 NQM=       50 NQMF=       0 NMMI=      0 NMMIF=      0
                NMic=       0 NMicF=      0.
                    Isotopes and Nuclear Properties:
 (Nuclear quadrupole moments (NQMom) in fm**2, nuclear magnetic moments (NMagM)
  in nuclear magnetons)

  Atom         1           2           3           4           5           6           7           8           9          10
 IAtWgt=          12          12          12          12          12          12          12          12          12          12
 AtmWgt=  12.0000000  12.0000000  12.0000000  12.0000000  12.0000000  12.0000000  12.0000000  12.0000000  12.0000000  12.0000000
 NucSpn=           0           0           0           0           0           0           0           0           0           0
 AtZEff=   0.0000000   0.0000000   0.0000000   0.0000000   0.0000000   0.0000000   0.0000000   0.0000000   0.0000000   0.0000000
 NQMom=    0.0000000   0.0000000   0.0000000   0.0000000   0.0000000   0.0000000   0.0000000   0.0000000   0.0000000   0.0000000
 NMagM=    0.0000000   0.0000000   0.0000000   0.0000000   0.0000000   0.0000000   0.0000000   0.0000000   0.0000000   0.0000000
 AtZNuc=   6.0000000   6.0000000   6.0000000   6.0000000   6.0000000   6.0000000   6.0000000   6.0000000   6.0000000   6.0000000

  Atom        11          12          13          14          15          16          17          18          19          20
 IAtWgt=          12          12          12          12          12          12          12          12          12          12
 AtmWgt=  12.0000000  12.0000000  12.0000000  12.0000000  12.0000000  12.0000000  12.0000000  12.0000000  12.0000000  12.0000000
 NucSpn=           0           0           0           0           0           0           0           0           0           0
 AtZEff=   0.0000000   0.0000000   0.0000000   0.0000000   0.0000000   0.0000000   0.0000000   0.0000000   0.0000000   0.0000000
 NQMom=    0.0000000   0.0000000   0.0000000   0.0000000   0.0000000   0.0000000   0.0000000   0.0000000   0.0000000   0.0000000
 NMagM=    0.0000000   0.0000000   0.0000000   0.0000000   0.0000000   0.0000000   0.0000000   0.0000000   0.0000000   0.0000000
 AtZNuc=   6.0000000   6.0000000   6.0000000   6.0000000   6.0000000   6.0000000   6.0000000   6.0000000   6.0000000   6.0000000

  Atom        21          22          23          24          25          26          27          28          29          30
 IAtWgt=          12          12          12          12          12          12          12          12          12          12
 AtmWgt=  12.0000000  12.0000000  12.0000000  12.0000000  12.0000000  12.0000000  12.0000000  12.0000000  12.0000000  12.0000000
 NucSpn=           0           0           0           0           0           0           0           0           0           0
 AtZEff=   0.0000000   0.0000000   0.0000000   0.0000000   0.0000000   0.0000000   0.0000000   0.0000000   0.0000000   0.0000000
 NQMom=    0.0000000   0.0000000   0.0000000   0.0000000   0.0000000   0.0000000   0.0000000   0.0000000   0.0000000   0.0000000
 NMagM=    0.0000000   0.0000000   0.0000000   0.0000000   0.0000000   0.0000000   0.0000000   0.0000000   0.0000000   0.0000000
 AtZNuc=   6.0000000   6.0000000   6.0000000   6.0000000   6.0000000   6.0000000   6.0000000   6.0000000   6.0000000   6.0000000

  Atom        31          32          33          34          35          36          37          38          39          40
 IAtWgt=          12          12           1           1           1           1           1           1           1           1
 AtmWgt=  12.0000000  12.0000000   1.0078250   1.0078250   1.0078250   1.0078250   1.0078250   1.0078250   1.0078250   1.0078250
 NucSpn=           0           0           1           1           1           1           1           1           1           1
 AtZEff=   0.0000000   0.0000000   0.0000000   0.0000000   0.0000000   0.0000000   0.0000000   0.0000000   0.0000000   0.0000000
 NQMom=    0.0000000   0.0000000   0.0000000   0.0000000   0.0000000   0.0000000   0.0000000   0.0000000   0.0000000   0.0000000
 NMagM=    0.0000000   0.0000000   2.7928460   2.7928460   2.7928460   2.7928460   2.7928460   2.7928460   2.7928460   2.7928460
 AtZNuc=   6.0000000   6.0000000   1.0000000   1.0000000   1.0000000   1.0000000   1.0000000   1.0000000   1.0000000   1.0000000

  Atom        41          42          43          44          45          46          47          48          49          50
 IAtWgt=           1           1           1           1           1           1           1           1           1           1
 AtmWgt=   1.0078250   1.0078250   1.0078250   1.0078250   1.0078250   1.0078250   1.0078250   1.0078250   1.0078250   1.0078250
 NucSpn=           1           1           1           1           1           1           1           1           1           1
 AtZEff=   0.0000000   0.0000000   0.0000000   0.0000000   0.0000000   0.0000000   0.0000000   0.0000000   0.0000000   0.0000000
 NQMom=    0.0000000   0.0000000   0.0000000   0.0000000   0.0000000   0.0000000   0.0000000   0.0000000   0.0000000   0.0000000
 NMagM=    2.7928460   2.7928460   2.7928460   2.7928460   2.7928460   2.7928460   2.7928460   2.7928460   2.7928460   2.7928460
 AtZNuc=   1.0000000   1.0000000   1.0000000   1.0000000   1.0000000   1.0000000   1.0000000   1.0000000   1.0000000   1.0000000
 Leave Link  101 at Sat Jul 27 14:34:55 2019, MaxMem=  4194304000 cpu:         3.3
 (Enter /home/minenky/programs//g09/l103.exe)

 GradGradGradGradGradGradGradGradGradGradGradGradGradGradGradGradGradGrad
 Berny optimization.
 Initialization pass.
                           ----------------------------
                           !    Initial Parameters    !
                           ! (Angstroms and Degrees)  !
 --------------------------                            --------------------------
 ! Name  Definition              Value          Derivative Info.                !
 --------------------------------------------------------------------------------
 ! R1    R(1,2)                  1.4181         estimate D2E/DX2                !
 ! R2    R(1,3)                  1.4661         estimate D2E/DX2                !
 ! R3    R(1,4)                  1.4131         estimate D2E/DX2                !
 ! R4    R(2,5)                  1.4661         estimate D2E/DX2                !
 ! R5    R(2,6)                  1.4131         estimate D2E/DX2                !
 ! R6    R(3,8)                  1.4257         estimate D2E/DX2                !
 ! R7    R(3,12)                 1.4049         estimate D2E/DX2                !
 ! R8    R(4,29)                 1.3832         estimate D2E/DX2                !
 ! R9    R(4,33)                 1.0835         estimate D2E/DX2                !
 ! R10   R(5,7)                  1.4258         estimate D2E/DX2                !
 ! R11   R(5,11)                 1.4048         estimate D2E/DX2                !
 ! R12   R(6,30)                 1.3833         estimate D2E/DX2                !
 ! R13   R(6,34)                 1.0835         estimate D2E/DX2                !
 ! R14   R(7,8)                  1.4524         estimate D2E/DX2                !
 ! R15   R(7,10)                 1.4264         estimate D2E/DX2                !
 ! R16   R(8,9)                  1.4262         estimate D2E/DX2                !
 ! R17   R(9,14)                 1.4716         estimate D2E/DX2                !
 ! R18   R(9,18)                 1.4004         estimate D2E/DX2                !
 ! R19   R(10,13)                1.4718         estimate D2E/DX2                !
 ! R20   R(10,17)                1.4005         estimate D2E/DX2                !
 ! R21   R(11,23)                1.3863         estimate D2E/DX2                !
 ! R22   R(11,35)                1.0831         estimate D2E/DX2                !
 ! R23   R(12,24)                1.3862         estimate D2E/DX2                !
 ! R24   R(12,36)                1.083          estimate D2E/DX2                !
 ! R25   R(13,14)                1.446          estimate D2E/DX2                !
 ! R26   R(13,16)                1.3847         estimate D2E/DX2                !
 ! R27   R(14,15)                1.3845         estimate D2E/DX2                !
 ! R28   R(15,20)                1.4166         estimate D2E/DX2                !
 ! R29   R(15,37)                1.0844         estimate D2E/DX2                !
 ! R30   R(16,19)                1.4166         estimate D2E/DX2                !
 ! R31   R(16,38)                1.0843         estimate D2E/DX2                !
 ! R32   R(17,23)                1.39           estimate D2E/DX2                !
 ! R33   R(17,39)                1.0832         estimate D2E/DX2                !
 ! R34   R(18,24)                1.39           estimate D2E/DX2                !
 ! R35   R(18,40)                1.0834         estimate D2E/DX2                !
 ! R36   R(19,20)                1.4411         estimate D2E/DX2                !
 ! R37   R(19,22)                1.4042         estimate D2E/DX2                !
 ! R38   R(20,21)                1.4041         estimate D2E/DX2                !
 ! R39   R(21,26)                1.3977         estimate D2E/DX2                !
 ! R40   R(21,41)                1.0883         estimate D2E/DX2                !
 ! R41   R(22,25)                1.3977         estimate D2E/DX2                !
 ! R42   R(22,42)                1.0883         estimate D2E/DX2                !
 ! R43   R(23,43)                1.0865         estimate D2E/DX2                !
 ! R44   R(24,44)                1.0866         estimate D2E/DX2                !
 ! R45   R(25,26)                1.4485         estimate D2E/DX2                !
 ! R46   R(25,27)                1.4313         estimate D2E/DX2                !
 ! R47   R(26,28)                1.4312         estimate D2E/DX2                !
 ! R48   R(27,31)                1.369          estimate D2E/DX2                !
 ! R49   R(27,45)                1.0875         estimate D2E/DX2                !
 ! R50   R(28,32)                1.3689         estimate D2E/DX2                !
 ! R51   R(28,46)                1.0875         estimate D2E/DX2                !
 ! R52   R(29,30)                1.4011         estimate D2E/DX2                !
 ! R53   R(29,47)                1.0864         estimate D2E/DX2                !
 ! R54   R(30,48)                1.0865         estimate D2E/DX2                !
 ! R55   R(31,32)                1.4278         estimate D2E/DX2                !
 ! R56   R(31,49)                1.0865         estimate D2E/DX2                !
 ! R57   R(32,50)                1.0866         estimate D2E/DX2                !
 ! A1    A(2,1,3)              119.8226         estimate D2E/DX2                !
 ! A2    A(2,1,4)              118.5479         estimate D2E/DX2                !
 ! A3    A(3,1,4)              121.625          estimate D2E/DX2                !
 ! A4    A(1,2,5)              119.8191         estimate D2E/DX2                !
 ! A5    A(1,2,6)              118.5462         estimate D2E/DX2                !
 ! A6    A(5,2,6)              121.6311         estimate D2E/DX2                !
 ! A7    A(1,3,8)              119.971          estimate D2E/DX2                !
 ! A8    A(1,3,12)             121.1564         estimate D2E/DX2                !
 ! A9    A(8,3,12)             118.8726         estimate D2E/DX2                !
 ! A10   A(1,4,29)             121.8285         estimate D2E/DX2                !
 ! A11   A(1,4,33)             119.9675         estimate D2E/DX2                !
 ! A12   A(29,4,33)            118.1943         estimate D2E/DX2                !
 ! A13   A(2,5,7)              119.9764         estimate D2E/DX2                !
 ! A14   A(2,5,11)             121.1546         estimate D2E/DX2                !
 ! A15   A(7,5,11)             118.869          estimate D2E/DX2                !
 ! A16   A(2,6,30)             121.8242         estimate D2E/DX2                !
 ! A17   A(2,6,34)             119.9489         estimate D2E/DX2                !
 ! A18   A(30,6,34)            118.2171         estimate D2E/DX2                !
 ! A19   A(5,7,8)              119.9493         estimate D2E/DX2                !
 ! A20   A(5,7,10)             119.7336         estimate D2E/DX2                !
 ! A21   A(8,7,10)             120.2595         estimate D2E/DX2                !
 ! A22   A(3,8,7)              119.9648         estimate D2E/DX2                !
 ! A23   A(3,8,9)              119.718          estimate D2E/DX2                !
 ! A24   A(7,8,9)              120.2604         estimate D2E/DX2                !
 ! A25   A(8,9,14)             120.059          estimate D2E/DX2                !
 ! A26   A(8,9,18)             118.861          estimate D2E/DX2                !
 ! A27   A(14,9,18)            121.0795         estimate D2E/DX2                !
 ! A28   A(7,10,13)            120.0645         estimate D2E/DX2                !
 ! A29   A(7,10,17)            118.8449         estimate D2E/DX2                !
 ! A30   A(13,10,17)           121.0896         estimate D2E/DX2                !
 ! A31   A(5,11,23)            121.1062         estimate D2E/DX2                !
 ! A32   A(5,11,35)            120.3391         estimate D2E/DX2                !
 ! A33   A(23,11,35)           118.5384         estimate D2E/DX2                !
 ! A34   A(3,12,24)            121.1088         estimate D2E/DX2                !
 ! A35   A(3,12,36)            120.3427         estimate D2E/DX2                !
 ! A36   A(24,12,36)           118.5327         estimate D2E/DX2                !
 ! A37   A(10,13,14)           119.3659         estimate D2E/DX2                !
 ! A38   A(10,13,16)           121.8234         estimate D2E/DX2                !
 ! A39   A(14,13,16)           118.7982         estimate D2E/DX2                !
 ! A40   A(9,14,13)            119.3838         estimate D2E/DX2                !
 ! A41   A(9,14,15)            121.7654         estimate D2E/DX2                !
 ! A42   A(13,14,15)           118.8397         estimate D2E/DX2                !
 ! A43   A(14,15,20)           122.953          estimate D2E/DX2                !
 ! A44   A(14,15,37)           120.376          estimate D2E/DX2                !
 ! A45   A(20,15,37)           116.6602         estimate D2E/DX2                !
 ! A46   A(13,16,19)           122.9584         estimate D2E/DX2                !
 ! A47   A(13,16,38)           120.4012         estimate D2E/DX2                !
 ! A48   A(19,16,38)           116.6287         estimate D2E/DX2                !
 ! A49   A(10,17,23)           121.2282         estimate D2E/DX2                !
 ! A50   A(10,17,39)           120.3073         estimate D2E/DX2                !
 ! A51   A(23,17,39)           118.4539         estimate D2E/DX2                !
 ! A52   A(9,18,24)            121.2249         estimate D2E/DX2                !
 ! A53   A(9,18,40)            120.3042         estimate D2E/DX2                !
 ! A54   A(24,18,40)           118.4592         estimate D2E/DX2                !
 ! A55   A(16,19,20)           118.2291         estimate D2E/DX2                !
 ! A56   A(16,19,22)           122.5945         estimate D2E/DX2                !
 ! A57   A(20,19,22)           119.174          estimate D2E/DX2                !
 ! A58   A(15,20,19)           118.212          estimate D2E/DX2                !
 ! A59   A(15,20,21)           122.5751         estimate D2E/DX2                !
 ! A60   A(19,20,21)           119.2114         estimate D2E/DX2                !
 ! A61   A(20,21,26)           121.6357         estimate D2E/DX2                !
 ! A62   A(20,21,41)           119.133          estimate D2E/DX2                !
 ! A63   A(26,21,41)           119.2312         estimate D2E/DX2                !
 ! A64   A(19,22,25)           121.6434         estimate D2E/DX2                !
 ! A65   A(19,22,42)           119.1489         estimate D2E/DX2                !
 ! A66   A(25,22,42)           119.2077         estimate D2E/DX2                !
 ! A67   A(11,23,17)           120.1364         estimate D2E/DX2                !
 ! A68   A(11,23,43)           119.9796         estimate D2E/DX2                !
 ! A69   A(17,23,43)           119.884          estimate D2E/DX2                !
 ! A70   A(12,24,18)           120.1291         estimate D2E/DX2                !
 ! A71   A(12,24,44)           119.9877         estimate D2E/DX2                !
 ! A72   A(18,24,44)           119.8832         estimate D2E/DX2                !
 ! A73   A(22,25,26)           119.1772         estimate D2E/DX2                !
 ! A74   A(22,25,27)           122.2986         estimate D2E/DX2                !
 ! A75   A(26,25,27)           118.5241         estimate D2E/DX2                !
 ! A76   A(21,26,25)           119.1578         estimate D2E/DX2                !
 ! A77   A(21,26,28)           122.2955         estimate D2E/DX2                !
 ! A78   A(25,26,28)           118.5467         estimate D2E/DX2                !
 ! A79   A(25,27,31)           121.0013         estimate D2E/DX2                !
 ! A80   A(25,27,45)           118.4193         estimate D2E/DX2                !
 ! A81   A(31,27,45)           120.5794         estimate D2E/DX2                !
 ! A82   A(26,28,32)           120.9981         estimate D2E/DX2                !
 ! A83   A(26,28,46)           118.4034         estimate D2E/DX2                !
 ! A84   A(32,28,46)           120.5985         estimate D2E/DX2                !
 ! A85   A(4,29,30)            119.6238         estimate D2E/DX2                !
 ! A86   A(4,29,47)            119.9352         estimate D2E/DX2                !
 ! A87   A(30,29,47)           120.437          estimate D2E/DX2                !
 ! A88   A(6,30,29)            119.6264         estimate D2E/DX2                !
 ! A89   A(6,30,48)            119.9321         estimate D2E/DX2                !
 ! A90   A(29,30,48)           120.438          estimate D2E/DX2                !
 ! A91   A(27,31,32)           120.4672         estimate D2E/DX2                !
 ! A92   A(27,31,49)           120.1621         estimate D2E/DX2                !
 ! A93   A(32,31,49)           119.3708         estimate D2E/DX2                !
 ! A94   A(28,32,31)           120.4626         estimate D2E/DX2                !
 ! A95   A(28,32,50)           120.1643         estimate D2E/DX2                !
 ! A96   A(31,32,50)           119.3731         estimate D2E/DX2                !
 ! D1    D(3,1,2,5)             -0.2035         estimate D2E/DX2                !
 ! D2    D(3,1,2,6)            179.1151         estimate D2E/DX2                !
 ! D3    D(4,1,2,5)           -179.442          estimate D2E/DX2                !
 ! D4    D(4,1,2,6)             -0.1234         estimate D2E/DX2                !
 ! D5    D(2,1,3,8)             -5.6074         estimate D2E/DX2                !
 ! D6    D(2,1,3,12)           174.4755         estimate D2E/DX2                !
 ! D7    D(4,1,3,8)            173.607          estimate D2E/DX2                !
 ! D8    D(4,1,3,12)            -6.3101         estimate D2E/DX2                !
 ! D9    D(2,1,4,29)            -0.3711         estimate D2E/DX2                !
 ! D10   D(2,1,4,33)           178.4672         estimate D2E/DX2                !
 ! D11   D(3,1,4,29)          -179.5952         estimate D2E/DX2                !
 ! D12   D(3,1,4,33)            -0.7569         estimate D2E/DX2                !
 ! D13   D(1,2,5,7)              5.8429         estimate D2E/DX2                !
 ! D14   D(1,2,5,11)          -174.1503         estimate D2E/DX2                !
 ! D15   D(6,2,5,7)           -173.4541         estimate D2E/DX2                !
 ! D16   D(6,2,5,11)             6.5527         estimate D2E/DX2                !
 ! D17   D(1,2,6,30)             0.5303         estimate D2E/DX2                !
 ! D18   D(1,2,6,34)          -178.3076         estimate D2E/DX2                !
 ! D19   D(5,2,6,30)           179.836          estimate D2E/DX2                !
 ! D20   D(5,2,6,34)             0.998          estimate D2E/DX2                !
 ! D21   D(1,3,8,7)              5.7909         estimate D2E/DX2                !
 ! D22   D(1,3,8,9)           -176.9434         estimate D2E/DX2                !
 ! D23   D(12,3,8,7)          -174.29           estimate D2E/DX2                !
 ! D24   D(12,3,8,9)             2.9756         estimate D2E/DX2                !
 ! D25   D(1,3,12,24)          179.1966         estimate D2E/DX2                !
 ! D26   D(1,3,12,36)           -2.2663         estimate D2E/DX2                !
 ! D27   D(8,3,12,24)           -0.7215         estimate D2E/DX2                !
 ! D28   D(8,3,12,36)          177.8157         estimate D2E/DX2                !
 ! D29   D(1,4,29,30)            0.4689         estimate D2E/DX2                !
 ! D30   D(1,4,29,47)          179.7487         estimate D2E/DX2                !
 ! D31   D(33,4,29,30)        -178.3892         estimate D2E/DX2                !
 ! D32   D(33,4,29,47)           0.8907         estimate D2E/DX2                !
 ! D33   D(2,5,7,8)             -5.675          estimate D2E/DX2                !
 ! D34   D(2,5,7,10)           177.0771         estimate D2E/DX2                !
 ! D35   D(11,5,7,8)           174.3183         estimate D2E/DX2                !
 ! D36   D(11,5,7,10)           -2.9296         estimate D2E/DX2                !
 ! D37   D(2,5,11,23)         -179.268          estimate D2E/DX2                !
 ! D38   D(2,5,11,35)            2.2197         estimate D2E/DX2                !
 ! D39   D(7,5,11,23)            0.7388         estimate D2E/DX2                !
 ! D40   D(7,5,11,35)         -177.7736         estimate D2E/DX2                !
 ! D41   D(2,6,30,29)           -0.442          estimate D2E/DX2                !
 ! D42   D(2,6,30,48)         -179.7647         estimate D2E/DX2                !
 ! D43   D(34,6,30,29)         178.4153         estimate D2E/DX2                !
 ! D44   D(34,6,30,48)          -0.9074         estimate D2E/DX2                !
 ! D45   D(5,7,8,3)             -0.1448         estimate D2E/DX2                !
 ! D46   D(5,7,8,9)           -177.3954         estimate D2E/DX2                !
 ! D47   D(10,7,8,3)           177.0885         estimate D2E/DX2                !
 ! D48   D(10,7,8,9)            -0.1622         estimate D2E/DX2                !
 ! D49   D(5,7,10,13)         -176.3723         estimate D2E/DX2                !
 ! D50   D(5,7,10,17)            3.2651         estimate D2E/DX2                !
 ! D51   D(8,7,10,13)            6.3884         estimate D2E/DX2                !
 ! D52   D(8,7,10,17)         -173.9741         estimate D2E/DX2                !
 ! D53   D(3,8,9,14)           176.4115         estimate D2E/DX2                !
 ! D54   D(3,8,9,18)            -3.3624         estimate D2E/DX2                !
 ! D55   D(7,8,9,14)            -6.3311         estimate D2E/DX2                !
 ! D56   D(7,8,9,18)           173.8951         estimate D2E/DX2                !
 ! D57   D(8,9,14,13)            6.5419         estimate D2E/DX2                !
 ! D58   D(8,9,14,15)         -172.2319         estimate D2E/DX2                !
 ! D59   D(18,9,14,13)        -173.6894         estimate D2E/DX2                !
 ! D60   D(18,9,14,15)           7.5368         estimate D2E/DX2                !
 ! D61   D(8,9,18,24)            1.5136         estimate D2E/DX2                !
 ! D62   D(8,9,18,40)         -177.2194         estimate D2E/DX2                !
 ! D63   D(14,9,18,24)        -178.2579         estimate D2E/DX2                !
 ! D64   D(14,9,18,40)           3.0091         estimate D2E/DX2                !
 ! D65   D(7,10,13,14)          -6.0651         estimate D2E/DX2                !
 ! D66   D(7,10,13,16)         172.6319         estimate D2E/DX2                !
 ! D67   D(17,10,13,14)        174.3057         estimate D2E/DX2                !
 ! D68   D(17,10,13,16)         -6.9973         estimate D2E/DX2                !
 ! D69   D(7,10,17,23)          -1.4263         estimate D2E/DX2                !
 ! D70   D(7,10,17,39)         177.3717         estimate D2E/DX2                !
 ! D71   D(13,10,17,23)        178.2073         estimate D2E/DX2                !
 ! D72   D(13,10,17,39)         -2.9947         estimate D2E/DX2                !
 ! D73   D(5,11,23,17)           1.1221         estimate D2E/DX2                !
 ! D74   D(5,11,23,43)        -178.8536         estimate D2E/DX2                !
 ! D75   D(35,11,23,17)        179.6606         estimate D2E/DX2                !
 ! D76   D(35,11,23,43)         -0.3151         estimate D2E/DX2                !
 ! D77   D(3,12,24,18)          -1.1514         estimate D2E/DX2                !
 ! D78   D(3,12,24,44)         178.8128         estimate D2E/DX2                !
 ! D79   D(36,12,24,18)       -179.7145         estimate D2E/DX2                !
 ! D80   D(36,12,24,44)          0.2498         estimate D2E/DX2                !
 ! D81   D(10,13,14,9)          -0.3676         estimate D2E/DX2                !
 ! D82   D(10,13,14,15)        178.4422         estimate D2E/DX2                !
 ! D83   D(16,13,14,9)        -179.1043         estimate D2E/DX2                !
 ! D84   D(16,13,14,15)         -0.2944         estimate D2E/DX2                !
 ! D85   D(10,13,16,19)       -179.3112         estimate D2E/DX2                !
 ! D86   D(10,13,16,38)         -0.592          estimate D2E/DX2                !
 ! D87   D(14,13,16,19)         -0.607          estimate D2E/DX2                !
 ! D88   D(14,13,16,38)        178.1122         estimate D2E/DX2                !
 ! D89   D(9,14,15,20)         179.7355         estimate D2E/DX2                !
 ! D90   D(9,14,15,37)           0.9687         estimate D2E/DX2                !
 ! D91   D(13,14,15,20)          0.9552         estimate D2E/DX2                !
 ! D92   D(13,14,15,37)       -177.8116         estimate D2E/DX2                !
 ! D93   D(14,15,20,19)         -0.7049         estimate D2E/DX2                !
 ! D94   D(14,15,20,21)        179.7569         estimate D2E/DX2                !
 ! D95   D(37,15,20,19)        178.1047         estimate D2E/DX2                !
 ! D96   D(37,15,20,21)         -1.4336         estimate D2E/DX2                !
 ! D97   D(13,16,19,20)          0.8484         estimate D2E/DX2                !
 ! D98   D(13,16,19,22)       -179.7204         estimate D2E/DX2                !
 ! D99   D(38,16,19,20)       -177.9158         estimate D2E/DX2                !
 ! D100  D(38,16,19,22)          1.5154         estimate D2E/DX2                !
 ! D101  D(10,17,23,11)         -0.7705         estimate D2E/DX2                !
 ! D102  D(10,17,23,43)        179.2052         estimate D2E/DX2                !
 ! D103  D(39,17,23,11)       -179.5903         estimate D2E/DX2                !
 ! D104  D(39,17,23,43)          0.3855         estimate D2E/DX2                !
 ! D105  D(9,18,24,12)           0.7465         estimate D2E/DX2                !
 ! D106  D(9,18,24,44)        -179.2178         estimate D2E/DX2                !
 ! D107  D(40,18,24,12)        179.5022         estimate D2E/DX2                !
 ! D108  D(40,18,24,44)         -0.4621         estimate D2E/DX2                !
 ! D109  D(16,19,20,15)         -0.1944         estimate D2E/DX2                !
 ! D110  D(16,19,20,21)        179.3598         estimate D2E/DX2                !
 ! D111  D(22,19,20,15)       -179.6455         estimate D2E/DX2                !
 ! D112  D(22,19,20,21)         -0.0913         estimate D2E/DX2                !
 ! D113  D(16,19,22,25)       -179.5231         estimate D2E/DX2                !
 ! D114  D(16,19,22,42)          0.5455         estimate D2E/DX2                !
 ! D115  D(20,19,22,25)         -0.0971         estimate D2E/DX2                !
 ! D116  D(20,19,22,42)        179.9715         estimate D2E/DX2                !
 ! D117  D(15,20,21,26)        179.7348         estimate D2E/DX2                !
 ! D118  D(15,20,21,41)         -0.3547         estimate D2E/DX2                !
 ! D119  D(19,20,21,26)          0.201          estimate D2E/DX2                !
 ! D120  D(19,20,21,41)       -179.8885         estimate D2E/DX2                !
 ! D121  D(20,21,26,25)         -0.1221         estimate D2E/DX2                !
 ! D122  D(20,21,26,28)        179.8998         estimate D2E/DX2                !
 ! D123  D(41,21,26,25)        179.9675         estimate D2E/DX2                !
 ! D124  D(41,21,26,28)         -0.0106         estimate D2E/DX2                !
 ! D125  D(19,22,25,26)          0.176          estimate D2E/DX2                !
 ! D126  D(19,22,25,27)       -179.8854         estimate D2E/DX2                !
 ! D127  D(42,22,25,26)       -179.8927         estimate D2E/DX2                !
 ! D128  D(42,22,25,27)          0.0459         estimate D2E/DX2                !
 ! D129  D(22,25,26,21)         -0.0669         estimate D2E/DX2                !
 ! D130  D(22,25,26,28)        179.912          estimate D2E/DX2                !
 ! D131  D(27,25,26,21)        179.9922         estimate D2E/DX2                !
 ! D132  D(27,25,26,28)         -0.0289         estimate D2E/DX2                !
 ! D133  D(22,25,27,31)       -179.9123         estimate D2E/DX2                !
 ! D134  D(22,25,27,45)          0.0796         estimate D2E/DX2                !
 ! D135  D(26,25,27,31)          0.0266         estimate D2E/DX2                !
 ! D136  D(26,25,27,45)       -179.9814         estimate D2E/DX2                !
 ! D137  D(21,26,28,32)        179.9895         estimate D2E/DX2                !
 ! D138  D(21,26,28,46)          0.0021         estimate D2E/DX2                !
 ! D139  D(25,26,28,32)          0.0112         estimate D2E/DX2                !
 ! D140  D(25,26,28,46)       -179.9761         estimate D2E/DX2                !
 ! D141  D(25,27,31,32)         -0.006          estimate D2E/DX2                !
 ! D142  D(25,27,31,49)        179.9882         estimate D2E/DX2                !
 ! D143  D(45,27,31,32)       -179.9978         estimate D2E/DX2                !
 ! D144  D(45,27,31,49)         -0.0036         estimate D2E/DX2                !
 ! D145  D(26,28,32,31)          0.0097         estimate D2E/DX2                !
 ! D146  D(26,28,32,50)       -179.9831         estimate D2E/DX2                !
 ! D147  D(46,28,32,31)        179.9968         estimate D2E/DX2                !
 ! D148  D(46,28,32,50)          0.004          estimate D2E/DX2                !
 ! D149  D(4,29,30,6)           -0.0606         estimate D2E/DX2                !
 ! D150  D(4,29,30,48)         179.2586         estimate D2E/DX2                !
 ! D151  D(47,29,30,6)        -179.3368         estimate D2E/DX2                !
 ! D152  D(47,29,30,48)         -0.0175         estimate D2E/DX2                !
 ! D153  D(27,31,32,28)         -0.0127         estimate D2E/DX2                !
 ! D154  D(27,31,32,50)        179.9802         estimate D2E/DX2                !
 ! D155  D(49,31,32,28)        179.993          estimate D2E/DX2                !
 ! D156  D(49,31,32,50)         -0.0141         estimate D2E/DX2                !
 --------------------------------------------------------------------------------
 Trust Radius=3.00D-01 FncErr=1.00D-07 GrdErr=1.00D-06
 Number of steps in this run=    300 maximum allowed number of steps=    300.
 GradGradGradGradGradGradGradGradGradGradGradGradGradGradGradGradGradGrad

 Leave Link  103 at Sat Jul 27 14:34:55 2019, MaxMem=  4194304000 cpu:         0.1
 (Enter /home/minenky/programs//g09/l202.exe)
                          Input orientation:                          
 ---------------------------------------------------------------------
 Center     Atomic      Atomic             Coordinates (Angstroms)
 Number     Number       Type             X           Y           Z
 ---------------------------------------------------------------------
      1          6           0        2.926900    1.782800    3.055400
      2          6           0        3.806900    1.326700    2.041200
      3          6           0        3.445700    2.596500    4.159100
      4          6           0        1.563000    1.421100    2.978900
      5          6           0        5.229800    1.675200    2.099700
      6          6           0        3.281600    0.528400    1.000200
      7          6           0        5.748600    2.363200    3.235600
      8          6           0        4.847800    2.827000    4.276200
      9          6           0        5.352700    3.564200    5.387800
     10          6           0        7.144700    2.644400    3.315600
     11          6           0        6.103100    1.343200    1.050600
     12          6           0        2.583600    3.158900    5.115200
     13          6           0        7.700500    3.282600    4.519800
     14          6           0        6.803900    3.739100    5.558400
     15          6           0        7.340100    4.308300    6.700900
     16          6           0        9.064600    3.436200    4.701200
     17          6           0        7.967000    2.296000    2.236800
     18          6           0        4.446100    4.108000    6.306200
     19          6           0        9.626000    4.033700    5.856500
     20          6           0        8.732500    4.483700    6.893800
     21          6           0        9.267500    5.066600    8.053800
     22          6           0       11.010600    4.190800    6.030000
     23          6           0        7.451300    1.659900    1.113600
     24          6           0        3.076600    3.914400    6.167700
     25          6           0       11.543600    4.774500    7.182700
     26          6           0       10.645500    5.225200    8.226000
     27          6           0       12.952100    4.943700    7.373100
     28          6           0       11.205900    5.819200    9.401400
     29          6           0        1.070600    0.646700    1.943900
     30          6           0        1.940400    0.194400    0.942900
     31          6           0       13.445500    5.517500    8.513900
     32          6           0       12.560100    5.961300    9.542400
     33          1           0        0.875200    1.736100    3.754600
     34          1           0        3.938500    0.144800    0.228600
     35          1           0        5.727800    0.852700    0.160800
     36          1           0        1.511900    3.028600    5.029400
     37          1           0        6.692800    4.626800    7.510500
     38          1           0        9.761700    3.075600    3.953000
     39          1           0        9.023000    2.536800    2.254300
     40          1           0        4.801300    4.709900    7.134000
     41          1           0        8.591700    5.404300    8.837100
     42          1           0       11.685000    3.850400    5.246600
     43          1           0        8.106800    1.411100    0.283600
     44          1           0        2.391900    4.357000    6.886000
     45          1           0       13.624800    4.605000    6.588600
     46          1           0       10.529500    6.156400   10.183400
     47          1           0        0.016900    0.383300    1.917700
     48          1           0        1.570100   -0.424600    0.130400
     49          1           0       14.517300    5.639100    8.644300
     50          1           0       12.971000    6.414000   10.440700
 ---------------------------------------------------------------------
                    Distance matrix (angstroms):
                    1          2          3          4          5
     1  C    0.000000
     2  C    1.418107   0.000000
     3  C    1.466088   2.495668   0.000000
     4  C    1.413118   2.433779   2.513761   0.000000
     5  C    2.495654   1.466124   2.876271   3.779283   0.000000
     6  C    2.433758   1.413119   3.779235   2.768710   2.513868
     7  C    2.886404   2.504221   2.492113   4.297987   1.425751
     8  C    2.504109   2.886104   1.425737   3.801244   2.491931
     9  C    3.807621   4.312266   2.466332   4.975691   3.794078
    10  C    4.312760   3.808062   3.794257   5.724090   2.466699
    11  C    3.781629   2.500819   4.277301   4.933246   1.404809
    12  C    2.500856   3.781917   1.404862   2.936895   4.277497
    13  C    5.213552   5.012896   4.324831   6.596094   3.813788
    14  C    5.012310   5.212713   3.813277   6.284423   4.324359
    15  C    6.256529   6.564011   4.955538   7.454133   5.705929
    16  C    6.566106   6.258514   5.707101   7.956189   4.957279
    17  C    5.131870   4.276007   4.922163   6.505949   2.810063
    18  C    4.275772   5.131708   2.809888   5.157773   4.922128
    19  C    7.602016   7.466344   6.568319   8.950879   6.245210
    20  C    7.465465   7.601047   6.244226   8.723972   6.568103
    21  C    8.716109   8.941832   7.427209   9.919859   7.953359
    22  C    8.943876   8.718193   7.954230  10.307162   7.429209
    23  C    4.925027   3.775330   5.118312   6.181298   2.430574
    24  C    3.775254   4.925194   2.430549   4.321571   5.118487
    25  C   10.011613   9.908525   8.914136  11.337090   8.677939
    26  C    9.907674  10.010819   8.676800  11.157735   8.914250
    27  C   11.363910  11.186891  10.305862  12.705483   9.905845
    28  C   11.185083  11.362231   9.903949  12.392631  10.305403
    29  C    2.443769   2.821206   3.788130   1.383249   4.287310
    30  C    2.821144   2.443806   4.287185   2.406765   3.788286
    31  C   12.425142  12.343470  11.291259  13.733555  11.108688
    32  C   12.342592  12.424413  11.107389  13.587831  11.291489
    33  H    2.168072   3.420265   2.740689   1.083515   4.658857
    34  H    3.420114   2.167885   4.658596   3.851765   2.740546
    35  H    4.133865   2.729549   4.922928   5.060665   2.164219
    36  H    2.729637   4.134347   2.164189   2.605996   4.923171
    37  H    6.489858   7.009445   5.088974   7.558225   6.334751
    38  H    7.013666   6.494095   6.337497   8.420506   5.092540
    39  H    6.194571   5.358867   5.893904   7.577693   3.892894
    40  H    5.358756   6.194472   3.892832   6.210286   5.893827
    41  H    8.867541   9.257721   7.499916   9.979329   8.402447
    42  H    9.261784   8.871759   8.404819  10.653584   7.503605
    43  H    5.886629   4.646011   6.176611   7.077151   3.412491
    44  H    4.646098   5.887022   3.412600   4.957017   6.176924
    45  H   11.614361  11.305629  10.656013  12.986692   9.960420
    46  H   11.302048  11.610976   9.957173  12.438891  10.654303
    47  H    3.423604   3.907602   4.656050   2.143268   5.373682
    48  H    3.907575   3.423665   5.373578   3.394203   4.656255
    49  H   13.432953  13.300767  12.326993  14.754734  12.033368
    50  H   13.299422  13.431789  12.031756  14.517230  12.326990
                    6          7          8          9         10
     6  C    0.000000
     7  C    3.801262   0.000000
     8  C    4.297525   1.452377   0.000000
     9  C    5.723336   2.496218   1.426199   0.000000
    10  C    4.976151   1.426383   2.496366   2.889863   0.000000
    11  C    2.937227   2.437272   3.765891   4.930238   2.812166
    12  C    4.933554   3.766067   2.437351   2.811849   4.930203
    13  C    6.284893   2.510852   2.899105   2.518906   1.471839
    14  C    6.594875   2.898648   2.510436   1.471624   2.518862
    15  C    7.953430   4.280723   3.779547   2.495531   3.777168
    16  C    7.456259   3.780895   4.281723   3.777037   2.496568
    17  C    5.158155   2.433807   3.764375   4.286222   1.400489
    18  C    6.505631   3.764229   2.433767   1.400393   4.285820
    19  C    8.724803   4.969298   5.175391   4.324489   3.813552
    20  C    8.949370   5.175191   4.968640   3.812685   4.325234
    21  C   10.304345   6.550273   6.230555   4.968946   5.729212
    22  C    9.922172   6.231969   6.551020   5.728602   4.970362
    23  C    4.321984   2.810107   4.259387   5.128281   2.431470
    24  C    6.181430   4.259462   2.810224   2.431361   5.128042
    25  C   11.158553   7.414580   7.554749   6.558486   6.232344
    26  C   11.335746   7.554784   7.413879   6.231214   6.559585
    27  C   12.394648   8.698753   8.930335   7.974667   7.448220
    28  C   12.703041   8.929902   8.697492   7.446742   7.975567
    29  C    2.406883   5.147674   4.945763   6.221626   6.539653
    30  C    1.383350   4.945963   5.147276   6.538844   6.222294
    31  C   13.588660   9.851514   9.955769   8.892766   8.658932
    32  C   13.732303   9.955832   9.850699   8.657563   8.893898
    33  H    3.851755   4.940915   4.152551   5.104635   6.350146
    34  H    1.083528   4.152085   4.940050   6.348984   5.104634
    35  H    2.606465   3.425848   4.648524   5.900378   3.894940
    36  H    5.061353   4.648667   3.425811   3.894491   5.900267
    37  H    8.415294   4.928506   4.135698   2.725957   4.661685
    38  H    7.562999   4.138496   4.930788   4.662259   2.727802
    39  H    6.210484   3.422686   4.648074   4.934113   2.160080
    40  H    7.577462   4.647784   3.422645   2.160066   4.933355
    41  H   10.648407   6.979134   6.439027   5.076885   6.340175
    42  H    9.984224   6.441796   6.981141   6.340337   5.079126
    43  H    4.957341   3.896396   5.344783   6.186579   3.411699
    44  H    7.077597   5.344913   3.896588   3.411667   6.186264
    45  H   12.443097   8.848887   9.249011   8.423350   7.519852
    46  H   12.982203   9.247556   8.846560   7.517748   8.423639
    47  H    3.394278   6.205582   5.905234   7.115510   7.607380
    48  H    2.143360   5.905418   6.205149   7.606500   7.116209
    49  H   14.518694  10.810905  10.976677   9.944843   9.576978
    50  H   14.752891  10.976589  10.809903   9.575576   9.945989
                   11         12         13         14         15
    11  C    0.000000
    12  C    5.674911   0.000000
    13  C    4.283492   5.152909   0.000000
    14  C    5.152836   4.282988   1.446020   0.000000
    15  C    6.499837   5.143915   2.437036   1.384487   0.000000
    16  C    5.145679   6.500127   1.384654   2.436659   2.780874
    17  C    2.406039   6.165288   2.501298   3.803731   4.936653
    18  C    6.165314   2.405863   3.803108   2.500902   2.927652
    19  C    6.538065   7.135138   2.461396   2.853051   2.452296
    20  C    7.135788   6.536626   2.853689   2.461142   1.416599
    21  C    8.539435   7.546470   4.257617   3.749480   2.473909
    22  C    7.548961   8.539087   3.749972   4.257084   3.733160
    23  C    1.386330   6.477214   3.781197   4.949591   6.184198
    24  C    6.477305   1.386213   4.949262   3.780839   4.314730
    25  C    8.886817   9.336290   4.907771   5.116167   4.256628
    26  C    9.337542   8.884869   5.116897   4.907390   3.753972
    27  C    9.992317  10.760549   6.203215   6.522619   5.687717
    28  C   10.761459   9.989633   6.523204   6.202666   4.951760
    29  C    5.158406   4.319428   7.585434   7.449717   8.680034
    30  C    4.319654   5.158493   7.450500   7.584284   8.901432
    31  C   11.271045  11.623039   7.345246   7.483885   6.482673
    32  C   11.624559  11.268722   7.484494   7.344676   6.168868
    33  H    5.898892   2.606573   7.040022   6.512694   7.555913
    34  H    2.607171   5.899103   6.512513   7.038201   8.414053
    35  H    1.083136   6.304810   5.366269   6.214771   7.570574
    36  H    6.304803   1.082996   6.214739   5.365623   6.196730
    37  H    7.270494   4.977722   3.430251   2.147335   1.084385
    38  H    4.981013   7.272054   2.147710   3.430178   3.864538
    39  H    3.376298   7.073728   2.727217   4.157765   5.073718
    40  H    7.073691   3.376292   4.156511   2.726788   2.606600
    41  H    9.127719   7.415634   4.892334   4.088887   2.707595
    42  H    7.419574   9.128577   4.089850   4.892315   4.604652
    43  H    2.146558   7.543534   4.648976   5.911061   7.082608
    44  H    7.543732   2.146608   5.910539   4.648663   4.951900
    45  H    9.893672  11.232551   6.412956   6.952393   6.292702
    46  H   11.232451   9.889842   6.952577   6.412025   5.071050
    47  H    6.222146   4.951354   8.614788   8.401158   9.587173
    48  H    4.951765   6.222289   8.401903   8.613492   9.943074
    49  H   12.120965  12.689332   8.308631   8.522284   7.553809
    50  H   12.690746  12.118362   8.522963   8.308133   7.080050
                   16         17         18         19         20
    16  C    0.000000
    17  C    2.928831   0.000000
    18  C    4.935371   5.678036   0.000000
    19  C    1.416649   4.344434   5.199915   0.000000
    20  C    2.452558   5.201891   4.342770   1.441122   0.000000
    21  C    3.733537   6.573052   5.217175   2.454288   1.404136
    22  C    2.474277   5.219400   6.570830   1.404244   2.453911
    23  C    4.316115   1.390017   6.479777   5.732307   6.559423
    24  C    6.183481   6.479754   1.390034   6.557875   5.730666
    25  C    3.754242   6.587637   7.182408   2.446381   2.840829
    26  C    4.257227   7.185060   6.585312   2.841405   2.446252
    27  C    4.952198   7.631718   8.613287   3.767110   4.271575
    28  C    5.688210   8.615968   7.629113   4.272050   3.766872
    29  C    8.904384   7.096923   6.511855   9.998754   9.895898
    30  C    8.682644   6.512358   7.096463   9.897077   9.997196
    31  C    6.169342   8.932749   9.372824   4.883853   5.089778
    32  C    6.483199   9.375648   8.929989   5.090230   4.883534
    33  H    8.417402   7.273983   4.988777   9.288350   8.896125
    34  H    7.557405   4.988922   7.273365   8.896317   9.286193
    35  H    6.198705   3.377411   7.071469   7.599719   8.218617
    36  H    7.570808   7.071325   3.377107   8.217843   7.598050
    37  H    3.864600   5.904924   2.601375   3.419232   2.135690
    38  H    1.084336   2.602704   5.904151   2.135341   3.419108
    39  H    2.607292   1.083248   6.311464   3.947172   5.039818
    40  H    5.071149   6.311191   1.083376   5.036565   3.945022
    41  H    4.604641   7.322277   5.027111   3.439811   2.154935
    42  H    2.708416   5.029769   7.320573   2.155240   3.439708
    43  H    4.953140   2.148856   7.546238   6.343754   7.316223
    44  H    7.081395   7.546159   2.148932   7.314137   6.341871
    45  H    5.071863   7.502023   9.196483   4.105211   4.903311
    46  H    6.292848   9.198780   7.499092   4.903492   4.104705
    47  H    9.946303   8.183174   7.262929  11.007923  10.841427
    48  H    9.589865   7.263533   8.182686  10.842610  11.006133
    49  H    7.080448   9.753912  10.451796   5.854396   6.153301
    50  H    7.554410  10.454756   9.751187   6.153840   5.854181
                   21         22         23         24         25
    21  C    0.000000
    22  C    2.810905   0.000000
    23  C    7.941698   6.576098   0.000000
    24  C    6.573597   7.940007   7.054410   0.000000
    25  C    2.454540   1.397681   7.954975   8.570886   0.000000
    26  C    1.397745   2.454730   8.573244   7.952549   1.448513
    27  C    3.748964   2.477942   8.956756  10.001897   1.431347
    28  C    2.477867   3.749155  10.004220   8.953804   2.475494
    29  C   11.138023  11.316380   6.513778   5.704593  12.416420
    30  C   11.313250  11.140841   5.704984   6.513669  12.334256
    31  C    4.227374   3.722718  10.275016  10.751217   2.437492
    32  C    3.722584   4.227597  10.753909  10.272058   2.830186
    33  H   10.000303  10.673768   7.087015   3.926093  11.610276
    34  H   10.670338  10.002048   3.926642   7.087007  11.297397
    35  H    9.622156   8.573121   2.128345   7.244703   9.925277
    36  H    8.570284   9.621705   7.244536   2.128064  10.407683
    37  H    2.667898   4.585343   7.092119   3.922694   4.864106
    38  H    4.585289   2.667836   3.924837   7.092182   4.061082
    39  H    6.331972   4.576263   2.130819   7.250666   5.970750
    40  H    4.573862   6.328008   7.250532   2.130996   6.742785
    41  H    1.088258   3.899163   8.658724   6.305698   3.442005
    42  H    3.899208   1.088303   6.309057   8.657775   2.149986
    43  H    8.665213   7.012838   1.086500   8.135850   8.409616
    44  H    7.010076   8.662699   8.135876   1.086584   9.166021
    45  H    4.620168   2.705113   8.761355  10.579159   2.170963
    46  H    2.704719   4.620148  10.580884   8.757747   3.455756
    47  H   12.048179  12.339753   7.585947   6.316085  13.411476
    48  H   12.336268  12.051151   6.316671   7.585872  13.275401
    49  H    5.313835   4.607503  11.066790  11.832065   3.424427
    50  H    4.607460   5.314138  11.834836  11.063710   3.916631
                   26         27         28         29         30
    26  C    0.000000
    27  C    2.475295   0.000000
    28  C    1.431240   2.815975   0.000000
    29  C   12.333132  13.751744  13.604902   0.000000
    30  C   12.414961  13.607383  13.748967   1.401117   0.000000
    31  C    2.829899   1.368983   2.427857  14.833332  14.765594
    32  C    2.437303   2.427970   1.368916  14.764511  14.831944
    33  H   11.297168  13.008987  12.461197   2.122171   3.378927
    34  H   11.608304  12.462677  13.005929   3.379202   2.122519
    35  H   10.409130  10.997457  11.834880   4.991131   3.922937
    36  H    9.923001  11.833795  10.994338   3.922818   4.991571
    37  H    4.061263   6.268823   5.036407   8.856487   9.239310
    38  H    4.864197   5.036421   6.268821   9.245067   8.861983
    39  H    6.746940   6.887170   8.162122   8.179822   7.574287
    40  H    5.967635   8.157657   6.884079   7.573959   8.179499
    41  H    2.150259   4.622611   2.706403  11.256905  11.562925
    42  H    3.442014   2.706076   4.622561  11.568795  11.262566
    43  H    9.169192   9.285322  10.591036   7.269733   6.319772
    44  H    8.406621  10.587696   9.281803   6.319534   7.269906
    45  H    3.455713   1.087512   3.903486  13.958844  13.705930
    46  H    2.170715   3.903514   1.087541  13.700983  13.953671
    47  H   13.274253  14.760692  14.517179   1.086439   2.164664
    48  H   13.409768  14.519823  14.757545   2.164709   1.086480
    49  H    3.916264   2.132928   3.401618  15.831398  15.720520
    50  H    3.424338   3.401810   2.132958  15.718679  15.829269
                   31         32         33         34         35
    31  C    0.000000
    32  C    1.427832   0.000000
    33  H   13.962892  13.707218   0.000000
    34  H   13.707485  13.961036   4.934442   0.000000
    35  H   12.292174  12.680400   6.102747   1.925439   0.000000
    36  H   12.678611  12.289452   1.923813   6.103472   6.797913
    37  H    6.884702   6.350962   7.503826   8.983349   8.318242
    38  H    6.350989   6.884744   8.989077   7.508023   5.966105
    39  H    8.223483   8.795151   8.323381   5.973045   4.251738
    40  H    8.790821   8.219816   5.973114   8.322807   8.022588
    41  H    4.865865   4.068894   9.941422  11.109495  10.207701
    42  H    4.068640   4.865758  11.115219   9.945856   8.386883
    43  H   10.634946  11.236618   8.028045   4.356749   2.446739
    44  H   11.232938  10.631206   4.356049   8.028423   8.284725
    45  H    2.138126   3.420244  13.372152  12.416416  10.851681
    46  H    3.420304   2.138289  12.412656  13.367074  12.314141
    47  H   15.817622  15.702930   2.437406   4.276551   5.993447
    48  H   15.704036  15.815991   4.276253   2.437863   4.349585
    49  H    1.086529   2.177390  15.008313  14.591859  13.120012
    50  H    2.177480   1.086609  14.590924  15.005863  13.750213
                   36         37         38         39         40
    36  H    0.000000
    37  H    5.962535   0.000000
    38  H    8.319859   4.947744   0.000000
    39  H    8.022448   6.117644   1.929136   0.000000
    40  H    4.251619   1.930396   6.115167   6.808567   0.000000
    41  H    8.382488   2.443398   5.535899   7.193180   4.213060
    42  H   10.208550   5.536253   2.443931   4.214932   7.189322
    43  H    8.284421   8.035434   4.355887   2.447505   8.290741
    44  H    2.446632   4.354369   8.034826   8.290794   2.447703
    45  H   12.314158   6.993068   4.920264   6.651329   8.840962
    46  H   10.847302   4.919790   6.992763   8.845432   6.648570
    47  H    4.349174   9.687845  10.312713   9.266105   8.295766
    48  H    5.994012  10.306531   9.693605   8.296177   9.265752
    49  H   13.748551   7.970762   7.155107   8.980184   9.876491
    50  H   13.116938   7.155135   7.970870   9.881120   8.976760
                   41         42         43         44         45
    41  H    0.000000
    42  H    4.987464   0.000000
    43  H    9.452150   6.586734   0.000000
    44  H    6.583399   9.450184   9.215753   0.000000
    45  H    5.570164   2.476532   8.966736  11.239573   0.000000
    46  H    2.476539   5.569992  11.242481   8.962769   4.991023
    47  H   12.108498  12.619307   8.317039   6.790797  14.993832
    48  H   12.612913  12.114550   6.791297   8.317282  14.571239
    49  H    5.933383   4.771345  11.352172  12.319120   2.468162
    50  H    4.771718   5.933339  12.322992  11.348326   4.305649
                   46         47         48         49         50
    46  H    0.000000
    47  H   14.565893   0.000000
    48  H   14.988103   2.501914   0.000000
    49  H    4.305691  16.826532  16.639860   0.000000
    50  H    2.468498  16.637896  16.824068   2.493705   0.000000
 Stoichiometry    C32H18
 Framework group  C1[X(C32H18)]
 Deg. of freedom   144
 Full point group                 C1      NOp   1
 Largest Abelian subgroup         C1      NOp   1
 Largest concise Abelian subgroup C1      NOp   1
                         Standard orientation:                         
 ---------------------------------------------------------------------
 Center     Atomic      Atomic             Coordinates (Angstroms)
 Number     Number       Type             X           Y           Z
 ---------------------------------------------------------------------
      1          6           0        4.520123   -0.709534    0.101390
      2          6           0        4.520161    0.708563    0.106936
      3          6           0        3.258264   -1.437979   -0.061383
      4          6           0        5.749379   -1.385555    0.271173
      5          6           0        3.258843    1.438284   -0.054625
      6          6           0        5.749100    1.383122    0.284652
      7          6           0        2.023888    0.726746   -0.091591
      8          6           0        2.023655   -0.725630   -0.093425
      9          6           0        0.795100   -1.444021   -0.186215
     10          6           0        0.795660    1.445842   -0.186055
     11          6           0        3.239165    2.837763   -0.175287
     12          6           0        3.237582   -2.837138   -0.186139
     13          6           0       -0.486409    0.724128   -0.144339
     14          6           0       -0.486341   -0.721886   -0.140311
     15          6           0       -1.697033   -1.389565   -0.067971
     16          6           0       -1.698138    1.391273   -0.081908
     17          6           0        0.836917    2.840201   -0.310276
     18          6           0        0.835213   -2.837832   -0.315755
     19          6           0       -2.944980    0.721042   -0.026494
     20          6           0       -2.944395   -0.720049   -0.017076
     21          6           0       -4.168021   -1.405379    0.051192
     22          6           0       -4.169801    1.405453    0.030898
     23          6           0        2.044814    3.528043   -0.312944
     24          6           0        2.042717   -3.526358   -0.323464
     25          6           0       -5.388345    0.723862    0.094909
     26          6           0       -5.387539   -0.724607    0.106108
     27          6           0       -6.644809    1.407129    0.151458
     28          6           0       -6.642848   -1.408756    0.173844
     29          6           0        6.941232   -0.702496    0.433333
     30          6           0        6.941034    0.698601    0.440796
     31          6           0       -7.822832    0.712659    0.215380
     32          6           0       -7.821830   -0.715127    0.226863
     33          1           0        5.772604   -2.468546    0.295554
     34          1           0        5.771673    2.465835    0.320105
     35          1           0        4.165476    3.399019   -0.186465
     36          1           0        4.163391   -3.398880   -0.200403
     37          1           0       -1.724260   -2.472856   -0.027582
     38          1           0       -1.727091    2.474824   -0.052540
     39          1           0       -0.079478    3.406018   -0.426458
     40          1           0       -0.081844   -3.402546   -0.433264
     41          1           0       -4.165997   -2.493599    0.060074
     42          1           0       -4.169743    2.493735    0.024234
     43          1           0        2.052052    4.608870   -0.423590
     44          1           0        2.049078   -4.606870   -0.437992
     45          1           0       -6.643442    2.494605    0.142642
     46          1           0       -6.639507   -2.496257    0.182514
     47          1           0        7.868213   -1.253458    0.565610
     48          1           0        7.867844    1.248419    0.579223
     49          1           0       -8.768914    1.245253    0.258005
     50          1           0       -8.767201   -1.248369    0.278295
 ---------------------------------------------------------------------
 Rotational constants (GHZ):      0.4135272      0.0661498      0.0572600
 Leave Link  202 at Sat Jul 27 14:34:56 2019, MaxMem=  4194304000 cpu:         1.7
 (Enter /home/minenky/programs//g09/l301.exe)
 Standard basis: def2TZVP (5D, 7F)
 ======================================================================================================
                                       Pseudopotential Parameters
 ======================================================================================================
  Center     Atomic      Valence      Angular      Power
  Number     Number     Electrons     Momentum     of R      Exponent        Coefficient   SO-Coeffient
 ======================================================================================================
    1          6
                                   No pseudopotential on this center.
    2          6
                                   No pseudopotential on this center.
    3          6
                                   No pseudopotential on this center.
    4          6
                                   No pseudopotential on this center.
    5          6
                                   No pseudopotential on this center.
    6          6
                                   No pseudopotential on this center.
    7          6
                                   No pseudopotential on this center.
    8          6
                                   No pseudopotential on this center.
    9          6
                                   No pseudopotential on this center.
   10          6
                                   No pseudopotential on this center.
   11          6
                                   No pseudopotential on this center.
   12          6
                                   No pseudopotential on this center.
   13          6
                                   No pseudopotential on this center.
   14          6
                                   No pseudopotential on this center.
   15          6
                                   No pseudopotential on this center.
   16          6
                                   No pseudopotential on this center.
   17          6
                                   No pseudopotential on this center.
   18          6
                                   No pseudopotential on this center.
   19          6
                                   No pseudopotential on this center.
   20          6
                                   No pseudopotential on this center.
   21          6
                                   No pseudopotential on this center.
   22          6
                                   No pseudopotential on this center.
   23          6
                                   No pseudopotential on this center.
   24          6
                                   No pseudopotential on this center.
   25          6
                                   No pseudopotential on this center.
   26          6
                                   No pseudopotential on this center.
   27          6
                                   No pseudopotential on this center.
   28          6
                                   No pseudopotential on this center.
   29          6
                                   No pseudopotential on this center.
   30          6
                                   No pseudopotential on this center.
   31          6
                                   No pseudopotential on this center.
   32          6
                                   No pseudopotential on this center.
   33          1
                                   No pseudopotential on this center.
   34          1
                                   No pseudopotential on this center.
   35          1
                                   No pseudopotential on this center.
   36          1
                                   No pseudopotential on this center.
   37          1
                                   No pseudopotential on this center.
   38          1
                                   No pseudopotential on this center.
   39          1
                                   No pseudopotential on this center.
   40          1
                                   No pseudopotential on this center.
   41          1
                                   No pseudopotential on this center.
   42          1
                                   No pseudopotential on this center.
   43          1
                                   No pseudopotential on this center.
   44          1
                                   No pseudopotential on this center.
   45          1
                                   No pseudopotential on this center.
   46          1
                                   No pseudopotential on this center.
   47          1
                                   No pseudopotential on this center.
   48          1
                                   No pseudopotential on this center.
   49          1
                                   No pseudopotential on this center.
   50          1
                                   No pseudopotential on this center.
 ======================================================================================================
 Ernie: Thresh=  0.10000D-02 Tol=  0.10000D-05 Strict=F.
 AO basis set (Overlap normalization):
 Atom C1       Shell     1 S   6     bf    1 -     1          8.541793698501         -1.340824237960          0.191599466358
      0.1357534968D+05  0.6064550360D-03
      0.2035233368D+04  0.4697908888D-02
      0.4632256236D+03  0.2433247765D-01
      0.1312001960D+03  0.9739996831D-01
      0.4285301589D+02  0.3019558425D+00
      0.1558418577D+02  0.6623360914D+00
 Atom C1       Shell     2 S   2     bf    2 -     2          8.541793698501         -1.340824237960          0.191599466358
      0.6206713851D+01  0.6559530854D+00
      0.2576489653D+01  0.3758563329D+00
 Atom C1       Shell     3 S   1     bf    3 -     3          8.541793698501         -1.340824237960          0.191599466358
      0.5769633942D+00  0.1000000000D+01
 Atom C1       Shell     4 S   1     bf    4 -     4          8.541793698501         -1.340824237960          0.191599466358
      0.2297283136D+00  0.1000000000D+01
 Atom C1       Shell     5 S   1     bf    5 -     5          8.541793698501         -1.340824237960          0.191599466358
      0.9516444003D-01  0.1000000000D+01
 Atom C1       Shell     6 P   4     bf    6 -     8          8.541793698501         -1.340824237960          0.191599466358
      0.3469723224D+02  0.1132722000D-01
      0.7958262283D+01  0.7616965920D-01
      0.2378082688D+01  0.3019225220D+00
      0.8143320818D+00  0.7278502735D+00
 Atom C1       Shell     7 P   1     bf    9 -    11          8.541793698501         -1.340824237960          0.191599466358
      0.2888754725D+00  0.1000000000D+01
 Atom C1       Shell     8 P   1     bf   12 -    14          8.541793698501         -1.340824237960          0.191599466358
      0.1005682367D+00  0.1000000000D+01
 Atom C1       Shell     9 D   1     bf   15 -    19          8.541793698501         -1.340824237960          0.191599466358
      0.1097000000D+01  0.1000000000D+01
 Atom C1       Shell    10 D   1     bf   20 -    24          8.541793698501         -1.340824237960          0.191599466358
      0.3180000000D+00  0.1000000000D+01
 Atom C1       Shell    11 F   1     bf   25 -    31          8.541793698501         -1.340824237960          0.191599466358
      0.7610000000D+00  0.1000000000D+01
 Atom C2       Shell    12 S   6     bf   32 -    32          8.541866795290          1.338990048391          0.202079857328
      0.1357534968D+05  0.6064550360D-03
      0.2035233368D+04  0.4697908888D-02
      0.4632256236D+03  0.2433247765D-01
      0.1312001960D+03  0.9739996831D-01
      0.4285301589D+02  0.3019558425D+00
      0.1558418577D+02  0.6623360914D+00
 Atom C2       Shell    13 S   2     bf   33 -    33          8.541866795290          1.338990048391          0.202079857328
      0.6206713851D+01  0.6559530854D+00
      0.2576489653D+01  0.3758563329D+00
 Atom C2       Shell    14 S   1     bf   34 -    34          8.541866795290          1.338990048391          0.202079857328
      0.5769633942D+00  0.1000000000D+01
 Atom C2       Shell    15 S   1     bf   35 -    35          8.541866795290          1.338990048391          0.202079857328
      0.2297283136D+00  0.1000000000D+01
 Atom C2       Shell    16 S   1     bf   36 -    36          8.541866795290          1.338990048391          0.202079857328
      0.9516444003D-01  0.1000000000D+01
 Atom C2       Shell    17 P   4     bf   37 -    39          8.541866795290          1.338990048391          0.202079857328
      0.3469723224D+02  0.1132722000D-01
      0.7958262283D+01  0.7616965920D-01
      0.2378082688D+01  0.3019225220D+00
      0.8143320818D+00  0.7278502735D+00
 Atom C2       Shell    18 P   1     bf   40 -    42          8.541866795290          1.338990048391          0.202079857328
      0.2888754725D+00  0.1000000000D+01
 Atom C2       Shell    19 P   1     bf   43 -    45          8.541866795290          1.338990048391          0.202079857328
      0.1005682367D+00  0.1000000000D+01
 Atom C2       Shell    20 D   1     bf   46 -    50          8.541866795290          1.338990048391          0.202079857328
      0.1097000000D+01  0.1000000000D+01
 Atom C2       Shell    21 D   1     bf   51 -    55          8.541866795290          1.338990048391          0.202079857328
      0.3180000000D+00  0.1000000000D+01
 Atom C2       Shell    22 F   1     bf   56 -    62          8.541866795290          1.338990048391          0.202079857328
      0.7610000000D+00  0.1000000000D+01
 Atom C3       Shell    23 S   6     bf   63 -    63          6.157226291064         -2.717385994592         -0.115997245351
      0.1357534968D+05  0.6064550360D-03
      0.2035233368D+04  0.4697908888D-02
      0.4632256236D+03  0.2433247765D-01
      0.1312001960D+03  0.9739996831D-01
      0.4285301589D+02  0.3019558425D+00
      0.1558418577D+02  0.6623360914D+00
 Atom C3       Shell    24 S   2     bf   64 -    64          6.157226291064         -2.717385994592         -0.115997245351
      0.6206713851D+01  0.6559530854D+00
      0.2576489653D+01  0.3758563329D+00
 Atom C3       Shell    25 S   1     bf   65 -    65          6.157226291064         -2.717385994592         -0.115997245351
      0.5769633942D+00  0.1000000000D+01
 Atom C3       Shell    26 S   1     bf   66 -    66          6.157226291064         -2.717385994592         -0.115997245351
      0.2297283136D+00  0.1000000000D+01
 Atom C3       Shell    27 S   1     bf   67 -    67          6.157226291064         -2.717385994592         -0.115997245351
      0.9516444003D-01  0.1000000000D+01
 Atom C3       Shell    28 P   4     bf   68 -    70          6.157226291064         -2.717385994592         -0.115997245351
      0.3469723224D+02  0.1132722000D-01
      0.7958262283D+01  0.7616965920D-01
      0.2378082688D+01  0.3019225220D+00
      0.8143320818D+00  0.7278502735D+00
 Atom C3       Shell    29 P   1     bf   71 -    73          6.157226291064         -2.717385994592         -0.115997245351
      0.2888754725D+00  0.1000000000D+01
 Atom C3       Shell    30 P   1     bf   74 -    76          6.157226291064         -2.717385994592         -0.115997245351
      0.1005682367D+00  0.1000000000D+01
 Atom C3       Shell    31 D   1     bf   77 -    81          6.157226291064         -2.717385994592         -0.115997245351
      0.1097000000D+01  0.1000000000D+01
 Atom C3       Shell    32 D   1     bf   82 -    86          6.157226291064         -2.717385994592         -0.115997245351
      0.3180000000D+00  0.1000000000D+01
 Atom C3       Shell    33 F   1     bf   87 -    93          6.157226291064         -2.717385994592         -0.115997245351
      0.7610000000D+00  0.1000000000D+01
 Atom C4       Shell    34 S   6     bf   94 -    94         10.864751685480         -2.618319296187          0.512442687430
      0.1357534968D+05  0.6064550360D-03
      0.2035233368D+04  0.4697908888D-02
      0.4632256236D+03  0.2433247765D-01
      0.1312001960D+03  0.9739996831D-01
      0.4285301589D+02  0.3019558425D+00
      0.1558418577D+02  0.6623360914D+00
 Atom C4       Shell    35 S   2     bf   95 -    95         10.864751685480         -2.618319296187          0.512442687430
      0.6206713851D+01  0.6559530854D+00
      0.2576489653D+01  0.3758563329D+00
 Atom C4       Shell    36 S   1     bf   96 -    96         10.864751685480         -2.618319296187          0.512442687430
      0.5769633942D+00  0.1000000000D+01
 Atom C4       Shell    37 S   1     bf   97 -    97         10.864751685480         -2.618319296187          0.512442687430
      0.2297283136D+00  0.1000000000D+01
 Atom C4       Shell    38 S   1     bf   98 -    98         10.864751685480         -2.618319296187          0.512442687430
      0.9516444003D-01  0.1000000000D+01
 Atom C4       Shell    39 P   4     bf   99 -   101         10.864751685480         -2.618319296187          0.512442687430
      0.3469723224D+02  0.1132722000D-01
      0.7958262283D+01  0.7616965920D-01
      0.2378082688D+01  0.3019225220D+00
      0.8143320818D+00  0.7278502735D+00
 Atom C4       Shell    40 P   1     bf  102 -   104         10.864751685480         -2.618319296187          0.512442687430
      0.2888754725D+00  0.1000000000D+01
 Atom C4       Shell    41 P   1     bf  105 -   107         10.864751685480         -2.618319296187          0.512442687430
      0.1005682367D+00  0.1000000000D+01
 Atom C4       Shell    42 D   1     bf  108 -   112         10.864751685480         -2.618319296187          0.512442687430
      0.1097000000D+01  0.1000000000D+01
 Atom C4       Shell    43 D   1     bf  113 -   117         10.864751685480         -2.618319296187          0.512442687430
      0.3180000000D+00  0.1000000000D+01
 Atom C4       Shell    44 F   1     bf  118 -   124         10.864751685480         -2.618319296187          0.512442687430
      0.7610000000D+00  0.1000000000D+01
 Atom C5       Shell    45 S   6     bf  125 -   125          6.158320761800          2.717963365916         -0.103227095450
      0.1357534968D+05  0.6064550360D-03
      0.2035233368D+04  0.4697908888D-02
      0.4632256236D+03  0.2433247765D-01
      0.1312001960D+03  0.9739996831D-01
      0.4285301589D+02  0.3019558425D+00
      0.1558418577D+02  0.6623360914D+00
 Atom C5       Shell    46 S   2     bf  126 -   126          6.158320761800          2.717963365916         -0.103227095450
      0.6206713851D+01  0.6559530854D+00
      0.2576489653D+01  0.3758563329D+00
[...]
 07553,-0.00000992,-0.00002906,0.00008049,0.00000423,-0.00001189,0.0000
 0435,-0.00001757,0.00000218,0.00000171,0.00000102,-0.00000078,0.000001
 39,-0.00000001,-0.00000446,0.00001560,-0.00000427,-0.00000065,-0.00000
 256,-0.00000360,0.00000070,0.00000069,-0.00000049,-0.00000053,0.000000
 79,0.00000028,-0.00000507,0.00000243,-0.00000017,-0.00000159,-0.000003
 55,-0.00001736,-0.00000037,0.00000064,0.00000037,0.00000061,0.00000027
 ,-0.00000061,0.08058175,0.05651058,-0.00046712,-0.00630267,-0.00096940
 ,-0.00017792,-0.00024049,-0.00141062,-0.00100535,0.00003393,0.00065907
 ,-0.02390484,-0.00561534,0.00355816,0.00012831,0.00054833,-0.00016181,
 0.00354153,-0.00449783,-0.00106559,0.00013834,-0.00013232,-0.00012469,
 -0.00012654,0.00001116,-0.00034357,-0.00010565,-0.00001117,-0.00002578
 ,-0.00002974,-0.00001653,0.00004381,-0.00000763,0.00000177,-0.00000446
 ,-0.00000484,-0.00003905,0.00000901,0.00000236,-0.00000252,-0.00000932
 ,0.00001339,-0.00001187,-0.00003866,-0.00001954,0.00000226,0.00000443,
 0.00000040,0.00000247,0.00000496,0.00002008,-0.00000810,-0.00002981,-0
 .00007163,-0.00000728,0.00002503,-0.00000293,-0.00000024,-0.00000103,0
 .00000416,-0.00000130,-0.00000218,-0.00000361,0.00000097,0.00000144,0.
 00000065,0.00000039,-0.00000026,-0.00000206,0.00007033,0.00005278,0.00
 009225,0.00004429,0.00001486,-0.00000176,-0.00000031,-0.00000025,0.000
 00080,0.00000008,-0.00000029,0.00000111,0.00000008,-0.00000060,-0.0000
 0083,0.00000073,0.00000066,-0.00117186,-0.01161176,-0.05420790,0.02224
 693,0.00753715,0.00511919,-0.00000150,-0.00000006,-0.00000061,-0.00000
 044,0.00000036,0.00000009,-0.00048127,0.00247185,-0.00064009,0.0010890
 5,0.00027872,0.00004659,-0.00002300,-0.00003439,0.00008277,0.00002165,
 -0.00002943,0.00000365,0.00000207,0.00000008,0.00000220,-0.00000311,-0
 .00000064,0.00000056,0.00000350,-0.00000724,0.00000988,0.00000159,-0.0
 0000339,-0.00000247,0.00000043,-0.00000049,0.00000045,-0.00000068,-0.0
 0000030,0.00000040,-0.00000024,-0.00000128,-0.00000048,-0.00000319,-0.
 00001437,-0.00001215,-0.00000026,-0.00000023,0.00000026,0.00000024,-0.
 00000040,0.00000004,0.00124164,0.01590985,0.04977402,-0.00131250,0.000
 23291,0.00039806,-0.00504697,-0.00228040,0.00151446,0.00015287,0.00027
 388,0.00001684,-0.00165415,0.00038134,0.00393003,0.00040489,-0.0007860
 4,-0.00125246,-0.00556849,-0.01823202,-0.02410781,-0.00042605,0.000004
 92,0.00000010,-0.00012069,0.00004130,0.00017695,0.00003211,-0.00003131
 ,-0.00003730,-0.00004117,-0.00005311,-0.00010748,-0.00003233,-0.000003
 98,-0.00000973,-0.00002153,-0.00000429,-0.00003164,-0.00004700,0.00001
 337,0.00002932,-0.00000545,0.00000002,0.00000145,0.00000196,-0.0000006
 2,-0.00000138,-0.00000090,-0.00001170,-0.00002582,-0.00001674,-0.00003
 811,-0.00006491,-0.00003742,0.00001219,0.00002140,-0.00000272,0.000003
 41,0.00000696,0.00000025,-0.00000141,-0.00000370,-0.00000254,0.0000011
 8,0.00000248,0.00000224,-0.00000331,-0.00000703,0.00005008,0.00004892,
 0.00006575,0.00008548,0.00001252,-0.00001466,-0.00000124,0.00000087,0.
 00000168,-0.00000024,-0.00000136,-0.00000272,0.00000314,-0.00000099,-0
 .00000287,-0.00000149,0.00000182,0.00000361,0.01135684,0.01229499,0.01
 506598,-0.09197782,-0.05848055,-0.06778392,-0.00000149,-0.00000082,-0.
 00000191,-0.00000292,-0.00000117,-0.00000245,0.00031405,0.00056094,0.0
 0078427,0.00063924,0.00099276,-0.00043939,-0.00000719,-0.00001457,0.00
 002231,0.00004836,-0.00004201,-0.00001989,0.00000031,-0.00000137,-0.00
 000262,0.00000390,0.00000091,0.00000278,-0.00000621,-0.00000169,0.0000
 0334,0.00000517,-0.00000493,0.00000007,0.00000066,-0.00000065,-0.00000
 096,0.00000014,0.00000017,0.00000116,-0.00002640,-0.00000542,0.0000055
 2,-0.00000041,-0.00000202,-0.00000317,-0.00000040,0.00000023,0.0000009
 9,0.00000066,-0.00000044,-0.00000063,0.00056947,0.00034733,-0.00093258
 ,0.09269233,0.00045606,-0.00042845,0.00080153,-0.00232813,0.00619651,-
 0.00272981,0.00008319,-0.00072615,0.00033585,0.00067370,0.00470029,-0.
 00380241,-0.00002660,-0.00006005,-0.00040976,-0.00096654,-0.00152858,-
 0.00596146,-0.00010065,-0.00025604,0.00024026,0.00005293,0.00007235,-0
 .00006444,0.00000710,0.00003827,-0.00003123,0.00003203,-0.00001882,-0.
 00001666,-0.00004364,0.00007928,-0.00004789,-0.00003619,-0.00000633,-0
 .00004440,-0.00001223,-0.00000419,0.00001619,0.00000777,-0.00000682,-0
 .00000418,-0.00000752,-0.00000098,-0.00000066,-0.00000223,-0.00000520,
 -0.00000912,-0.00003672,0.00002666,0.00000726,-0.00001865,-0.00000913,
 -0.00000635,-0.00000194,0.00000306,0.00000371,0.00000380,-0.00000073,-
 0.00000168,-0.00000468,0.00000070,0.00000371,0.00000239,-0.00000342,-0
 .00000519,-0.00001618,-0.00004824,-0.00000510,0.00000754,-0.00004569,0
 .00005045,-0.00000216,0.00000050,0.00000165,0.00000107,-0.00000078,-0.
 00000206,0.00000430,-0.00000174,-0.00000296,-0.00000218,0.00000168,0.0
 0000459,-0.00495121,-0.00257803,-0.00540567,-0.05875655,-0.13874406,-0
 .13187188,-0.00000293,-0.00000167,-0.00000230,-0.00000344,-0.00000143,
 -0.00000178,-0.00024159,-0.00025448,-0.00026702,0.00065065,-0.00275896
 ,0.00255957,-0.00000769,0.00000876,-0.00002776,-0.00002202,0.00008123,
 -0.00002765,0.00000151,0.00000169,0.00000027,0.00000205,0.00000203,0.0
 0000145,-0.00000490,-0.00000108,-0.00000019,-0.00000430,0.00001073,-0.
 00001335,0.00000103,0.00000028,-0.00000081,-0.00000037,0.00000126,0.00
 000085,-0.00001323,0.00000547,0.00000151,0.00000121,-0.00000167,-0.000
 00686,-0.00000059,0.00000096,0.00000096,0.00000104,0.00000008,-0.00000
 090,0.00084893,-0.00192665,0.00167684,0.06477916,0.13818793,0.00053824
 ,0.00074761,-0.00010492,0.00104403,-0.00300974,0.00372098,-0.00014081,
 0.00045978,-0.00024131,0.00448242,-0.00354900,-0.00006489,0.00016078,-
 0.00005412,0.00004457,0.00185025,0.00051248,0.00275158,-0.00009425,0.0
 0019380,-0.00005657,-0.00000998,-0.00007708,-0.00000557,-0.00000932,-0
 .00001392,0.00004335,0.00001685,0.00000633,0.00000551,-0.00001189,-0.0
 0009007,-0.00000159,0.00008439,-0.00004775,-0.00001471,-0.00000863,0.0
 0001264,0.00000957,0.00001264,-0.00000127,-0.00001097,-0.00001097,0.00
 000087,-0.00000042,-0.00000384,-0.00000364,-0.00000957,-0.00003532,-0.
 00002029,0.00000198,0.00001089,-0.00000174,-0.00001665,-0.00000129,0.0
 0000138,0.00000511,0.00000601,-0.00000164,-0.00000197,-0.00000663,0.00
 000178,0.00000369,0.00000253,-0.00000266,-0.00000685,-0.00000175,0.000
 02022,-0.00002187,-0.00005764,0.00002649,-0.00002283,-0.00000286,0.000
 00113,0.00000190,0.00000184,-0.00000084,-0.00000230,0.00000506,-0.0000
 0131,-0.00000401,-0.00000288,0.00000263,0.00000500,-0.01054770,-0.0121
 0259,-0.01194383,-0.06855256,-0.13173425,-0.20931659,-0.00000391,-0.00
 000126,-0.00000300,-0.00000398,-0.00000100,-0.00000241,-0.00046198,-0.
 00055536,-0.00073621,-0.00081665,0.00239065,-0.00073631,0.00001687,-0.
 00001220,-0.00000279,-0.00005983,-0.00000571,0.00007185,0.00000212,-0.
 00000001,0.00000111,0.00000237,0.00000048,0.00000247,-0.00000437,-0.00
 000191,0.00000103,-0.00000595,-0.00001318,0.00000075,0.00000139,-0.000
 00073,-0.00000041,-0.00000052,0.00000004,0.00000178,-0.00000825,-0.000
 00489,0.00000590,0.00000255,-0.00000470,-0.00000244,-0.00000073,0.0000
 0027,0.00000157,0.00000131,-0.00000068,-0.00000072,-0.00017786,0.00186
 972,-0.00036222,0.07280262,0.14506683,0.21701600,0.00000049,0.00000369
 ,0.00000578,0.00000698,0.00000006,-0.00000159,0.00000017,0.00000590,0.
 00000588,-0.00000117,-0.00000344,-0.00000480,0.00001010,0.00000419,-0.
 00000337,-0.00000630,-0.00000093,0.00000079,-0.00000228,-0.00000930,-0
 .00001858,-0.00000975,-0.00000038,-0.00000131,0.00002767,-0.00000021,-
 0.00000149,0.00001084,0.00001356,0.00003289,-0.00000898,-0.00001147,-0
 .00001523,-0.00001108,-0.00000469,-0.00000283,-0.00000819,-0.00002114,
 -0.00003660,0.00001990,0.00000008,-0.00000057,-0.00000612,-0.00001359,
 -0.00002436,-0.00007671,0.00001251,0.00002256,-0.00000997,-0.00000746,
 -0.00001908,-0.00001559,0.00000275,0.00000118,0.00002075,-0.00006823,-
 0.00023587,0.00004840,0.00002604,0.00005794,-0.00004362,-0.00000410,-0
 .00006327,-0.00055178,0.00004711,0.00016245,-0.00000709,0.00000113,0.0
 0000819,0.00000374,-0.00000262,-0.00000416,0.00145834,-0.00107541,-0.0
 0138229,0.00065127,0.00014826,0.00016971,-0.00742248,-0.00001479,0.001
 04044,-0.00036644,0.00144783,0.00346758,-0.00000193,-0.00000076,-0.000
 00089,-0.00000147,-0.00000103,-0.00000133,-0.33497461,-0.02984366,-0.0
 3406030,-0.01397177,-0.00328602,-0.00529333,0.00000140,0.00000124,0.00
 000178,0.00000272,0.00000092,0.00000078,-0.00000124,-0.00000091,-0.000
 00253,-0.00000311,-0.00000026,-0.00000043,0.00000443,0.00000294,0.0000
 0599,0.00000779,-0.00000278,-0.00000760,-0.00000146,0.00000293,0.00000
 700,0.00000734,-0.00000294,-0.00000320,0.00002000,0.00000414,0.0000122
 4,0.00001301,-0.00002633,-0.00002779,0.00000145,-0.00000191,-0.0000046
 7,-0.00000246,0.00000099,0.00000202,0.00087320,0.00009992,-0.00040608,
 -0.00082327,-0.00015309,-0.00023422,-0.00000245,-0.00000077,-0.0000001
 1,-0.00000116,-0.00000157,-0.00000183,0.35442899,-0.00000003,0.0000007
 3,0.00000055,0.00000122,-0.00000091,-0.00000007,-0.00000606,0.00000302
 ,0.00000338,0.00000004,-0.00000117,-0.00000070,0.00000280,-0.00000274,
 -0.00000587,-0.00000136,-0.00000051,0.00000068,-0.00000527,-0.00000270
 ,0.00000393,0.00000521,-0.00000024,-0.00000706,0.00001464,-0.00000938,
 0.00000404,-0.00000134,0.00001678,0.00001194,-0.00000727,-0.00000275,-
 0.00000045,-0.00000143,-0.00000449,-0.00000540,-0.00008832,0.00008442,
 -0.00003930,0.00001294,-0.00005024,-0.00006598,0.00006736,0.00007428,0
 .00002044,0.00000328,-0.00002323,0.00010498,0.00000062,-0.00000547,-0.
 00000817,-0.00000810,0.00000017,0.00000258,-0.00015490,-0.00089723,0.0
 0018397,-0.00003637,0.00000569,-0.00017199,0.00019647,-0.00040934,0.00
 042074,-0.00046269,0.00025542,0.00026670,0.00000290,0.00000088,0.00000
 554,0.00000501,0.00000158,0.00000208,-0.00073102,0.00732258,-0.0063266
 0,-0.00012300,-0.00084185,-0.00006210,-0.01405972,0.00271456,-0.001221
 66,0.00106977,0.00305813,-0.00325654,-0.00000047,-0.00000060,-0.000000
 05,-0.00000033,-0.00000063,-0.00000008,-0.02930711,-0.04467706,-0.0124
 2928,0.01043769,0.00353413,0.00203235,0.00000016,0.00000066,0.00000010
 ,0.00000049,0.00000062,-0.00000017,-0.00000060,0.00000043,-0.00000085,
 -0.00000061,0.00000017,-0.00000020,-0.00000405,0.00000079,0.00000133,0
 .00000495,-0.00001249,0.00000716,-0.00000098,0.00000361,0.00000107,0.0
 0000117,0.00000013,-0.00000094,-0.00003816,0.00004711,-0.00002131,0.00
 000703,0.00022532,-0.00012843,0.00000002,0.00000097,-0.00000184,-0.000
 00069,0.00000096,-0.00000011,0.00037490,-0.00442880,0.00252248,0.00051
 430,0.00010575,0.00002437,-0.00000057,0.00000017,-0.00000025,-0.000000
 39,0.00000001,-0.00000060,0.03248032,0.03539406,0.00000013,0.00000049,
 0.00000101,0.00000101,-0.00000018,-0.00000093,-0.00000949,0.00000375,0
 .00000661,-0.00000017,-0.00000081,-0.00000147,0.00000344,-0.00000290,-
 0.00001021,-0.00000193,0.00000012,0.00000047,-0.00000960,0.00000414,0.
 00000255,0.00000832,-0.00000465,-0.00001031,0.00002440,0.00000601,-0.0
 0000138,-0.00000587,0.00000814,0.00003150,-0.00001162,-0.00000346,-0.0
 0000093,-0.00000299,-0.00000663,-0.00000882,-0.00016318,-0.00004191,0.
 00003513,0.00002335,-0.00006672,-0.00015334,0.00014296,0.00002817,0.00
 010076,-0.00000140,0.00010347,0.00013224,0.00000026,-0.00000622,-0.000
 01531,-0.00001450,0.00000044,0.00000243,-0.00040233,0.00017635,-0.0005
 7618,-0.00006939,-0.00018246,-0.00027993,0.00035304,0.00044047,0.00025
 842,-0.00090829,0.00022455,0.00069892,0.00000416,0.00000561,0.00000747
 ,0.00000816,0.00000297,0.00000261,-0.00068350,-0.00629351,-0.00255574,
 -0.00038632,-0.00008928,-0.00095486,-0.02801148,-0.00253753,0.00131739
 ,0.00268387,-0.00328777,-0.00247809,-0.00000067,-0.00000016,-0.0000004
 9,-0.00000058,-0.00000020,-0.00000053,-0.03294923,-0.01238674,-0.05987
 241,0.02310117,0.00332578,0.00679304,0.00000052,0.00000019,0.00000058,
 0.00000084,0.00000003,0.00000030,-0.00000074,-0.00000069,-0.00000062,-
 0.00000083,-0.00000021,-0.00000004,-0.00000872,0.00000117,0.00000299,0
 .00000913,0.00000752,-0.00000242,-0.00000065,-0.00000005,0.00000448,0.
 00000182,-0.00000097,-0.00000056,-0.00007527,-0.00002530,0.00001382,0.
 00003928,-0.00012507,0.00002513,0.00000044,-0.00000149,-0.00000210,-0.
 00000143,0.00000004,0.00000081,0.00016816,0.00254432,-0.00040366,0.001
 15077,0.00008684,0.00014314,-0.00000061,-0.00000035,0.00000004,-0.0000
 0039,-0.00000060,-0.00000040,0.03658888,0.01702904,0.05749295,-0.00000
 059,0.00000134,0.00000293,0.00000285,0.00000023,-0.00000060,-0.0000103
 9,0.00000596,0.00000735,-0.00000021,-0.00000211,-0.00000318,0.00000745
 ,-0.00000347,-0.00001252,-0.00000326,-0.00000051,0.00000062,-0.0000109
 5,0.00000499,0.00000873,-0.00000280,-0.00000381,-0.00001012,0.00004182
 ,-0.00000612,-0.00001178,0.00000846,0.00001462,0.00002939,-0.00001423,
 -0.00000441,-0.00000085,-0.00001023,-0.00000939,-0.00001036,-0.0001687
 8,0.00002303,0.00006781,-0.00003895,-0.00008214,-0.00015795,0.00017585
 ,-0.00001347,-0.00005946,0.00013724,0.00005896,0.00010951,-0.00000104,
 -0.00000847,-0.00001810,-0.00002303,0.00000146,0.00000327,-0.00034567,
 -0.00001005,0.00002113,-0.00061920,-0.00010773,-0.00025729,0.00054489,
 -0.00054125,-0.00115784,0.00051758,0.00015953,0.00022389,0.00000532,0.
 00000511,0.00000771,0.00001248,0.00000084,0.,-0.00094708,-0.00001573,-
 0.00001940,-0.00582144,-0.00025871,0.00099486,-0.00230935,0.00119774,0
 .00313097,-0.00706368,-0.01406666,-0.02810147,-0.00000121,-0.00000055,
 -0.00000055,-0.00000109,-0.00000062,-0.00000082,0.01136564,0.00876229,
 0.01727358,-0.09998355,-0.04483678,-0.08700088,0.00000089,0.00000083,0
 .00000116,0.00000134,0.00000047,0.00000041,-0.00000065,-0.00000072,-0.
 00000142,-0.00000184,-0.00000031,-0.00000071,0.00000222,0.00000607,0.0
 0001008,0.00000294,-0.00000374,-0.00000847,-0.00000115,0.00000103,0.00
 000408,0.00000587,-0.00000162,-0.00000226,-0.00003271,0.00000923,0.000
 05016,-0.00001305,-0.00003596,-0.00006768,0.00000078,-0.00000084,-0.00
 000220,-0.00000364,0.00000086,0.00000139,0.00034585,0.00043787,0.00088
 148,0.00081018,0.00037918,0.00018261,-0.00000143,-0.00000055,-0.000000
 25,-0.00000055,-0.00000082,-0.00000098,0.00071348,-0.00016246,-0.00059
 296,0.10272865,0.00000027,0.00000091,0.00000320,0.00000275,0.00000046,
 -0.00000079,0.00000018,0.00000309,0.00000382,-0.00000038,-0.00000201,-
 0.00000204,0.00000288,0.00000133,-0.00000183,-0.00000242,-0.00000086,0
 .00000062,-0.00000139,0.00000070,-0.00000387,-0.00000798,-0.00000399,0
 .00000302,0.00001452,0.00001059,-0.00000185,0.00000148,-0.00000519,0.0
 0001481,-0.00000316,-0.00000292,-0.00000256,-0.00000825,-0.00000298,-0
 .00000109,0.00001314,-0.00001249,0.00001059,-0.00002399,0.00009080,-0.
 00003321,-0.00000147,-0.00007389,0.00000279,-0.00002194,0.00004516,-0.
 00002996,0.00000028,-0.00000220,-0.00000584,-0.00000886,-0.00000174,-0
 .00000092,0.00005556,0.00008069,-0.00002577,-0.00002749,-0.00077402,0.
 00042706,-0.00002980,0.00004674,-0.00020690,-0.00004222,-0.00051843,0.
 00021671,-0.00000108,0.00000033,0.00000211,0.00000267,-0.00000399,-0.0
 0000159,0.00025439,-0.00053093,0.00054622,-0.00059712,0.00874954,-0.00
 338433,0.00157228,0.00343963,-0.00251294,-0.00004270,0.00263811,-0.002
 69546,-0.00000077,-0.00000072,-0.00000013,-0.00000062,-0.00000082,-0.0
 0000041,-0.00495094,-0.00141623,-0.00677139,-0.04536619,-0.09055212,-0
 .10603804,0.00000062,0.00000108,0.00000057,0.00000093,0.00000068,-0.00
 000004,-0.00000053,-0.00000028,-0.00000123,-0.00000127,0.00000062,-0.0
 0000066,-0.00000166,-0.00001217,0.00000904,0.00000291,0.00000105,0.000
 00159,-0.00000112,0.00000149,0.00000300,0.00000275,0.00000210,-0.00000
 284,-0.00002340,0.00023471,-0.00010611,0.00000631,0.00005357,-0.000012
 15,0.00000056,0.00000041,-0.00000130,-0.00000173,0.00000178,0.00000009
 ,-0.00023052,-0.00012281,-0.00037983,0.00010562,-0.00441734,0.00256928
 ,-0.00000117,-0.00000004,-0.00000035,-0.00000050,-0.00000034,-0.000001
 00,0.00025324,-0.00148131,0.00106624,0.04910734,0.08453423,0.00000028,
 0.00000322,0.00000482,0.00000559,0.00000030,-0.00000108,0.00000372,0.0
 0000705,0.00000447,-0.00000103,-0.00000259,-0.00000412,0.00000534,0.00
 000266,0.00000102,-0.00000471,-0.00000063,0.00000032,-0.00000055,-0.00
 000560,-0.00001006,-0.00001904,0.00000293,0.00000436,0.00002444,-0.000
 00300,0.00000672,0.00000274,0.00001136,0.00001363,-0.00000269,-0.00000
 523,-0.00000723,-0.00001634,-0.00000270,0.00000055,0.00004257,0.000008
 76,-0.00000240,-0.00002736,-0.00002280,0.00005951,-0.00003674,0.000001
 89,-0.00006966,-0.00005783,-0.00003773,-0.00001348,-0.00000149,-0.0000
 0188,-0.00000975,-0.00001507,-0.00000093,-0.00000597,0.00014704,-0.000
 01807,0.00003915,-0.00008799,0.00044024,-0.00005945,-0.00008783,-0.000
 16618,-0.00018908,-0.00019190,0.00019801,-0.00019369,-0.00000525,-0.00
 000002,0.00000228,0.00000243,-0.00000477,-0.00000722,0.00053714,0.0005
 7439,0.00033258,0.00029341,-0.00342259,0.00329704,0.00391624,-0.002478
 66,-0.00091670,0.00095978,-0.00136144,0.00103508,-0.00000152,-0.000000
 44,-0.00000070,-0.00000117,-0.00000056,-0.00000111,-0.01112556,-0.0080
 7390,-0.01359399,-0.08811512,-0.10608673,-0.24898847,0.00000139,0.0000
 0094,0.00000166,0.00000194,0.00000040,0.00000062,-0.00000094,-0.000001
 08,-0.00000205,-0.00000222,-0.00000027,-0.00000022,-0.00000665,0.00000
 868,0.00000284,0.00000639,0.00000204,0.00000423,-0.00000181,0.00000133
 ,0.00000657,0.00000518,-0.00000213,-0.00000134,-0.00001723,-0.00011009
 ,0.00006146,0.00001985,-0.00000813,0.00004043,0.00000137,-0.00000120,-
 0.00000188,-0.00000343,0.00000031,0.00000217,-0.00050306,-0.00044143,-
 0.00079742,-0.00039226,0.00254621,-0.00035209,-0.00000194,-0.00000082,
 -0.00000008,-0.00000072,-0.00000135,-0.00000135,0.00026562,0.00110656,
 0.00025597,0.09448700,0.11734569,0.26005313\\-0.00000002,-0.00000142,-
 0.00000124,-0.00000203,-0.00000039,0.00000089,0.00000135,0.00000055,0.
 00000102,0.00000040,-0.00000015,0.00000077,0.00000180,0.00000037,0.000
 00095,0.00000028,-0.00000070,0.00000008,0.00000095,-0.00000098,-0.0000
 0137,-0.00000153,0.00000010,0.00000134,-0.00000222,0.00000014,0.000000
 34,-0.00000006,-0.00000100,-0.00000203,0.00000002,-0.00000029,-0.00000
 018,-0.00000002,-0.00000059,-0.00000036,-0.00000002,0.00000110,0.00000
 213,0.00000219,-0.00000012,-0.00000057,-0.00000078,-0.00000010,-0.0000
 0027,-0.00000026,-0.00000018,-0.00000056,-0.00000027,0.00000049,0.0000
 0117,0.00000145,-0.00000025,-0.00000054,0.00000056,0.00000025,-0.00000
 020,0.00000002,0.00000049,0.00000032,-0.00000038,0.00000010,-0.0000008
 4,-0.00000080,0.00000030,-0.00000038,-0.00000012,-0.00000056,-0.000000
 45,-0.00000067,-0.00000034,0.00000010,0.00000118,0.00000052,-0.0000002
 7,0.00000017,0.00000096,0.00000077,-0.00000147,0.00000008,-0.00000136,
 -0.00000153,0.00000009,-0.00000131,-0.00000003,-0.00000054,0.00000063,
 0.00000023,-0.00000076,0.00000009,-0.00000040,0.00000182,0.00000192,0.
 00000235,0.00000041,-0.00000123,-0.00000018,-0.00000018,0.00000048,-0.
 00000017,-0.00000052,0.00000036,0.00000023,-0.00000035,0.00000036,-0.0
 0000031,-0.00000075,0.00000014,-0.00000018,0.00000017,-0.00000019,-0.0
 0000020,0.00000021,-0.00000010,0.,-0.00000011,-0.00000019,-0.00000013,
 -0.00000002,0.00000010,0.00000007,0.00000040,-0.00000014,0.00000002,0.
 00000041,-0.00000011,-0.00000004,-0.00000012,0.00000016,0.00000008,-0.
 00000025,-0.00000005,0.00000036,0.00000082,0.00000007,0.00000047,0.000
 00077,-0.00000003,0.00000020,-0.00000058,0.00000055,0.00000024,-0.0000
 0070,0.00000049,0.00000002,0.00000049,-0.00000111,-0.00000079,0.000000
 91,-0.00000017\\\@


 THE WORLD OF CHEMICAL REACTIONS IS LIKE A STAGE,
 ON WHICH SCENE AFTER SCENE IS CEASELESSLY PLAYED.
 THE ACTORS ON IT ARE THE ELEMENTS.
   -- CLEMENS WINKLER   BER. 30,13(1897)
 (DISCOVERER OF GERMANIUM, FEB 6, 1886)
 Job cpu time:       7 days  0 hours 15 minutes 31.6 seconds.
 File lengths (MBytes):  RWF=   4673 Int=      0 D2E=      0 Chk=     87 Scr=      1
 Normal termination of Gaussian 09 at Sun Jul 28 08:48:06 2019.
