 Entering Gaussian System, Link 0=g09
 Initial command:
 /home/minenky/programs//g09/l1.exe "/local/scratch/minenky/m1_00_259-79-0-C12H8_wB97XD/Gau-46875.inp" -scrdir="/local/scratch/minenky/m1_00_259-79-0-C12H8_wB97XD/"
 Entering Link 1 = /home/minenky/programs//g09/l1.exe PID=     46879.
  
 Copyright (c) 1988,1990,1992,1993,1995,1998,2003,2009,2013,
            Gaussian, Inc.  All Rights Reserved.
  
 This is part of the Gaussian(R) 09 program.  It is based on
 the Gaussian(R) 03 system (copyright 2003, Gaussian, Inc.),
 the Gaussian(R) 98 system (copyright 1998, Gaussian, Inc.),
 the Gaussian(R) 94 system (copyright 1995, Gaussian, Inc.),
 the Gaussian 92(TM) system (copyright 1992, Gaussian, Inc.),
 the Gaussian 90(TM) system (copyright 1990, Gaussian, Inc.),
 the Gaussian 88(TM) system (copyright 1988, Gaussian, Inc.),
 the Gaussian 86(TM) system (copyright 1986, Carnegie Mellon
 University), and the Gaussian 82(TM) system (copyright 1983,
 Carnegie Mellon University). Gaussian is a federally registered
 trademark of Gaussian, Inc.
  
 This software contains proprietary and confidential information,
 including trade secrets, belonging to Gaussian, Inc.
  
 This software is provided under written license and may be
 used, copied, transmitted, or stored only in accord with that
 written license.
  
 The following legend is applicable only to US Government
 contracts under FAR:
  
                    RESTRICTED RIGHTS LEGEND
  
 Use, reproduction and disclosure by the US Government is
 subject to restrictions as set forth in subparagraphs (a)
 and (c) of the Commercial Computer Software - Restricted
 Rights clause in FAR 52.227-19.
  
 Gaussian, Inc.
 340 Quinnipiac St., Bldg. 40, Wallingford CT 06492
  
  
 ---------------------------------------------------------------
 Warning -- This program may not be used in any manner that
 competes with the business of Gaussian, Inc. or will provide
 assistance to any competitor of Gaussian, Inc.  The licensee
 of this program is prohibited from giving any competitor of
 Gaussian, Inc. access to this program.  By using this program,
 the user acknowledges that Gaussian, Inc. is engaged in the
 business of creating and licensing software in the field of
 computational chemistry and represents and warrants to the
 licensee that it is not a competitor of Gaussian, Inc. and that
 it will not use this program in any manner prohibited above.
 ---------------------------------------------------------------
  

 Cite this work as:
 Gaussian 09, Revision D.01,
 M. J. Frisch, G. W. Trucks, H. B. Schlegel, G. E. Scuseria, 
 M. A. Robb, J. R. Cheeseman, G. Scalmani, V. Barone, B. Mennucci, 
 G. A. Petersson, H. Nakatsuji, M. Caricato, X. Li, H. P. Hratchian, 
 A. F. Izmaylov, J. Bloino, G. Zheng, J. L. Sonnenberg, M. Hada, 
 M. Ehara, K. Toyota, R. Fukuda, J. Hasegawa, M. Ishida, T. Nakajima, 
 Y. Honda, O. Kitao, H. Nakai, T. Vreven, J. A. Montgomery, Jr., 
 J. E. Peralta, F. Ogliaro, M. Bearpark, J. J. Heyd, E. Brothers, 
 K. N. Kudin, V. N. Staroverov, T. Keith, R. Kobayashi, J. Normand, 
 K. Raghavachari, A. Rendell, J. C. Burant, S. S. Iyengar, J. Tomasi, 
 M. Cossi, N. Rega, J. M. Millam, M. Klene, J. E. Knox, J. B. Cross, 
 V. Bakken, C. Adamo, J. Jaramillo, R. Gomperts, R. E. Stratmann, 
 O. Yazyev, A. J. Austin, R. Cammi, C. Pomelli, J. W. Ochterski, 
 R. L. Martin, K. Morokuma, V. G. Zakrzewski, G. A. Voth, 
 P. Salvador, J. J. Dannenberg, S. Dapprich, A. D. Daniels, 
 O. Farkas, J. B. Foresman, J. V. Ortiz, J. Cioslowski, 
 and D. J. Fox, Gaussian, Inc., Wallingford CT, 2013.
 
 ******************************************
 Gaussian 09:  AM64L-G09RevD.01 24-Apr-2013
                 9-Jul-2021 
 ******************************************
 %Mem=32000MB
 %NProcShared=16
 Will use up to   16 processors via shared memory.
 %Chk=m1_00_259-79-0-C12H8_wB97XD
 ----------------------------------------------------------------------
 #P wB97XD/def2tzvp opt=(tight) freq integral(Grid=ultrafine) # SCF(Max
 Cycle=380) 5d 7f GFPrint
 ----------------------------------------------------------------------
 1/7=10,14=-1,18=20,19=15,26=4,38=1/1,3;
 2/9=110,12=2,17=6,18=5,40=1/2;
 3/5=44,7=101,8=11,11=2,16=1,24=100,25=1,30=1,71=1,74=-58,75=-5/1,2,3;
 4//1;
 5/5=2,7=380,38=5/2;
 6/7=2,8=2,9=2,10=2,28=1/1;
 7//1,2,3,16;
 1/7=10,14=-1,18=20,19=15,26=4/3(2);
 2/9=110/2;
 99//99;
 2/9=110/2;
 3/5=44,7=101,8=11,11=2,16=1,25=1,30=1,71=1,74=-58,75=-5/1,2,3;
 4/5=5,16=3,69=1/1;
 5/5=2,7=380,38=5/2;
 7//1,2,3,16;
 1/7=10,14=-1,18=20,19=15,26=4/3(-5);
 2/9=110/2;
 6/7=2,8=2,9=2,10=2,19=2,28=1/1;
 99/9=1/99;
 Leave Link    1 at Fri Jul  9 19:19:35 2021, MaxMem=  4194304000 cpu:         1.4
 (Enter /home/minenky/programs//g09/l101.exe)
 ---------------------------------------
 The PBEPBE optimization and frequencies
 ---------------------------------------
 Symbolic Z-matrix:
 Charge =  0 Multiplicity = 1
 C                    -0.75452   0.71092  0. 
 C                     0.75452   0.71092   0. 
 C                    -0.75452  -0.71092  0. 
 C                    -1.91073   1.43986  0. 
 C                     0.75452  -0.71092   0. 
 C                     1.91073   1.43986   0. 
 C                    -1.91073  -1.43986   0. 
 C                    -3.11272   0.69185  0. 
 C                     1.91073  -1.43986  0. 
 C                     3.11272   0.69185   0. 
 C                    -3.11272  -0.69185   0. 
 C                     3.11272  -0.69185  0. 
 H                    -1.93152   2.5216   0. 
 H                     1.93152   2.5216    0. 
 H                    -1.93152  -2.5216    0. 
 H                    -4.05883   1.21764  0. 
 H                     1.93152  -2.5216   0. 
 H                     4.05883   1.21764   0. 
 H                    -4.05883  -1.21764   0. 
 H                     4.05883  -1.21764  0. 
 
 NAtoms=     20 NQM=       20 NQMF=       0 NMMI=      0 NMMIF=      0
                NMic=       0 NMicF=      0.
                    Isotopes and Nuclear Properties:
 (Nuclear quadrupole moments (NQMom) in fm**2, nuclear magnetic moments (NMagM)
  in nuclear magnetons)

  Atom         1           2           3           4           5           6           7           8           9          10
 IAtWgt=          12          12          12          12          12          12          12          12          12          12
 AtmWgt=  12.0000000  12.0000000  12.0000000  12.0000000  12.0000000  12.0000000  12.0000000  12.0000000  12.0000000  12.0000000
 NucSpn=           0           0           0           0           0           0           0           0           0           0
 AtZEff=   0.0000000   0.0000000   0.0000000   0.0000000   0.0000000   0.0000000   0.0000000   0.0000000   0.0000000   0.0000000
 NQMom=    0.0000000   0.0000000   0.0000000   0.0000000   0.0000000   0.0000000   0.0000000   0.0000000   0.0000000   0.0000000
 NMagM=    0.0000000   0.0000000   0.0000000   0.0000000   0.0000000   0.0000000   0.0000000   0.0000000   0.0000000   0.0000000
 AtZNuc=   6.0000000   6.0000000   6.0000000   6.0000000   6.0000000   6.0000000   6.0000000   6.0000000   6.0000000   6.0000000

  Atom        11          12          13          14          15          16          17          18          19          20
 IAtWgt=          12          12           1           1           1           1           1           1           1           1
 AtmWgt=  12.0000000  12.0000000   1.0078250   1.0078250   1.0078250   1.0078250   1.0078250   1.0078250   1.0078250   1.0078250
 NucSpn=           0           0           1           1           1           1           1           1           1           1
 AtZEff=   0.0000000   0.0000000   0.0000000   0.0000000   0.0000000   0.0000000   0.0000000   0.0000000   0.0000000   0.0000000
 NQMom=    0.0000000   0.0000000   0.0000000   0.0000000   0.0000000   0.0000000   0.0000000   0.0000000   0.0000000   0.0000000
 NMagM=    0.0000000   0.0000000   2.7928460   2.7928460   2.7928460   2.7928460   2.7928460   2.7928460   2.7928460   2.7928460
 AtZNuc=   6.0000000   6.0000000   1.0000000   1.0000000   1.0000000   1.0000000   1.0000000   1.0000000   1.0000000   1.0000000
 Leave Link  101 at Fri Jul  9 19:19:35 2021, MaxMem=  4194304000 cpu:         1.5
 (Enter /home/minenky/programs//g09/l103.exe)

 GradGradGradGradGradGradGradGradGradGradGradGradGradGradGradGradGradGrad
 Berny optimization.
 Initialization pass.
                           ----------------------------
                           !    Initial Parameters    !
                           ! (Angstroms and Degrees)  !
 --------------------------                            --------------------------
 ! Name  Definition              Value          Derivative Info.                !
 --------------------------------------------------------------------------------
 ! R1    R(1,2)                  1.509          estimate D2E/DX2                !
 ! R2    R(1,3)                  1.4218         estimate D2E/DX2                !
 ! R3    R(1,4)                  1.3668         estimate D2E/DX2                !
 ! R4    R(2,5)                  1.4218         estimate D2E/DX2                !
 ! R5    R(2,6)                  1.3668         estimate D2E/DX2                !
 ! R6    R(3,5)                  1.509          estimate D2E/DX2                !
 ! R7    R(3,7)                  1.3668         estimate D2E/DX2                !
 ! R8    R(4,8)                  1.4157         estimate D2E/DX2                !
 ! R9    R(4,13)                 1.0819         estimate D2E/DX2                !
 ! R10   R(5,9)                  1.3668         estimate D2E/DX2                !
 ! R11   R(6,10)                 1.4157         estimate D2E/DX2                !
 ! R12   R(6,14)                 1.0819         estimate D2E/DX2                !
 ! R13   R(7,11)                 1.4157         estimate D2E/DX2                !
 ! R14   R(7,15)                 1.0819         estimate D2E/DX2                !
 ! R15   R(8,11)                 1.3837         estimate D2E/DX2                !
 ! R16   R(8,16)                 1.0824         estimate D2E/DX2                !
 ! R17   R(9,12)                 1.4157         estimate D2E/DX2                !
 ! R18   R(9,17)                 1.0819         estimate D2E/DX2                !
 ! R19   R(10,12)                1.3837         estimate D2E/DX2                !
 ! R20   R(10,18)                1.0824         estimate D2E/DX2                !
 ! R21   R(11,19)                1.0824         estimate D2E/DX2                !
 ! R22   R(12,20)                1.0824         estimate D2E/DX2                !
 ! A1    A(2,1,3)               90.0            estimate D2E/DX2                !
 ! A2    A(2,1,4)              147.7705         estimate D2E/DX2                !
 ! A3    A(3,1,4)              122.2295         estimate D2E/DX2                !
 ! A4    A(1,2,5)               90.0            estimate D2E/DX2                !
 ! A5    A(1,2,6)              147.7705         estimate D2E/DX2                !
 ! A6    A(5,2,6)              122.2295         estimate D2E/DX2                !
 ! A7    A(1,3,5)               90.0            estimate D2E/DX2                !
 ! A8    A(1,3,7)              122.2295         estimate D2E/DX2                !
 ! A9    A(5,3,7)              147.7705         estimate D2E/DX2                !
 ! A10   A(1,4,8)              115.8763         estimate D2E/DX2                !
 ! A11   A(1,4,13)             123.3304         estimate D2E/DX2                !
 ! A12   A(8,4,13)             120.7933         estimate D2E/DX2                !
 ! A13   A(2,5,3)               90.0            estimate D2E/DX2                !
 ! A14   A(2,5,9)              122.2295         estimate D2E/DX2                !
 ! A15   A(3,5,9)              147.7705         estimate D2E/DX2                !
 ! A16   A(2,6,10)             115.8763         estimate D2E/DX2                !
 ! A17   A(2,6,14)             123.3304         estimate D2E/DX2                !
 ! A18   A(10,6,14)            120.7933         estimate D2E/DX2                !
 ! A19   A(3,7,11)             115.8763         estimate D2E/DX2                !
 ! A20   A(3,7,15)             123.3303         estimate D2E/DX2                !
 ! A21   A(11,7,15)            120.7934         estimate D2E/DX2                !
 ! A22   A(4,8,11)             121.8942         estimate D2E/DX2                !
 ! A23   A(4,8,16)             119.0434         estimate D2E/DX2                !
 ! A24   A(11,8,16)            119.0624         estimate D2E/DX2                !
 ! A25   A(5,9,12)             115.8763         estimate D2E/DX2                !
 ! A26   A(5,9,17)             123.3304         estimate D2E/DX2                !
 ! A27   A(12,9,17)            120.7933         estimate D2E/DX2                !
 ! A28   A(6,10,12)            121.8942         estimate D2E/DX2                !
 ! A29   A(6,10,18)            119.0434         estimate D2E/DX2                !
 ! A30   A(12,10,18)           119.0624         estimate D2E/DX2                !
 ! A31   A(7,11,8)             121.8942         estimate D2E/DX2                !
 ! A32   A(7,11,19)            119.0433         estimate D2E/DX2                !
 ! A33   A(8,11,19)            119.0624         estimate D2E/DX2                !
 ! A34   A(9,12,10)            121.8942         estimate D2E/DX2                !
 ! A35   A(9,12,20)            119.0434         estimate D2E/DX2                !
 ! A36   A(10,12,20)           119.0624         estimate D2E/DX2                !
 ! D1    D(3,1,2,5)              0.0            estimate D2E/DX2                !
 ! D2    D(3,1,2,6)            179.9997         estimate D2E/DX2                !
 ! D3    D(4,1,2,5)            179.9997         estimate D2E/DX2                !
 ! D4    D(4,1,2,6)             -0.0006         estimate D2E/DX2                !
 ! D5    D(2,1,3,5)              0.0            estimate D2E/DX2                !
 ! D6    D(2,1,3,7)            179.9998         estimate D2E/DX2                !
 ! D7    D(4,1,3,5)           -179.9998         estimate D2E/DX2                !
 ! D8    D(4,1,3,7)              0.0            estimate D2E/DX2                !
 ! D9    D(2,1,4,8)           -179.9997         estimate D2E/DX2                !
 ! D10   D(2,1,4,13)             0.0004         estimate D2E/DX2                !
 ! D11   D(3,1,4,8)             -0.0001         estimate D2E/DX2                !
 ! D12   D(3,1,4,13)          -180.0            estimate D2E/DX2                !
 ! D13   D(1,2,5,3)              0.0            estimate D2E/DX2                !
 ! D14   D(1,2,5,9)            179.9997         estimate D2E/DX2                !
 ! D15   D(6,2,5,3)           -179.9998         estimate D2E/DX2                !
 ! D16   D(6,2,5,9)             -0.0001         estimate D2E/DX2                !
 ! D17   D(1,2,6,10)          -179.9996         estimate D2E/DX2                !
 ! D18   D(1,2,6,14)             0.0004         estimate D2E/DX2                !
 ! D19   D(5,2,6,10)             0.0            estimate D2E/DX2                !
 ! D20   D(5,2,6,14)          -179.9999         estimate D2E/DX2                !
 ! D21   D(1,3,5,2)              0.0            estimate D2E/DX2                !
 ! D22   D(1,3,5,9)           -179.9995         estimate D2E/DX2                !
 ! D23   D(7,3,5,2)           -179.9997         estimate D2E/DX2                !
 ! D24   D(7,3,5,9)              0.0008         estimate D2E/DX2                !
 ! D25   D(1,3,7,11)             0.0            estimate D2E/DX2                !
 ! D26   D(1,3,7,15)          -179.9999         estimate D2E/DX2                !
 ! D27   D(5,3,7,11)           179.9997         estimate D2E/DX2                !
 ! D28   D(5,3,7,15)            -0.0003         estimate D2E/DX2                !
 ! D29   D(1,4,8,11)             0.0001         estimate D2E/DX2                !
 ! D30   D(1,4,8,16)          -180.0            estimate D2E/DX2                !
 ! D31   D(13,4,8,11)         -180.0            estimate D2E/DX2                !
 ! D32   D(13,4,8,16)           -0.0001         estimate D2E/DX2                !
 ! D33   D(2,5,9,12)             0.0001         estimate D2E/DX2                !
 ! D34   D(2,5,9,17)          -179.9999         estimate D2E/DX2                !
 ! D35   D(3,5,9,12)           179.9996         estimate D2E/DX2                !
 ! D36   D(3,5,9,17)            -0.0004         estimate D2E/DX2                !
 ! D37   D(2,6,10,12)            0.0001         estimate D2E/DX2                !
 ! D38   D(2,6,10,18)         -180.0            estimate D2E/DX2                !
 ! D39   D(14,6,10,12)         180.0            estimate D2E/DX2                !
 ! D40   D(14,6,10,18)           0.0            estimate D2E/DX2                !
 ! D41   D(3,7,11,8)             0.0            estimate D2E/DX2                !
 ! D42   D(3,7,11,19)          180.0            estimate D2E/DX2                !
 ! D43   D(15,7,11,8)          180.0            estimate D2E/DX2                !
 ! D44   D(15,7,11,19)          -0.0001         estimate D2E/DX2                !
 ! D45   D(4,8,11,7)            -0.0001         estimate D2E/DX2                !
 ! D46   D(4,8,11,19)          179.9999         estimate D2E/DX2                !
 ! D47   D(16,8,11,7)          180.0            estimate D2E/DX2                !
 ! D48   D(16,8,11,19)           0.0            estimate D2E/DX2                !
 ! D49   D(5,9,12,10)           -0.0001         estimate D2E/DX2                !
 ! D50   D(5,9,12,20)          180.0            estimate D2E/DX2                !
 ! D51   D(17,9,12,10)         179.9999         estimate D2E/DX2                !
 ! D52   D(17,9,12,20)           0.0            estimate D2E/DX2                !
 ! D53   D(6,10,12,9)            0.0            estimate D2E/DX2                !
 ! D54   D(6,10,12,20)         179.9999         estimate D2E/DX2                !
 ! D55   D(18,10,12,9)         180.0            estimate D2E/DX2                !
 ! D56   D(18,10,12,20)         -0.0001         estimate D2E/DX2                !
 --------------------------------------------------------------------------------
 Trust Radius=3.00D-01 FncErr=1.00D-07 GrdErr=1.00D-06
 Number of steps in this run=    120 maximum allowed number of steps=    120.
 GradGradGradGradGradGradGradGradGradGradGradGradGradGradGradGradGradGrad

 Leave Link  103 at Fri Jul  9 19:19:36 2021, MaxMem=  4194304000 cpu:         0.1
 (Enter /home/minenky/programs//g09/l202.exe)
                          Input orientation:                          
 ---------------------------------------------------------------------
 Center     Atomic      Atomic             Coordinates (Angstroms)
 Number     Number       Type             X           Y           Z
 ---------------------------------------------------------------------
      1          6           0       -0.754522    0.710919   -0.000002
      2          6           0        0.754522    0.710919    0.000002
      3          6           0       -0.754522   -0.710919   -0.000001
      4          6           0       -1.910731    1.439855   -0.000001
      5          6           0        0.754522   -0.710919    0.000002
      6          6           0        1.910731    1.439855    0.000001
      7          6           0       -1.910731   -1.439855    0.000001
      8          6           0       -3.112717    0.691853   -0.000001
      9          6           0        1.910731   -1.439855   -0.000001
     10          6           0        3.112717    0.691853    0.000000
     11          6           0       -3.112717   -0.691853    0.000001
     12          6           0        3.112717   -0.691853   -0.000001
     13          1           0       -1.931518    2.521598   -0.000002
     14          1           0        1.931518    2.521598    0.000002
     15          1           0       -1.931517   -2.521598    0.000003
     16          1           0       -4.058827    1.217638   -0.000001
     17          1           0        1.931518   -2.521598   -0.000003
     18          1           0        4.058827    1.217638    0.000000
     19          1           0       -4.058827   -1.217639    0.000002
     20          1           0        4.058827   -1.217638   -0.000003
 ---------------------------------------------------------------------
                    Distance matrix (angstroms):
                    1          2          3          4          5
     1  C    0.000000
     2  C    1.509044   0.000000
     3  C    1.421838   2.073364   0.000000
     4  C    1.366809   2.763136   2.441853   0.000000
     5  C    2.073364   1.421838   1.509044   3.424822   0.000000
     6  C    2.763136   1.366809   3.424822   3.821462   2.441853
     7  C    2.441853   3.424822   1.366809   2.879710   2.763136
     8  C    2.358272   3.867286   2.743876   1.415725   4.113795
     9  C    3.424822   2.441853   2.763136   4.785008   1.366809
    10  C    3.867286   2.358272   4.113795   5.078832   2.743876
    11  C    2.743876   4.113795   2.358272   2.447233   3.867286
    12  C    4.113795   2.743876   3.867286   5.457033   2.358272
    13  H    2.159601   3.239347   3.440129   1.081943   4.202853
    14  H    3.239347   2.159601   4.202853   3.991622   3.440129
    15  H    3.440128   4.202853   2.159601   3.961508   3.239346
    16  H    3.342932   4.839948   3.825933   2.159559   5.185331
    17  H    4.202853   3.440129   3.239347   5.518694   2.159601
    18  H    4.839948   3.342932   5.185331   5.973693   3.825933
    19  H    3.825934   5.185332   3.342932   3.417103   4.839948
    20  H    5.185331   3.825933   4.839948   6.534362   3.342932
                    6          7          8          9         10
     6  C    0.000000
     7  C    4.785008   0.000000
     8  C    5.078832   2.447233   0.000000
     9  C    2.879710   3.821462   5.457033   0.000000
    10  C    1.415725   5.457033   6.225434   2.447233   0.000000
    11  C    5.457033   1.415725   1.383706   5.078832   6.377356
    12  C    2.447233   5.078832   6.377356   1.415725   1.383706
    13  H    3.991622   3.961508   2.177888   5.518694   5.365843
    14  H    1.081943   5.518694   5.365843   3.961508   2.177888
    15  H    5.518694   1.081943   3.423668   3.991621   5.980850
    16  H    5.973693   3.417102   1.082393   6.534362   7.190792
    17  H    3.961508   3.991622   5.980851   1.081943   3.423667
    18  H    2.159559   6.534362   7.190792   3.417102   1.082393
    19  H    6.534363   2.159559   2.131029   5.973693   7.421402
    20  H    3.417102   5.973693   7.421401   2.159559   2.131028
                   11         12         13         14         15
    11  C    0.000000
    12  C    6.225434   0.000000
    13  H    3.423667   5.980851   0.000000
    14  H    5.980851   3.423667   3.863036   0.000000
    15  H    2.177889   5.365842   5.043196   6.352705   0.000000
    16  H    2.131028   7.421401   2.495146   6.130624   4.302015
    17  H    5.365843   2.177888   6.352706   5.043196   3.863035
    18  H    7.421401   2.131028   6.130624   2.495146   7.061594
    19  H    1.082393   7.190792   4.302015   7.061595   2.495147
    20  H    7.190792   1.082393   7.061595   4.302015   6.130623
                   16         17         18         19         20
    16  H    0.000000
    17  H    7.061595   0.000000
    18  H    8.117654   4.302015   0.000000
    19  H    2.435277   6.130623   8.475074   0.000000
    20  H    8.475074   2.495146   2.435276   8.117654   0.000000
 Stoichiometry    C12H8
 Framework group  C2[X(C12H8)]
 Deg. of freedom    28
 Full point group                 C2      NOp   2
 Largest Abelian subgroup         C2      NOp   2
 Largest concise Abelian subgroup C2      NOp   2
                         Standard orientation:                         
 ---------------------------------------------------------------------
 Center     Atomic      Atomic             Coordinates (Angstroms)
 Number     Number       Type             X           Y           Z
 ---------------------------------------------------------------------
      1          6           0       -0.000002    0.754522   -0.710919
      2          6           0        0.000002   -0.754522   -0.710919
      3          6           0       -0.000001    0.754522    0.710919
      4          6           0       -0.000001    1.910731   -1.439855
      5          6           0        0.000001   -0.754522    0.710919
      6          6           0        0.000001   -1.910731   -1.439855
      7          6           0        0.000001    1.910731    1.439855
      8          6           0       -0.000001    3.112717   -0.691853
      9          6           0       -0.000001   -1.910731    1.439855
     10          6           0        0.000001   -3.112717   -0.691853
     11          6           0        0.000001    3.112717    0.691853
     12          6           0       -0.000001   -3.112717    0.691853
     13          1           0       -0.000002    1.931518   -2.521598
     14          1           0        0.000002   -1.931518   -2.521598
     15          1           0        0.000003    1.931517    2.521598
     16          1           0       -0.000001    4.058827   -1.217638
     17          1           0       -0.000003   -1.931517    2.521598
     18          1           0        0.000001   -4.058827   -1.217638
     19          1           0        0.000002    4.058827    1.217639
     20          1           0       -0.000002   -4.058827    1.217639
 ---------------------------------------------------------------------
 Rotational constants (GHZ):      2.8335127      0.6746541      0.5449116
 Leave Link  202 at Fri Jul  9 19:19:36 2021, MaxMem=  4194304000 cpu:         1.6
 (Enter /home/minenky/programs//g09/l301.exe)
 Standard basis: def2TZVP (5D, 7F)
 ======================================================================================================
                                       Pseudopotential Parameters
 ======================================================================================================
  Center     Atomic      Valence      Angular      Power
  Number     Number     Electrons     Momentum     of R      Exponent        Coefficient   SO-Coeffient
 ======================================================================================================
    1          6
                                   No pseudopotential on this center.
    2          6
                                   No pseudopotential on this center.
    3          6
                                   No pseudopotential on this center.
    4          6
                                   No pseudopotential on this center.
    5          6
                                   No pseudopotential on this center.
    6          6
                                   No pseudopotential on this center.
    7          6
                                   No pseudopotential on this center.
    8          6
                                   No pseudopotential on this center.
    9          6
                                   No pseudopotential on this center.
   10          6
                                   No pseudopotential on this center.
   11          6
                                   No pseudopotential on this center.
   12          6
                                   No pseudopotential on this center.
   13          1
                                   No pseudopotential on this center.
   14          1
                                   No pseudopotential on this center.
   15          1
                                   No pseudopotential on this center.
   16          1
                                   No pseudopotential on this center.
   17          1
                                   No pseudopotential on this center.
   18          1
                                   No pseudopotential on this center.
   19          1
                                   No pseudopotential on this center.
   20          1
                                   No pseudopotential on this center.
 ======================================================================================================
 Ernie: Thresh=  0.10000D-02 Tol=  0.10000D-05 Strict=F.
 AO basis set (Overlap normalization):
 Atom C1       Shell     1 S   6     bf    1 -     1         -0.000003732209          1.425839958195         -1.343442243359
      0.1357534968D+05  0.6064550360D-03
      0.2035233368D+04  0.4697908888D-02
      0.4632256236D+03  0.2433247765D-01
      0.1312001960D+03  0.9739996831D-01
      0.4285301589D+02  0.3019558425D+00
      0.1558418577D+02  0.6623360914D+00
 Atom C1       Shell     2 S   2     bf    2 -     2         -0.000003732209          1.425839958195         -1.343442243359
      0.6206713851D+01  0.6559530854D+00
      0.2576489653D+01  0.3758563329D+00
 Atom C1       Shell     3 S   1     bf    3 -     3         -0.000003732209          1.425839958195         -1.343442243359
      0.5769633942D+00  0.1000000000D+01
 Atom C1       Shell     4 S   1     bf    4 -     4         -0.000003732209          1.425839958195         -1.343442243359
      0.2297283136D+00  0.1000000000D+01
 Atom C1       Shell     5 S   1     bf    5 -     5         -0.000003732209          1.425839958195         -1.343442243359
      0.9516444003D-01  0.1000000000D+01
 Atom C1       Shell     6 P   4     bf    6 -     8         -0.000003732209          1.425839958195         -1.343442243359
      0.3469723224D+02  0.1132722000D-01
      0.7958262283D+01  0.7616965920D-01
      0.2378082688D+01  0.3019225220D+00
      0.8143320818D+00  0.7278502735D+00
 Atom C1       Shell     7 P   1     bf    9 -    11         -0.000003732209          1.425839958195         -1.343442243359
      0.2888754725D+00  0.1000000000D+01
 Atom C1       Shell     8 P   1     bf   12 -    14         -0.000003732209          1.425839958195         -1.343442243359
      0.1005682367D+00  0.1000000000D+01
 Atom C1       Shell     9 D   1     bf   15 -    19         -0.000003732209          1.425839958195         -1.343442243359
      0.1097000000D+01  0.1000000000D+01
 Atom C1       Shell    10 D   1     bf   20 -    24         -0.000003732209          1.425839958195         -1.343442243359
      0.3180000000D+00  0.1000000000D+01
 Atom C1       Shell    11 F   1     bf   25 -    31         -0.000003732209          1.425839958195         -1.343442243359
      0.7610000000D+00  0.1000000000D+01
 Atom C2       Shell    12 S   6     bf   32 -    32          0.000003732209         -1.425839958195         -1.343442243359
      0.1357534968D+05  0.6064550360D-03
      0.2035233368D+04  0.4697908888D-02
      0.4632256236D+03  0.2433247765D-01
      0.1312001960D+03  0.9739996831D-01
      0.4285301589D+02  0.3019558425D+00
      0.1558418577D+02  0.6623360914D+00
 Atom C2       Shell    13 S   2     bf   33 -    33          0.000003732209         -1.425839958195         -1.343442243359
      0.6206713851D+01  0.6559530854D+00
      0.2576489653D+01  0.3758563329D+00
 Atom C2       Shell    14 S   1     bf   34 -    34          0.000003732209         -1.425839958195         -1.343442243359
      0.5769633942D+00  0.1000000000D+01
 Atom C2       Shell    15 S   1     bf   35 -    35          0.000003732209         -1.425839958195         -1.343442243359
      0.2297283136D+00  0.1000000000D+01
 Atom C2       Shell    16 S   1     bf   36 -    36          0.000003732209         -1.425839958195         -1.343442243359
      0.9516444003D-01  0.1000000000D+01
 Atom C2       Shell    17 P   4     bf   37 -    39          0.000003732209         -1.425839958195         -1.343442243359
      0.3469723224D+02  0.1132722000D-01
      0.7958262283D+01  0.7616965920D-01
      0.2378082688D+01  0.3019225220D+00
      0.8143320818D+00  0.7278502735D+00
 Atom C2       Shell    18 P   1     bf   40 -    42          0.000003732209         -1.425839958195         -1.343442243359
      0.2888754725D+00  0.1000000000D+01
 Atom C2       Shell    19 P   1     bf   43 -    45          0.000003732209         -1.425839958195         -1.343442243359
      0.1005682367D+00  0.1000000000D+01
 Atom C2       Shell    20 D   1     bf   46 -    50          0.000003732209         -1.425839958195         -1.343442243359
      0.1097000000D+01  0.1000000000D+01
 Atom C2       Shell    21 D   1     bf   51 -    55          0.000003732209         -1.425839958195         -1.343442243359
      0.3180000000D+00  0.1000000000D+01
 Atom C2       Shell    22 F   1     bf   56 -    62          0.000003732209         -1.425839958195         -1.343442243359
      0.7610000000D+00  0.1000000000D+01
 Atom C3       Shell    23 S   6     bf   63 -    63         -0.000001842483          1.425839971523          1.343442181971
      0.1357534968D+05  0.6064550360D-03
      0.2035233368D+04  0.4697908888D-02
      0.4632256236D+03  0.2433247765D-01
      0.1312001960D+03  0.9739996831D-01
      0.4285301589D+02  0.3019558425D+00
      0.1558418577D+02  0.6623360914D+00
 Atom C3       Shell    24 S   2     bf   64 -    64         -0.000001842483          1.425839971523          1.343442181971
      0.6206713851D+01  0.6559530854D+00
      0.2576489653D+01  0.3758563329D+00
 Atom C3       Shell    25 S   1     bf   65 -    65         -0.000001842483          1.425839971523          1.343442181971
      0.5769633942D+00  0.1000000000D+01
 Atom C3       Shell    26 S   1     bf   66 -    66         -0.000001842483          1.425839971523          1.343442181971
      0.2297283136D+00  0.1000000000D+01
 Atom C3       Shell    27 S   1     bf   67 -    67         -0.000001842483          1.425839971523          1.343442181971
      0.9516444003D-01  0.1000000000D+01
 Atom C3       Shell    28 P   4     bf   68 -    70         -0.000001842483          1.425839971523          1.343442181971
      0.3469723224D+02  0.1132722000D-01
      0.7958262283D+01  0.7616965920D-01
      0.2378082688D+01  0.3019225220D+00
      0.8143320818D+00  0.7278502735D+00
 Atom C3       Shell    29 P   1     bf   71 -    73         -0.000001842483          1.425839971523          1.343442181971
      0.2888754725D+00  0.1000000000D+01
 Atom C3       Shell    30 P   1     bf   74 -    76         -0.000001842483          1.425839971523          1.343442181971
      0.1005682367D+00  0.1000000000D+01
 Atom C3       Shell    31 D   1     bf   77 -    81         -0.000001842483          1.425839971523          1.343442181971
      0.1097000000D+01  0.1000000000D+01
 Atom C3       Shell    32 D   1     bf   82 -    86         -0.000001842483          1.425839971523          1.343442181971
      0.3180000000D+00  0.1000000000D+01
 Atom C3       Shell    33 F   1     bf   87 -    93         -0.000001842483          1.425839971523          1.343442181971
      0.7610000000D+00  0.1000000000D+01
 Atom C4       Shell    34 S   6     bf   94 -    94         -0.000001842483          3.610758313739         -2.720931662598
      0.1357534968D+05  0.6064550360D-03
      0.2035233368D+04  0.4697908888D-02
      0.4632256236D+03  0.2433247765D-01
      0.1312001960D+03  0.9739996831D-01
      0.4285301589D+02  0.3019558425D+00
      0.1558418577D+02  0.6623360914D+00
 Atom C4       Shell    35 S   2     bf   95 -    95         -0.000001842483          3.610758313739         -2.720931662598
      0.6206713851D+01  0.6559530854D+00
      0.2576489653D+01  0.3758563329D+00
 Atom C4       Shell    36 S   1     bf   96 -    96         -0.000001842483          3.610758313739         -2.720931662598
      0.5769633942D+00  0.1000000000D+01
 Atom C4       Shell    37 S   1     bf   97 -    97         -0.000001842483          3.610758313739         -2.720931662598
      0.2297283136D+00  0.1000000000D+01
 Atom C4       Shell    38 S   1     bf   98 -    98         -0.000001842483          3.610758313739         -2.720931662598
      0.9516444003D-01  0.1000000000D+01
 Atom C4       Shell    39 P   4     bf   99 -   101         -0.000001842483          3.610758313739         -2.720931662598
      0.3469723224D+02  0.1132722000D-01
      0.7958262283D+01  0.7616965920D-01
      0.2378082688D+01  0.3019225220D+00
      0.8143320818D+00  0.7278502735D+00
 Atom C4       Shell    40 P   1     bf  102 -   104         -0.000001842483          3.610758313739         -2.720931662598
      0.2888754725D+00  0.1000000000D+01
 Atom C4       Shell    41 P   1     bf  105 -   107         -0.000001842483          3.610758313739         -2.720931662598
      0.1005682367D+00  0.1000000000D+01
 Atom C4       Shell    42 D   1     bf  108 -   112         -0.000001842483          3.610758313739         -2.720931662598
      0.1097000000D+01  0.1000000000D+01
 Atom C4       Shell    43 D   1     bf  113 -   117         -0.000001842483          3.610758313739         -2.720931662598
      0.3180000000D+00  0.1000000000D+01
 Atom C4       Shell    44 F   1     bf  118 -   124         -0.000001842483          3.610758313739         -2.720931662598
      0.7610000000D+00  0.1000000000D+01
 Atom C5       Shell    45 S   6     bf  125 -   125          0.000001842483         -1.425839971523          1.343442181971
      0.1357534968D+05  0.6064550360D-03
      0.2035233368D+04  0.4697908888D-02
      0.4632256236D+03  0.2433247765D-01
      0.1312001960D+03  0.9739996831D-01
      0.4285301589D+02  0.3019558425D+00
      0.1558418577D+02  0.6623360914D+00
 Atom C5       Shell    46 S   2     bf  126 -   126          0.000001842483         -1.425839971523          1.343442181971
      0.6206713851D+01  0.6559530854D+00
      0.2576489653D+01  0.3758563329D+00
 Atom C5       Shell    47 S   1     bf  127 -   127          0.000001842483         -1.425839971523          1.343442181971
      0.5769633942D+00  0.1000000000D+01
 Atom C5       Shell    48 S   1     bf  128 -   128          0.000001842483         -1.425839971523          1.343442181971
      0.2297283136D+00  0.1000000000D+01
 Atom C5       Shell    49 S   1     bf  129 -   129          0.000001842483         -1.425839971523          1.343442181971
      0.9516444003D-01  0.1000000000D+01
 Atom C5       Shell    50 P   4     bf  130 -   132          0.000001842483         -1.425839971523          1.343442181971
      0.3469723224D+02  0.1132722000D-01
      0.7958262283D+01  0.7616965920D-01
      0.2378082688D+01  0.3019225220D+00
      0.8143320818D+00  0.7278502735D+00
 Atom C5       Shell    51 P   1     bf  133 -   135          0.000001842483         -1.425839971523          1.343442181971
      0.2888754725D+00  0.1000000000D+01
 Atom C5       Shell    52 P   1     bf  136 -   138          0.000001842483         -1.425839971523          1.343442181971
      0.1005682367D+00  0.1000000000D+01
 Atom C5       Shell    53 D   1     bf  139 -   143          0.000001842483         -1.425839971523          1.343442181971
      0.1097000000D+01  0.1000000000D+01
 Atom C5       Shell    54 D   1     bf  144 -   148          0.000001842483         -1.425839971523          1.343442181971
      0.3180000000D+00  0.1000000000D+01
 Atom C5       Shell    55 F   1     bf  149 -   155          0.000001842483         -1.425839971523          1.343442181971
      0.7610000000D+00  0.1000000000D+01
 Atom C6       Shell    56 S   6     bf  156 -   156          0.000001842483         -3.610758313739         -2.720931662598
      0.1357534968D+05  0.6064550360D-03
      0.2035233368D+04  0.4697908888D-02
      0.4632256236D+03  0.2433247765D-01
      0.1312001960D+03  0.9739996831D-01
      0.4285301589D+02  0.3019558425D+00
      0.1558418577D+02  0.6623360914D+00
 Atom C6       Shell    57 S   2     bf  157 -   157          0.000001842483         -3.610758313739         -2.720931662598
      0.6206713851D+01  0.6559530854D+00
      0.2576489653D+01  0.3758563329D+00
 Atom C6       Shell    58 S   1     bf  158 -   158          0.000001842483         -3.610758313739         -2.720931662598
      0.5769633942D+00  0.1000000000D+01
 Atom C6       Shell    59 S   1     bf  159 -   159          0.000001842483         -3.610758313739         -2.720931662598
      0.2297283136D+00  0.1000000000D+01
 Atom C6       Shell    60 S   1     bf  160 -   160          0.000001842483         -3.610758313739         -2.720931662598
      0.9516444003D-01  0.1000000000D+01
 Atom C6       Shell    61 P   4     bf  161 -   163          0.000001842483         -3.610758313739         -2.720931662598
      0.3469723224D+02  0.1132722000D-01
      0.7958262283D+01  0.7616965920D-01
      0.2378082688D+01  0.3019225220D+00
      0.8143320818D+00  0.7278502735D+00
 Atom C6       Shell    62 P   1     bf  164 -   166          0.000001842483         -3.610758313739         -2.720931662598
      0.2888754725D+00  0.1000000000D+01
 Atom C6       Shell    63 P   1     bf  167 -   169          0.000001842483         -3.610758313739         -2.720931662598
      0.1005682367D+00  0.1000000000D+01
 Atom C6       Shell    64 D   1     bf  170 -   174          0.000001842483         -3.610758313739         -2.720931662598
      0.1097000000D+01  0.1000000000D+01
 Atom C6       Shell    65 D   1     bf  175 -   179          0.000001842483         -3.610758313739         -2.720931662598
      0.3180000000D+00  0.1000000000D+01
 Atom C6       Shell    66 F   1     bf  180 -   186          0.000001842483         -3.610758313739         -2.720931662598
      0.7610000000D+00  0.1000000000D+01
 Atom C7       Shell    67 S   6     bf  187 -   187          0.000001936969          3.610758340733          2.720931579534
      0.1357534968D+05  0.6064550360D-03
      0.2035233368D+04  0.4697908888D-02
      0.4632256236D+03  0.2433247765D-01
      0.1312001960D+03  0.9739996831D-01
      0.4285301589D+02  0.3019558425D+00
      0.1558418577D+02  0.6623360914D+00
 Atom C7       Shell    68 S   2     bf  188 -   188          0.000001936969          3.610758340733          2.720931579534
      0.6206713851D+01  0.6559530854D+00
      0.2576489653D+01  0.3758563329D+00
 Atom C7       Shell    69 S   1     bf  189 -   189          0.000001936969          3.610758340733          2.720931579534
      0.5769633942D+00  0.1000000000D+01
 Atom C7       Shell    70 S   1     bf  190 -   190          0.000001936969          3.610758340733          2.720931579534
      0.2297283136D+00  0.1000000000D+01
 Atom C7       Shell    71 S   1     bf  191 -   191          0.000001936969          3.610758340733          2.720931579534
      0.9516444003D-01  0.1000000000D+01
 Atom C7       Shell    72 P   4     bf  192 -   194          0.000001936969          3.610758340733          2.720931579534
      0.3469723224D+02  0.1132722000D-01
      0.7958262283D+01  0.7616965920D-01
      0.2378082688D+01  0.3019225220D+00
      0.8143320818D+00  0.7278502735D+00
 Atom C7       Shell    73 P   1     bf  195 -   197          0.000001936969          3.610758340733          2.720931579534
      0.2888754725D+00  0.1000000000D+01
 Atom C7       Shell    74 P   1     bf  198 -   200          0.000001936969          3.610758340733          2.720931579534
      0.1005682367D+00  0.1000000000D+01
 Atom C7       Shell    75 D   1     bf  201 -   205          0.000001936969          3.610758340733          2.720931579534
      0.1097000000D+01  0.1000000000D+01
 Atom C7       Shell    76 D   1     bf  206 -   210          0.000001936969          3.610758340733          2.720931579534
      0.3180000000D+00  0.1000000000D+01
 Atom C7       Shell    77 F   1     bf  211 -   217          0.000001936969          3.610758340733          2.720931579534
      0.7610000000D+00  0.1000000000D+01
 Atom C8       Shell    78 S   6     bf  218 -   218         -0.000001842483          5.882182676314         -1.307412747015
      0.1357534968D+05  0.6064550360D-03
      0.2035233368D+04  0.4697908888D-02
      0.4632256236D+03  0.2433247765D-01
      0.1312001960D+03  0.9739996831D-01
      0.4285301589D+02  0.3019558425D+00
      0.1558418577D+02  0.6623360914D+00
 Atom C8       Shell    79 S   2     bf  219 -   219         -0.000001842483          5.882182676314         -1.307412747015
      0.6206713851D+01  0.6559530854D+00
      0.2576489653D+01  0.3758563329D+00
 Atom C8       Shell    80 S   1     bf  220 -   220         -0.000001842483          5.882182676314         -1.307412747015
      0.5769633942D+00  0.1000000000D+01
 Atom C8       Shell    81 S   1     bf  221 -   221         -0.000001842483          5.882182676314         -1.307412747015
      0.2297283136D+00  0.1000000000D+01
 Atom C8       Shell    82 S   1     bf  222 -   222         -0.000001842483          5.882182676314         -1.307412747015
      0.9516444003D-01  0.1000000000D+01
 Atom C8       Shell    83 P   4     bf  223 -   225         -0.000001842483          5.882182676314         -1.307412747015
      0.3469723224D+02  0.1132722000D-01
      0.7958262283D+01  0.7616965920D-01
      0.2378082688D+01  0.3019225220D+00
      0.8143320818D+00  0.7278502735D+00
 Atom C8       Shell    84 P   1     bf  226 -   228         -0.000001842483          5.882182676314         -1.307412747015
      0.2888754725D+00  0.1000000000D+01
 Atom C8       Shell    85 P   1     bf  229 -   231         -0.000001842483          5.882182676314         -1.307412747015
      0.1005682367D+00  0.1000000000D+01
 Atom C8       Shell    86 D   1     bf  232 -   236         -0.000001842483          5.882182676314         -1.307412747015
      0.1097000000D+01  0.1000000000D+01
 Atom C8       Shell    87 D   1     bf  237 -   241         -0.000001842483          5.882182676314         -1.307412747015
      0.3180000000D+00  0.1000000000D+01
 Atom C8       Shell    88 F   1     bf  242 -   248         -0.000001842483          5.882182676314         -1.307412747015
      0.7610000000D+00  0.1000000000D+01
 Atom C9       Shell    89 S   6     bf  249 -   249         -0.000001936969         -3.610758340733          2.720931579534
      0.1357534968D+05  0.6064550360D-03
      0.2035233368D+04  0.4697908888D-02
      0.4632256236D+03  0.2433247765D-01
      0.1312001960D+03  0.9739996831D-01
      0.4285301589D+02  0.3019558425D+00
      0.1558418577D+02  0.6623360914D+00
 Atom C9       Shell    90 S   2     bf  250 -   250         -0.000001936969         -3.610758340733          2.720931579534
      0.6206713851D+01  0.6559530854D+00
      0.2576489653D+01  0.3758563329D+00
 Atom C9       Shell    91 S   1     bf  251 -   251         -0.000001936969         -3.610758340733          2.720931579534
      0.5769633942D+00  0.1000000000D+01
 Atom C9       Shell    92 S   1     bf  252 -   252         -0.000001936969         -3.610758340733          2.720931579534
      0.2297283136D+00  0.1000000000D+01
 Atom C9       Shell    93 S   1     bf  253 -   253         -0.000001936969         -3.610758340733          2.720931579534
      0.9516444003D-01  0.1000000000D+01
 Atom C9       Shell    94 P   4     bf  254 -   256         -0.000001936969         -3.610758340733          2.720931579534
      0.3469723224D+02  0.1132722000D-01
      0.7958262283D+01  0.7616965920D-01
      0.2378082688D+01  0.3019225220D+00
      0.8143320818D+00  0.7278502735D+00
 Atom C9       Shell    95 P   1     bf  257 -   259         -0.000001936969         -3.610758340733          2.720931579534
      0.2888754725D+00  0.1000000000D+01
 Atom C9       Shell    96 P   1     bf  260 -   262         -0.000001936969         -3.610758340733          2.720931579534
      0.1005682367D+00  0.1000000000D+01
 Atom C9       Shell    97 D   1     bf  263 -   267         -0.000001936969         -3.610758340733          2.720931579534
      0.1097000000D+01  0.1000000000D+01
 Atom C9       Shell    98 D   1     bf  268 -   272         -0.000001936969         -3.610758340733          2.720931579534
      0.3180000000D+00  0.1000000000D+01
 Atom C9       Shell    99 F   1     bf  273 -   279         -0.000001936969         -3.610758340733          2.720931579534
      0.7610000000D+00  0.1000000000D+01
 Atom C10      Shell   100 S   6     bf  280 -   280          0.000001842483         -5.882182676314         -1.307412747015
      0.1357534968D+05  0.6064550360D-03
      0.2035233368D+04  0.4697908888D-02
      0.4632256236D+03  0.2433247765D-01
      0.1312001960D+03  0.9739996831D-01
      0.4285301589D+02  0.3019558425D+00
      0.1558418577D+02  0.6623360914D+00
 Atom C10      Shell   101 S   2     bf  281 -   281          0.000001842483         -5.882182676314         -1.307412747015
      0.6206713851D+01  0.6559530854D+00
      0.2576489653D+01  0.3758563329D+00
 Atom C10      Shell   102 S   1     bf  282 -   282          0.000001842483         -5.882182676314         -1.307412747015
      0.5769633942D+00  0.1000000000D+01
 Atom C10      Shell   103 S   1     bf  283 -   283          0.000001842483         -5.882182676314         -1.307412747015
      0.2297283136D+00  0.1000000000D+01
 Atom C10      Shell   104 S   1     bf  284 -   284          0.000001842483         -5.882182676314         -1.307412747015
      0.9516444003D-01  0.1000000000D+01
 Atom C10      Shell   105 P   4     bf  285 -   287          0.000001842483         -5.882182676314         -1.307412747015
      0.3469723224D+02  0.1132722000D-01
      0.7958262283D+01  0.7616965920D-01
      0.2378082688D+01  0.3019225220D+00
      0.8143320818D+00  0.7278502735D+00
 Atom C10      Shell   106 P   1     bf  288 -   290          0.000001842483         -5.882182676314         -1.307412747015
      0.2888754725D+00  0.1000000000D+01
 Atom C10      Shell   107 P   1     bf  291 -   293          0.000001842483         -5.882182676314         -1.307412747015
      0.1005682367D+00  0.1000000000D+01
 Atom C10      Shell   108 D   1     bf  294 -   298          0.000001842483         -5.882182676314         -1.307412747015
      0.1097000000D+01  0.1000000000D+01
 Atom C10      Shell   109 D   1     bf  299 -   303          0.000001842483         -5.882182676314         -1.307412747015
      0.3180000000D+00  0.1000000000D+01
 Atom C10      Shell   110 F   1     bf  304 -   310          0.000001842483         -5.882182676314         -1.307412747015
      0.7610000000D+00  0.1000000000D+01
 Atom C11      Shell   111 S   6     bf  311 -   311          0.000001936969          5.882182689284          1.307412641416
      0.1357534968D+05  0.6064550360D-03
      0.2035233368D+04  0.4697908888D-02
      0.4632256236D+03  0.2433247765D-01
      0.1312001960D+03  0.9739996831D-01
      0.4285301589D+02  0.3019558425D+00
      0.1558418577D+02  0.6623360914D+00
 Atom C11      Shell   112 S   2     bf  312 -   312          0.000001936969          5.882182689284          1.307412641416
      0.6206713851D+01  0.6559530854D+00
      0.2576489653D+01  0.3758563329D+00
 Atom C11      Shell   113 S   1     bf  313 -   313          0.000001936969          5.882182689284          1.307412641416
      0.5769633942D+00  0.1000000000D+01
 Atom C11      Shell   114 S   1     bf  314 -   314          0.000001936969          5.882182689284          1.307412641416
      0.2297283136D+00  0.1000000000D+01
 Atom C11      Shell   115 S   1     bf  315 -   315          0.000001936969          5.882182689284          1.307412641416
      0.9516444003D-01  0.1000000000D+01
 Atom C11      Shell   116 P   4     bf  316 -   318          0.000001936969          5.882182689284          1.307412641416
      0.3469723224D+02  0.1132722000D-01
      0.7958262283D+01  0.7616965920D-01
      0.2378082688D+01  0.3019225220D+00
      0.8143320818D+00  0.7278502735D+00
 Atom C11      Shell   117 P   1     bf  319 -   321          0.000001936969          5.882182689284          1.307412641416
      0.2888754725D+00  0.1000000000D+01
 Atom C11      Shell   118 P   1     bf  322 -   324          0.000001936969          5.882182689284          1.307412641416
      0.1005682367D+00  0.1000000000D+01
 Atom C11      Shell   119 D   1     bf  325 -   329          0.000001936969          5.882182689284          1.307412641416
      0.1097000000D+01  0.1000000000D+01
 Atom C11      Shell   120 D   1     bf  330 -   334          0.000001936969          5.882182689284          1.307412641416
      0.3180000000D+00  0.1000000000D+01
 Atom C11      Shell   121 F   1     bf  335 -   341          0.000001936969          5.882182689284          1.307412641416
      0.7610000000D+00  0.1000000000D+01
 Atom C12      Shell   122 S   6     bf  342 -   342         -0.000001936969         -5.882182689284          1.307412641416
      0.1357534968D+05  0.6064550360D-03
      0.2035233368D+04  0.4697908888D-02
      0.4632256236D+03  0.2433247765D-01
      0.1312001960D+03  0.9739996831D-01
      0.4285301589D+02  0.3019558425D+00
      0.1558418577D+02  0.6623360914D+00
 Atom C12      Shell   123 S   2     bf  343 -   343         -0.000001936969         -5.882182689284          1.307412641416
      0.6206713851D+01  0.6559530854D+00
      0.2576489653D+01  0.3758563329D+00
 Atom C12      Shell   124 S   1     bf  344 -   344         -0.000001936969         -5.882182689284          1.307412641416
      0.5769633942D+00  0.1000000000D+01
 Atom C12      Shell   125 S   1     bf  345 -   345         -0.000001936969         -5.882182689284          1.307412641416
      0.2297283136D+00  0.1000000000D+01
 Atom C12      Shell   126 S   1     bf  346 -   346         -0.000001936969         -5.882182689284          1.307412641416
      0.9516444003D-01  0.1000000000D+01
 Atom C12      Shell   127 P   4     bf  347 -   349         -0.000001936969         -5.882182689284          1.307412641416
      0.3469723224D+02  0.1132722000D-01
      0.7958262283D+01  0.7616965920D-01
      0.2378082688D+01  0.3019225220D+00
      0.8143320818D+00  0.7278502735D+00
 Atom C12      Shell   128 P   1     bf  350 -   352         -0.000001936969         -5.882182689284          1.307412641416
      0.2888754725D+00  0.1000000000D+01
 Atom C12      Shell   129 P   1     bf  353 -   355         -0.000001936969         -5.882182689284          1.307412641416
      0.1005682367D+00  0.1000000000D+01
 Atom C12      Shell   130 D   1     bf  356 -   360         -0.000001936969         -5.882182689284          1.307412641416
      0.1097000000D+01  0.1000000000D+01
 Atom C12      Shell   131 D   1     bf  361 -   365         -0.000001936969         -5.882182689284          1.307412641416
      0.3180000000D+00  0.1000000000D+01
 Atom C12      Shell   132 F   1     bf  366 -   372         -0.000001936969         -5.882182689284          1.307412641416
      0.7610000000D+00  0.1000000000D+01
 Atom H13      Shell   133 S   3     bf  373 -   373         -0.000003732209          3.650040040724         -4.765129678959
      0.3406134100D+02  0.2543930721D-01
      0.5123574600D+01  0.1900859489D+00
      0.1164662600D+01  0.8524411301D+00
 Atom H13      Shell   134 S   1     bf  374 -   374         -0.000003732209          3.650040040724         -4.765129678959
      0.3272304100D+00  0.1000000000D+01
 Atom H13      Shell   135 S   1     bf  375 -   375         -0.000003732209          3.650040040724         -4.765129678959
      0.1030724100D+00  0.1000000000D+01
 Atom H13      Shell   136 P   1     bf  376 -   378         -0.000003732209          3.650040040724         -4.765129678959
      0.8000000000D+00  0.1000000000D+01
 Atom H14      Shell   137 S   3     bf  379 -   379          0.000003732209         -3.650040040724         -4.765129678959
      0.3406134100D+02  0.2543930721D-01
      0.5123574600D+01  0.1900859489D+00
      0.1164662600D+01  0.8524411301D+00
 Atom H14      Shell   138 S   1     bf  380 -   380          0.000003732209         -3.650040040724         -4.765129678959
      0.3272304100D+00  0.1000000000D+01
 Atom H14      Shell   139 S   1     bf  381 -   381          0.000003732209         -3.650040040724         -4.765129678959
      0.1030724100D+00  0.1000000000D+01
 Atom H14      Shell   140 P   1     bf  382 -   384          0.000003732209         -3.650040040724         -4.765129678959
      0.8000000000D+00  0.1000000000D+01
 Atom H15      Shell   141 S   3     bf  385 -   385          0.000005716422          3.650038198271          4.765129595505
      0.3406134100D+02  0.2543930721D-01
      0.5123574600D+01  0.1900859489D+00
      0.1164662600D+01  0.8524411301D+00
 Atom H15      Shell   142 S   1     bf  386 -   386          0.000005716422          3.650038198271          4.765129595505
      0.3272304100D+00  0.1000000000D+01
 Atom H15      Shell   143 S   1     bf  387 -   387          0.000005716422          3.650038198271          4.765129595505
      0.1030724100D+00  0.1000000000D+01
 Atom H15      Shell   144 P   1     bf  388 -   390          0.000005716422          3.650038198271          4.765129595505
      0.8000000000D+00  0.1000000000D+01
 Atom H16      Shell   145 S   3     bf  391 -   391         -0.000001842483          7.670071462970         -2.301002410663
      0.3406134100D+02  0.2543930721D-01
      0.5123574600D+01  0.1900859489D+00
      0.1164662600D+01  0.8524411301D+00
 Atom H16      Shell   146 S   1     bf  392 -   392         -0.000001842483          7.670071462970         -2.301002410663
      0.3272304100D+00  0.1000000000D+01
 Atom H16      Shell   147 S   1     bf  393 -   393         -0.000001842483          7.670071462970         -2.301002410663
      0.1030724100D+00  0.1000000000D+01
 Atom H16      Shell   148 P   1     bf  394 -   396         -0.000001842483          7.670071462970         -2.301002410663
      0.8000000000D+00  0.1000000000D+01
 Atom H17      Shell   149 S   3     bf  397 -   397         -0.000005716422         -3.650038198271          4.765129595505
      0.3406134100D+02  0.2543930721D-01
      0.5123574600D+01  0.1900859489D+00
      0.1164662600D+01  0.8524411301D+00
 Atom H17      Shell   150 S   1     bf  398 -   398         -0.000005716422         -3.650038198271          4.765129595505
      0.3272304100D+00  0.1000000000D+01
 Atom H17      Shell   151 S   1     bf  399 -   399         -0.000005716422         -3.650038198271          4.765129595505
      0.1030724100D+00  0.1000000000D+01
 Atom H17      Shell   152 P   1     bf  400 -   402         -0.000005716422         -3.650038198271          4.765129595505
      0.8000000000D+00  0.1000000000D+01
 Atom H18      Shell   153 S   3     bf  403 -   403          0.000001842483         -7.670071462970         -2.301002410663
      0.3406134100D+02  0.2543930721D-01
      0.5123574600D+01  0.1900859489D+00
      0.1164662600D+01  0.8524411301D+00
 Atom H18      Shell   154 S   1     bf  404 -   404          0.000001842483         -7.670071462970         -2.301002410663
      0.3272304100D+00  0.1000000000D+01
 Atom H18      Shell   155 S   1     bf  405 -   405          0.000001842483         -7.670071462970         -2.301002410663
      0.1030724100D+00  0.1000000000D+01
 Atom H18      Shell   156 P   1     bf  406 -   408          0.000001842483         -7.670071462970         -2.301002410663
      0.8000000000D+00  0.1000000000D+01
 Atom H19      Shell   157 S   3     bf  409 -   409          0.000003826695          7.670071485797          2.301004177053
      0.3406134100D+02  0.2543930721D-01
      0.5123574600D+01  0.1900859489D+00
      0.1164662600D+01  0.8524411301D+00
 Atom H19      Shell   158 S   1     bf  410 -   410          0.000003826695          7.670071485797          2.301004177053
      0.3272304100D+00  0.1000000000D+01
 Atom H19      Shell   159 S   1     bf  411 -   411          0.000003826695          7.670071485797          2.301004177053
      0.1030724100D+00  0.1000000000D+01
 Atom H19      Shell   160 P   1     bf  412 -   414          0.000003826695          7.670071485797          2.301004177053
      0.8000000000D+00  0.1000000000D+01
 Atom H20      Shell   161 S   3     bf  415 -   415         -0.000003826695         -7.670071485797          2.301004177053
      0.3406134100D+02  0.2543930721D-01
      0.5123574600D+01  0.1900859489D+00
      0.1164662600D+01  0.8524411301D+00
 Atom H20      Shell   162 S   1     bf  416 -   416         -0.000003826695         -7.670071485797          2.301004177053
      0.3272304100D+00  0.1000000000D+01
 Atom H20      Shell   163 S   1     bf  417 -   417         -0.000003826695         -7.670071485797          2.301004177053
      0.1030724100D+00  0.1000000000D+01
 Atom H20      Shell   164 P   1     bf  418 -   420         -0.000003826695         -7.670071485797          2.301004177053
      0.8000000000D+00  0.1000000000D+01
 There are   240 symmetry adapted cartesian basis functions of A   symmetry.
 There are   240 symmetry adapted cartesian basis functions of B   symmetry.
 There are   210 symmetry adapted basis functions of A   symmetry.
 There are   210 symmetry adapted basis functions of B   symmetry.
   420 basis functions,   676 primitive gaussians,   480 cartesian basis functions
    40 alpha electrons       40 beta electrons
       nuclear repulsion energy       591.5716210118 Hartrees.
 IExCor= 4639 DFT=T Ex+Corr=wB97XD ExCW=0 ScaHFX=  1.000000
 ScaDFX=  1.000000  1.000000  1.000000  1.000000 ScalE2=  1.000000  1.000000
 IRadAn=      5 IRanWt=     -1 IRanGd=            0 ICorTp=0 IEmpDi=121
  HFx wShort=  0.000000 wLong=  0.200000 cFull=  0.222036 cShort=  0.000000 cLong=  0.777964
  DFx wShort=  0.000000 wLong=  0.200000 cFull=  0.000000 cShort=  0.000000 cLong=  1.000000
 NAtoms=   20 NActive=   20 NUniq=   10 SFac= 4.00D+00 NAtFMM=   60 NAOKFM=F Big=F
 Integral buffers will be    131072 words long.
 Raffenetti 2 integral format.
 Two-electron integral symmetry is turned on.
 R6Disp:  Grimme-D2 Dispersion energy=       -0.0102235448 Hartrees.
 Nuclear repulsion after empirical dispersion term =      591.5613974670 Hartrees.
 Leave Link  301 at Fri Jul  9 19:19:36 2021, MaxMem=  4194304000 cpu:         0.2
 (Enter /home/minenky/programs//g09/l302.exe)
 NPDir=0 NMtPBC=     1 NCelOv=     1 NCel=       1 NClECP=     1 NCelD=      1
         NCelK=      1 NCelE2=     1 NClLst=     1 CellRange=     0.0.
 One-electron integrals computed using PRISM.
 One-electron integral symmetry used in STVInt
   2 Symmetry operations used in ECPInt.
 ECPInt:  NShTT=   13530 NPrTT=   41904 LenC2=   12809 LenP2D=   30558.
 LDataN:  DoStor=T MaxTD1= 6 Len=  172
 NBasis=   420 RedAO= T EigKep=  3.34D-06  NBF=   210   210
 NBsUse=   420 1.00D-06 EigRej= -1.00D+00 NBFU=   210   210
 Precomputing XC quadrature grid using
 IXCGrd= 4 IRadAn=           5 IRanWt=          -1 IRanGd=           0 AccXCQ= 0.00D+00.
 Generated NRdTot=       0 NPtTot=           0 NUsed=           0 NTot=          32
 NSgBfM=   475   475   475   475   475 MxSgAt=    20 MxSgA2=    20.
 Leave Link  302 at Fri Jul  9 19:19:40 2021, MaxMem=  4194304000 cpu:        50.6
 (Enter /home/minenky/programs//g09/l303.exe)
 DipDrv:  MaxL=1.
 Leave Link  303 at Fri Jul  9 19:19:41 2021, MaxMem=  4194304000 cpu:         3.2
 (Enter /home/minenky/programs//g09/l401.exe)
 ExpMin= 9.52D-02 ExpMax= 1.36D+04 ExpMxC= 4.63D+02 IAcc=3 IRadAn=         5 AccDes= 0.00D+00
 Harris functional with IExCor= 4639 and IRadAn=       5 diagonalized for initial guess.
 HarFok:  IExCor= 4639 AccDes= 0.00D+00 IRadAn=         5 IDoV= 1 UseB2=F ITyADJ=14
 ICtDFT=  3500011 ScaDFX=  1.000000  1.000000  1.000000  1.000000
 FoFCou: FMM=F IPFlag=           0 FMFlag=      100000 FMFlg1=           0
         NFxFlg=           0 DoJE=T BraDBF=F KetDBF=T FulRan=T
         wScrn=  0.000000 ICntrl=     500 IOpCl=  0 I1Cent=   200000004 NGrid=           0
         NMat0=    1 NMatS0=      1 NMatT0=    0 NMatD0=    1 NMtDS0=    0 NMtDT0=    0
 Petite list used in FoFCou.
 Harris En= -441.041445198458    
 JPrj=0 DoOrth=F DoCkMO=F.
 Initial guess orbital symmetries:
       Occupied  (B) (B) (A) (A) (B) (A) (B) (A) (A) (B) (A) (B)
                 (A) (B) (A) (A) (B) (B) (A) (A) (B) (B) (A) (A)
                 (B) (A) (B) (A) (B) (B) (A) (B) (A) (A) (B) (A)
                 (B) (B) (A) (A)
       Virtual   (B) (B) (A) (A) (B) (A) (A) (B) (A) (B) (A) (A)
                 (B) (B) (B) (B) (A) (A) (A) (B) (B) (A) (A) (B)
                 (A) (A) (B) (A) (B) (B) (B) (B) (A) (B) (A) (A)
                 (A) (A) (B) (B) (A) (B) (A) (A) (A) (B) (B) (B)
                 (A) (B) (A) (A) (B) (B) (A) (B) (B) (A) (A) (B)
                 (A) (B) (B) (A) (A) (B) (A) (A) (B) (B) (B) (A)
                 (B) (A) (B) (B) (A) (A) (B) (A) (B) (B) (A) (A)
                 (B) (A) (B) (B) (B) (B) (B) (A) (A) (A) (A) (B)
                 (A) (B) (B) (A) (A) (A) (A) (B) (A) (A) (B) (B)
                 (B) (B) (A) (B) (B) (A) (B) (A) (A) (A) (A) (B)
                 (B) (A) (A) (B) (B) (A) (B) (A) (A) (B) (B) (B)
                 (A) (B) (A) (A) (B) (B) (A) (B) (A) (A) (B) (B)
                 (B) (A) (A) (B) (A) (A) (B) (B) (B) (A) (A) (A)
                 (B) (A) (A) (B) (B) (B) (B) (A) (A) (B) (A) (A)
                 (A) (B) (A) (B) (B) (A) (A) (A) (B) (A) (B) (A)
                 (B) (A) (A) (B) (A) (B) (B) (B) (A) (B) (B) (A)
                 (B) (A) (B) (B) (A) (A) (A) (B) (A) (A) (B) (B)
                 (B) (B) (A) (A) (B) (A) (A) (B) (B) (A) (B) (B)
                 (A) (B) (A) (B) (A) (A) (B) (B) (A) (B) (B) (A)
                 (A) (B) (B) (A) (A) (A) (B) (B) (A) (A) (A) (B)
                 (A) (B) (B) (A) (B) (A) (A) (B) (B) (A) (A) (B)
                 (B) (A) (B) (B) (B) (A) (A) (A) (A) (B) (B) (A)
                 (A) (B) (A) (A) (B) (B) (B) (B) (B) (A) (A) (B)
                 (A) (B) (B) (A) (A) (B) (A) (B) (A) (A) (A) (B)
                 (B) (A) (B) (A) (B) (B) (A) (A) (A) (B) (A) (B)
                 (A) (A) (A) (B) (B) (B) (A) (A) (B) (B) (A) (B)
                 (A) (B) (A) (B) (A) (A) (B) (B) (B) (A) (A) (B)
                 (B) (B) (A) (B) (A) (A) (A) (B) (B) (A) (B) (A)
                 (A) (B) (B) (B) (A) (B) (A) (A) (B) (B) (A) (A)
                 (A) (A) (B) (B) (A) (A) (B) (B) (A) (A) (B) (B)
                 (A) (B) (A) (A) (B) (B) (B) (B) (A) (B) (A) (A)
                 (A) (B) (B) (A) (B) (B) (A) (B)
 The electronic state of the initial guess is 1-A.
 Leave Link  401 at Fri Jul  9 19:19:46 2021, MaxMem=  4194304000 cpu:        72.8
 (Enter /home/minenky/programs//g09/l502.exe)
 Closed shell SCF:
 Using DIIS extrapolation, IDIIS=  1040.
 Integral symmetry usage will be decided dynamically.
 IVT=      850798 IEndB=      850798 NGot=  4194304000 MDV=  4193829243
 LenX=  4193829243 LenY=  4193598363
 Requested convergence on RMS density matrix=1.00D-08 within 380 cycles.
 Requested convergence on MAX density matrix=1.00D-06.
 Requested convergence on             energy=1.00D-06.
 No special actions if energy rises.
 Fock matrices will be formed incrementally for  20 cycles.
 Integral accuracy reduced to 1.0D-05 until final iterations.

 Cycle   1  Pass 0  IDiag  1:
 FoFJK:  IHMeth= 1 ICntrl=       0 DoSepK=T KAlg= 0 I1Cent=   0 FoldK=F
 IRaf=         1 NMat=   1 IRICut=       1 DoRegI=T DoRafI=F ISym2E= 1.
 FoFCou: FMM=F IPFlag=           0 FMFlag=      100000 FMFlg1=           0
         NFxFlg=           0 DoJE=T BraDBF=F KetDBF=F FulRan=T
         wScrn=  0.000000 ICntrl=     500 IOpCl=  0 I1Cent=           0 NGrid=           0
         NMat0=    1 NMatS0=      1 NMatT0=    0 NMatD0=    1 NMtDS0=    0 NMtDT0=    0
 Petite list used in FoFCou.
 E= -461.910802186890    
 DIIS: error= 6.22D-02 at cycle   1 NSaved=   1.
 NSaved= 1 IEnMin= 1 EnMin= -461.910802186890     IErMin= 1 ErrMin= 6.22D-02
 ErrMax= 6.22D-02  0.00D+00 EMaxC= 1.00D-01 BMatC= 9.90D-01 BMatP= 9.90D-01
 IDIUse=3 WtCom= 3.78D-01 WtEn= 6.22D-01
 Coeff-Com:  0.100D+01
 Coeff-En:   0.100D+01
 Coeff:      0.100D+01
 Gap=     0.277 Goal=   None    Shift=    0.000
 GapD=    0.277 DampG=1.000 DampE=0.500 DampFc=0.5000 IDamp=-1.
 Damping current iteration by 5.00D-01
 RMSDP=2.76D-03 MaxDP=1.16D-01              OVMax= 5.62D-02

 Cycle   2  Pass 0  IDiag  1:
 RMSU=  1.18D-03    CP:  9.20D-01
 E= -461.966857003165     Delta-E=       -0.056054816275 Rises=F Damp=T
 DIIS: error= 2.95D-02 at cycle   2 NSaved=   2.
 NSaved= 2 IEnMin= 2 EnMin= -461.966857003165     IErMin= 2 ErrMin= 2.95D-02
 ErrMax= 2.95D-02  0.00D+00 EMaxC= 1.00D-01 BMatC= 2.21D-01 BMatP= 9.90D-01
 IDIUse=3 WtCom= 7.05D-01 WtEn= 2.95D-01
 Coeff-Com: -0.861D+00 0.186D+01
 Coeff-En:   0.000D+00 0.100D+01
 Coeff:     -0.607D+00 0.161D+01
 Gap=     0.289 Goal=   None    Shift=    0.000
 RMSDP=1.44D-03 MaxDP=6.02D-02 DE=-5.61D-02 OVMax= 5.27D-02

 Cycle   3  Pass 0  IDiag  1:
 RMSU=  5.22D-04    CP:  8.38D-01  1.96D+00
 E= -462.014054115088     Delta-E=       -0.047197111923 Rises=F Damp=F
 DIIS: error= 9.27D-03 at cycle   3 NSaved=   3.
 NSaved= 3 IEnMin= 3 EnMin= -462.014054115088     IErMin= 3 ErrMin= 9.27D-03
 ErrMax= 9.27D-03  0.00D+00 EMaxC= 1.00D-01 BMatC= 8.52D-03 BMatP= 2.21D-01
 IDIUse=3 WtCom= 9.07D-01 WtEn= 9.27D-02
 Coeff-Com: -0.397D+00 0.851D+00 0.546D+00
 Coeff-En:   0.000D+00 0.000D+00 0.100D+01
 Coeff:     -0.361D+00 0.772D+00 0.588D+00
 Gap=     0.286 Goal=   None    Shift=    0.000
 RMSDP=2.04D-04 MaxDP=5.53D-03 DE=-4.72D-02 OVMax= 3.16D-02

 Cycle   4  Pass 0  IDiag  1:
 RMSU=  2.00D-04    CP:  8.40D-01  1.95D+00  9.34D-01
 E= -462.021583501648     Delta-E=       -0.007529386560 Rises=F Damp=F
 DIIS: error= 3.00D-03 at cycle   4 NSaved=   4.
 NSaved= 4 IEnMin= 4 EnMin= -462.021583501648     IErMin= 4 ErrMin= 3.00D-03
 ErrMax= 3.00D-03  0.00D+00 EMaxC= 1.00D-01 BMatC= 7.00D-04 BMatP= 8.52D-03
 IDIUse=3 WtCom= 9.70D-01 WtEn= 3.00D-02
 Coeff-Com: -0.140D+00 0.301D+00 0.301D+00 0.538D+00
 Coeff-En:   0.000D+00 0.000D+00 0.000D+00 0.100D+01
 Coeff:     -0.135D+00 0.292D+00 0.292D+00 0.552D+00
 Gap=     0.285 Goal=   None    Shift=    0.000
 RMSDP=8.82D-05 MaxDP=2.21D-03 DE=-7.53D-03 OVMax= 8.23D-03

 Cycle   5  Pass 0  IDiag  1:
 RMSU=  7.72D-05    CP:  8.37D-01  1.96D+00  9.94D-01  9.20D-01
 E= -462.022299726479     Delta-E=       -0.000716224831 Rises=F Damp=F
 DIIS: error= 3.45D-04 at cycle   5 NSaved=   5.
 NSaved= 5 IEnMin= 5 EnMin= -462.022299726479     IErMin= 5 ErrMin= 3.45D-04
 ErrMax= 3.45D-04  0.00D+00 EMaxC= 1.00D-01 BMatC= 1.01D-05 BMatP= 7.00D-04
 IDIUse=3 WtCom= 9.97D-01 WtEn= 3.45D-03
 Coeff-Com:  0.291D-01-0.627D-01-0.329D-01 0.790D-01 0.987D+00
 Coeff-En:   0.000D+00 0.000D+00 0.000D+00 0.000D+00 0.100D+01
 Coeff:      0.290D-01-0.624D-01-0.328D-01 0.787D-01 0.988D+00
 Gap=     0.286 Goal=   None    Shift=    0.000
 RMSDP=6.97D-05 MaxDP=1.49D-03 DE=-7.16D-04 OVMax= 1.94D-03

 Cycle   6  Pass 0  IDiag  1:
 RMSU=  3.79D-05    CP:  8.36D-01  1.98D+00  1.05D+00  1.03D+00  1.55D+00
 E= -462.022317078654     Delta-E=       -0.000017352175 Rises=F Damp=F
 DIIS: error= 5.87D-05 at cycle   6 NSaved=   6.
 NSaved= 6 IEnMin= 6 EnMin= -462.022317078654     IErMin= 6 ErrMin= 5.87D-05
 ErrMax= 5.87D-05  0.00D+00 EMaxC= 1.00D-01 BMatC= 3.86D-07 BMatP= 1.01D-05
 IDIUse=1 WtCom= 1.00D+00 WtEn= 0.00D+00
 Coeff-Com:  0.900D-02-0.194D-01-0.136D-01-0.698D-03 0.187D+00 0.838D+00
 Coeff:      0.900D-02-0.194D-01-0.136D-01-0.698D-03 0.187D+00 0.838D+00
 Gap=     0.286 Goal=   None    Shift=    0.000
 RMSDP=4.74D-05 MaxDP=1.06D-03 DE=-1.74D-05 OVMax= 3.45D-04

 Cycle   7  Pass 0  IDiag  1:
 RMSU=  2.29D-05    CP:  8.35D-01  1.98D+00  1.08D+00  1.08D+00  1.97D+00
                    CP:  1.42D+00
 E= -462.022318766815     Delta-E=       -0.000001688161 Rises=F Damp=F
 DIIS: error= 4.26D-05 at cycle   7 NSaved=   7.
 NSaved= 7 IEnMin= 7 EnMin= -462.022318766815     IErMin= 7 ErrMin= 4.26D-05
 ErrMax= 4.26D-05  0.00D+00 EMaxC= 1.00D-01 BMatC= 1.27D-07 BMatP= 3.86D-07
 IDIUse=1 WtCom= 1.00D+00 WtEn= 0.00D+00
 Coeff-Com: -0.152D-02 0.329D-02 0.463D-03-0.149D-01-0.973D-01 0.332D+00
 Coeff-Com:  0.778D+00
 Coeff:     -0.152D-02 0.329D-02 0.463D-03-0.149D-01-0.973D-01 0.332D+00
 Coeff:      0.778D+00
 Gap=     0.286 Goal=   None    Shift=    0.000
 RMSDP=5.29D-05 MaxDP=1.24D-03 DE=-1.69D-06 OVMax= 2.59D-04

 Cycle   8  Pass 0  IDiag  1:
 RMSU=  1.51D-05    CP:  8.34D-01  1.98D+00  1.11D+00  1.12D+00  2.47D+00
                    CP:  2.02D+00  1.67D+00
 E= -462.022322180962     Delta-E=       -0.000003414148 Rises=F Damp=F
 DIIS: error= 2.67D-05 at cycle   8 NSaved=   8.
 NSaved= 8 IEnMin= 8 EnMin= -462.022322180962     IErMin= 8 ErrMin= 2.67D-05
 ErrMax= 2.67D-05  0.00D+00 EMaxC= 1.00D-01 BMatC= 3.56D-08 BMatP= 1.27D-07
 IDIUse=1 WtCom= 1.00D+00 WtEn= 0.00D+00
 Coeff-Com: -0.886D-03 0.191D-02 0.880D-03-0.417D-02-0.356D-01 0.458D-01
 Coeff-Com:  0.208D+00 0.784D+00
 Coeff:     -0.886D-03 0.191D-02 0.880D-03-0.417D-02-0.356D-01 0.458D-01
 Coeff:      0.208D+00 0.784D+00
 Gap=     0.286 Goal=   None    Shift=    0.000
 RMSDP=4.89D-05 MaxDP=1.26D-03 DE=-3.41D-06 OVMax= 4.68D-05

 Cycle   9  Pass 0  IDiag  1:
 RMSU=  9.80D-06    CP:  8.34D-01  1.98D+00  1.13D+00  1.18D+00  2.90D+00
                    CP:  2.59D+00  2.37D+00  1.81D+00
 E= -462.022325362375     Delta-E=       -0.000003181412 Rises=F Damp=F
 DIIS: error= 3.53D-05 at cycle   9 NSaved=   9.
 NSaved= 9 IEnMin= 9 EnMin= -462.022325362375     IErMin= 8 ErrMin= 2.67D-05
 ErrMax= 3.53D-05  0.00D+00 EMaxC= 1.00D-01 BMatC= 4.60D-08 BMatP= 3.56D-08
 IDIUse=1 WtCom= 1.00D+00 WtEn= 0.00D+00
 Coeff-Com: -0.149D-02 0.320D-02 0.173D-02-0.510D-02-0.518D-01 0.211D-01
 Coeff-Com:  0.282D+00 0.180D+01-0.105D+01
 Coeff:     -0.149D-02 0.320D-02 0.173D-02-0.510D-02-0.518D-01 0.211D-01
 Coeff:      0.282D+00 0.180D+01-0.105D+01
 Gap=     0.286 Goal=   None    Shift=    0.000
 RMSDP=6.39D-05 MaxDP=1.58D-03 DE=-3.18D-06 OVMax= 5.30D-05

 Cycle  10  Pass 0  IDiag  1:
 RMSU=  8.56D-06    CP:  8.35D-01  1.98D+00  1.09D+00  1.09D+00  2.36D+00
                    CP:  1.96D+00  1.39D+00  8.02D-01 -2.98D-01
 E= -462.022322992180     Delta-E=        0.000002370195 Rises=F Damp=F
 DIIS: error= 2.62D-05 at cycle  10 NSaved=  10.
 NSaved=10 IEnMin= 9 EnMin= -462.022325362375     IErMin=10 ErrMin= 2.62D-05
 ErrMax= 2.62D-05  0.00D+00 EMaxC= 1.00D-01 BMatC= 2.77D-08 BMatP= 3.56D-08
 IDIUse=1 WtCom= 1.00D+00 WtEn= 0.00D+00
 Coeff-Com: -0.710D-03 0.153D-02 0.894D-03-0.227D-02-0.228D-01 0.297D-04
 Coeff-Com:  0.115D+00 0.968D+00-0.132D+01 0.126D+01
 Coeff:     -0.710D-03 0.153D-02 0.894D-03-0.227D-02-0.228D-01 0.297D-04
 Coeff:      0.115D+00 0.968D+00-0.132D+01 0.126D+01
 Gap=     0.286 Goal=   None    Shift=    0.000
 RMSDP=3.87D-05 MaxDP=9.48D-04 DE= 2.37D-06 OVMax= 2.97D-05

 Cycle  11  Pass 0  IDiag  1:
 RMSU=  1.81D-05    CP:  8.35D-01  1.98D+00  1.07D+00  1.06D+00  2.09D+00
                    CP:  1.73D+00  7.42D-01  1.01D+00 -7.50D-01  2.46D+00
 E= -462.022323594714     Delta-E=       -0.000000602534 Rises=F Damp=F
 DIIS: error= 2.09D-05 at cycle  11 NSaved=  11.
 NSaved=11 IEnMin= 9 EnMin= -462.022325362375     IErMin=11 ErrMin= 2.09D-05
 ErrMax= 2.09D-05  0.00D+00 EMaxC= 1.00D-01 BMatC= 2.04D-08 BMatP= 2.77D-08
 IDIUse=1 WtCom= 1.00D+00 WtEn= 0.00D+00
 Coeff-Com: -0.691D-03 0.149D-02 0.794D-03-0.260D-02-0.248D-01 0.191D-01
 Coeff-Com:  0.144D+00 0.793D+00-0.821D+00-0.835D-01 0.975D+00
 Coeff:     -0.691D-03 0.149D-02 0.794D-03-0.260D-02-0.248D-01 0.191D-01
 Coeff:      0.144D+00 0.793D+00-0.821D+00-0.835D-01 0.975D+00
 Gap=     0.286 Goal=   None    Shift=    0.000
 RMSDP=2.60D-05 MaxDP=9.22D-04 DE=-6.03D-07 OVMax= 2.17D-05

 Cycle  12  Pass 0  IDiag  1:
 RMSU=  1.54D-05    CP:  8.36D-01  1.97D+00  1.07D+00  1.06D+00  1.96D+00
                    CP:  1.68D+00  6.83D-01  1.03D+00 -4.03D-01  3.00D+00
                    CP:  1.75D+00
 E= -462.022322997748     Delta-E=        0.000000596966 Rises=F Damp=F
 DIIS: error= 2.12D-05 at cycle  12 NSaved=  12.
 NSaved=12 IEnMin= 9 EnMin= -462.022325362375     IErMin=11 ErrMin= 2.09D-05
 ErrMax= 2.12D-05  0.00D+00 EMaxC= 1.00D-01 BMatC= 2.26D-08 BMatP= 2.04D-08
 IDIUse=1 WtCom= 1.00D+00 WtEn= 0.00D+00
 Coeff-Com: -0.727D-03 0.156D-02 0.804D-03-0.288D-02-0.275D-01 0.237D-01
 Coeff-Com:  0.169D+00 0.888D+00-0.741D+00-0.862D+00 0.767D+00 0.784D+00
 Coeff:     -0.727D-03 0.156D-02 0.804D-03-0.288D-02-0.275D-01 0.237D-01
 Coeff:      0.169D+00 0.888D+00-0.741D+00-0.862D+00 0.767D+00 0.784D+00
 Gap=     0.286 Goal=   None    Shift=    0.000
 RMSDP=3.75D-05 MaxDP=1.01D-03 DE= 5.97D-07 OVMax= 3.18D-05

 Cycle  13  Pass 0  IDiag  1:
 RMSU=  8.31D-06    CP:  8.37D-01  1.97D+00  1.06D+00  1.05D+00  1.67D+00
                    CP:  1.47D+00  9.35D-02  1.32D+00 -5.10D-01  3.00D+00
                    CP:  2.69D+00  1.78D+00
 E= -462.022323427306     Delta-E=       -0.000000429558 Rises=F Damp=F
 DIIS: error= 1.41D-05 at cycle  13 NSaved=  13.
 NSaved=13 IEnMin= 9 EnMin= -462.022325362375     IErMin=13 ErrMin= 1.41D-05
 ErrMax= 1.41D-05  0.00D+00 EMaxC= 1.00D-01 BMatC= 1.54D-08 BMatP= 2.04D-08
 IDIUse=1 WtCom= 1.00D+00 WtEn= 0.00D+00
 Coeff-Com: -0.645D-03 0.139D-02 0.780D-03-0.219D-02-0.218D-01 0.308D-02
 Coeff-Com:  0.120D+00 0.790D+00-0.109D+01 0.380D+00 0.158D+00-0.660D+00
 Coeff-Com:  0.132D+01
 Coeff:     -0.645D-03 0.139D-02 0.780D-03-0.219D-02-0.218D-01 0.308D-02
 Coeff:      0.120D+00 0.790D+00-0.109D+01 0.380D+00 0.158D+00-0.660D+00
 Coeff:      0.132D+01
 Gap=     0.286 Goal=   None    Shift=    0.000
 RMSDP=5.61D-05 MaxDP=1.57D-03 DE=-4.30D-07 OVMax= 4.12D-05

 Cycle  14  Pass 0  IDiag  1:
 RMSU=  1.32D-05    CP:  8.38D-01  1.96D+00  1.02D+00  1.02D+00  1.17D+00
                    CP:  9.73D-01 -7.05D-01  7.98D-01  5.98D-02  3.00D+00
                    CP:  3.00D+00  1.91D+00  2.60D+00
 E= -462.022322425226     Delta-E=        0.000001002080 Rises=F Damp=F
 DIIS: error= 1.67D-05 at cycle  14 NSaved=  14.
 NSaved=14 IEnMin= 9 EnMin= -462.022325362375     IErMin=13 ErrMin= 1.41D-05
 ErrMax= 1.67D-05  0.00D+00 EMaxC= 1.00D-01 BMatC= 1.57D-08 BMatP= 1.54D-08
 IDIUse=1 WtCom= 1.00D+00 WtEn= 0.00D+00
 Coeff-Com: -0.103D-02 0.221D-02 0.137D-02-0.221D-02-0.295D-01-0.301D-01
 Coeff-Com:  0.133D+00 0.137D+01-0.147D+01 0.273D+00-0.180D+00-0.642D-01
 Coeff-Com:  0.228D+00 0.775D+00
 Coeff:     -0.103D-02 0.221D-02 0.137D-02-0.221D-02-0.295D-01-0.301D-01
 Coeff:      0.133D+00 0.137D+01-0.147D+01 0.273D+00-0.180D+00-0.642D-01
 Coeff:      0.228D+00 0.775D+00
 Gap=     0.286 Goal=   None    Shift=    0.000
 RMSDP=4.95D-05 MaxDP=1.14D-03 DE= 1.00D-06 OVMax= 3.67D-05

 Cycle  15  Pass 0  IDiag  1:
 RMSU=  7.99D-06    CP:  8.39D-01  1.96D+00  9.91D-01  9.72D-01  7.64D-01
                    CP:  4.46D-01 -1.46D+00  2.60D-01 -3.05D-01  3.00D+00
                    CP:  3.00D+00  2.01D+00  2.99D+00  1.95D+00
 E= -462.022317937877     Delta-E=        0.000004487349 Rises=F Damp=F
 DIIS: error= 1.28D-05 at cycle  15 NSaved=  15.
 NSaved=15 IEnMin= 9 EnMin= -462.022325362375     IErMin=15 ErrMin= 1.28D-05
 ErrMax= 1.28D-05  0.00D+00 EMaxC= 1.00D-01 BMatC= 1.49D-08 BMatP= 1.54D-08
 IDIUse=1 WtCom= 1.00D+00 WtEn= 0.00D+00
 Coeff-Com: -0.778D-03 0.167D-02 0.110D-02-0.130D-02-0.200D-01-0.378D-01
 Coeff-Com:  0.776D-01 0.109D+01-0.134D+01 0.509D+00-0.318D+00 0.196D+00
 Coeff-Com:  0.167D+00-0.261D-01 0.697D+00
 Coeff:     -0.778D-03 0.167D-02 0.110D-02-0.130D-02-0.200D-01-0.378D-01
 Coeff:      0.776D-01 0.109D+01-0.134D+01 0.509D+00-0.318D+00 0.196D+00
 Coeff:      0.167D+00-0.261D-01 0.697D+00
 Gap=     0.286 Goal=   None    Shift=    0.000
 RMSDP=1.90D-05 MaxDP=4.45D-04 DE= 4.49D-06 OVMax= 1.44D-05

 Cycle  16  Pass 0  IDiag  1:
 RMSU=  5.29D-06    CP:  8.39D-01  1.96D+00  9.77D-01  9.40D-01  6.42D-01
                    CP:  2.57D-01 -1.63D+00 -1.45D-01 -7.06D-01  3.00D+00
                    CP:  3.00D+00  2.06D+00  2.82D+00  2.17D+00  1.48D+00
 E= -462.022315178008     Delta-E=        0.000002759868 Rises=F Damp=F
 DIIS: error= 1.41D-05 at cycle  16 NSaved=  16.
 NSaved=16 IEnMin= 9 EnMin= -462.022325362375     IErMin=15 ErrMin= 1.28D-05
 ErrMax= 1.41D-05  0.00D+00 EMaxC= 1.00D-01 BMatC= 1.14D-08 BMatP= 1.49D-08
 IDIUse=1 WtCom= 1.00D+00 WtEn= 0.00D+00
 Coeff-Com: -0.693D-03 0.149D-02 0.994D-03-0.108D-02-0.174D-01-0.356D-01
[...]
 08147\C,0.7529894944,-0.7062130639,-0.0000001432\C,1.9040312801,1.4362
 084557,0.0000007647\C,-1.9040312532,-1.4362086326,0.0000009336\C,-3.10
 2309745,0.6899088945,-0.0000002877\C,1.9040312925,-1.4362086138,-0.000
 0009836\C,3.1023097632,0.6899089252,0.0000002377\C,-3.1023097375,-0.68
 99091039,0.000000577\C,3.1023097694,-0.6899090731,-0.000000627\H,-1.92
 30699014,2.5181239388,-0.0000009952\H,1.9230699014,2.5181239579,0.0000
 009452\H,-1.9230698794,-2.5181241347,0.0000013453\H,-4.0491377018,1.21
 51819288,-0.0000003631\H,1.9230699294,-2.5181241157,-0.0000013953\H,4.
 0491377147,1.215181969,0.0000003131\H,-4.0491376911,-1.2151821438,0.00
 00009225\H,4.0491377281,-1.2151821036,-0.0000009725\\Version=AM64L-G09
 RevD.01\State=1-A\HF=-462.0227604\RMSD=7.070e-10\RMSF=5.377e-06\ZeroPo
 int=0.1596458\Thermal=0.1676836\Dipole=0.,0.,0.\DipoleDeriv=0.0298395,
 -0.1210146,0.0000002,0.4080926,-0.0722543,0.0000001,0.0000005,0.000000
 5,-0.0131899,0.0298395,0.1210146,0.0000002,-0.4080929,-0.0722543,-0.00
 00001,0.0000005,-0.0000005,-0.0131899,0.0298396,0.1210146,0.,-0.408092
 6,-0.0722543,0.,-0.0000002,-0.0000001,-0.0131899,0.1208177,0.0054851,-
 0.0000001,-0.0428998,0.1520596,0.,-0.0000005,-0.0000001,-0.1109766,0.0
 298396,-0.1210146,0.,0.4080929,-0.0722543,0.,-0.0000002,0.0000001,-0.0
 131899,0.1208179,-0.0054851,-0.0000001,0.0429002,0.1520596,0.,-0.00000
 05,0.0000001,-0.1109767,0.1208175,-0.0054851,0.,0.0428998,0.1520596,-0
 .0000001,0.0000002,0.,-0.1109766,-0.1486849,-0.0079136,0.,-0.3090055,-
 0.039548,0.,0.0000002,-0.0000002,-0.1530808,0.1208179,0.0054851,0.,-0.
 0429002,0.1520596,0.0000001,0.0000002,0.,-0.1109767,-0.1486847,0.00791
 36,0.,0.3090051,-0.039548,0.,0.0000002,0.0000002,-0.1530807,-0.1486848
 ,0.0079136,0.,0.3090055,-0.039548,0.,-0.0000001,-0.0000001,-0.1530808,
 -0.1486848,-0.0079136,0.,-0.3090051,-0.039548,0.,-0.0000001,0.0000001,
 -0.1530807,0.0794574,-0.0118188,0.,0.0172103,-0.0747688,0.,0.,0.,0.139
 5241,0.0794574,0.0118188,0.,-0.0172103,-0.0747688,0.,0.,0.,0.1395241,0
 .0794574,0.0118188,0.,-0.0172103,-0.0747688,0.0000001,0.,0.,0.1395241,
 -0.0814299,0.0705844,0.,0.0602865,0.0345115,0.,0.,0.0000001,0.1377232,
 0.0794574,-0.0118188,0.,0.0172103,-0.0747688,-0.0000001,0.,0.,0.139524
 1,-0.0814299,-0.0705845,0.,-0.0602865,0.0345115,0.,0.,-0.0000001,0.137
 7232,-0.0814299,-0.0705844,0.,-0.0602865,0.0345115,0.,0.,0.0000001,0.1
 377232,-0.0814299,0.0705845,0.,0.0602865,0.0345115,0.,0.,-0.0000001,0.
 1377232\Polar=211.9790493,0.0000004,134.7829575,-0.0000117,0.,67.71233
 86\PG=C02 [X(C12H8)]\NImag=0\\0.72469222,-0.16401114,0.62377258,0.0000
 0016,-0.00000018,0.14390402,-0.20458540,-0.01635648,-0.00000011,0.7246
 9221,0.01635648,-0.06041018,0.,0.16401115,0.62377258,-0.00000011,0.,-0
 .05641091,0.00000016,0.00000018,0.14390402,-0.06703925,0.03257697,0.00
 000001,-0.08657929,-0.06672618,-0.00000001,0.72469223,-0.03257697,-0.2
 7796700,0.00000010,-0.06672618,-0.04785597,0.,0.16401115,0.62377257,0.
 ,0.00000010,-0.08481271,-0.00000003,-0.00000004,0.01948520,-0.00000018
 ,-0.00000025,0.14390402,-0.31574572,0.09016981,-0.00000009,0.00430562,
 0.01606274,0.00000002,0.01863699,0.08265525,-0.00000004,0.64185830,0.1
 4759130,-0.21902657,0.00000004,0.00063357,0.00518713,0.,0.02780771,-0.
 01827254,0.00000001,-0.05718321,0.77084347,-0.00000006,0.00000006,-0.0
 5964298,0.,0.00000002,0.00082679,-0.00000001,-0.00000001,0.00955763,0.
 ,-0.00000019,0.13176131,-0.08657929,0.06672618,-0.00000001,-0.06703925
 ,-0.03257697,0.00000001,-0.20458539,0.01635648,0.00000003,0.01733859,0
 .00047900,-0.00000002,0.72469224,0.06672618,-0.04785597,0.,0.03257697,
 -0.27796700,-0.00000010,-0.01635648,-0.06041018,0.,-0.00681282,-0.0030
 5399,0.,-0.16401115,0.62377257,-0.00000003,0.00000004,0.01948520,0.,-0
 .00000010,-0.08481271,0.00000003,0.,-0.05641091,0.,0.,0.00610189,-0.00
 000018,0.00000025,0.14390402,0.00430562,-0.01606274,0.00000002,-0.3157
 4571,-0.09016981,-0.00000009,0.01733859,0.00681282,0.,-0.01070472,-0.0
 0100426,0.,0.01863699,-0.08265525,-0.00000004,0.64185830,-0.00063357,0
 .00518713,0.,-0.14759131,-0.21902657,-0.00000004,-0.00047900,-0.003053
 99,0.,0.00100426,0.00231091,0.,-0.02780771,-0.01827254,-0.00000001,0.0
 5718321,0.77084347,0.,-0.00000002,0.00082679,-0.00000006,-0.00000006,-
 0.05964298,-0.00000002,0.,0.00610189,0.,0.,0.00009464,-0.00000001,0.00
 000001,0.00955763,0.,0.00000019,0.13176131,0.01863698,-0.08265524,0.00
 000002,0.01733859,0.00681282,0.,-0.31574573,-0.09016981,0.00000016,-0.
 07000615,-0.00183924,0.00000001,0.00430561,-0.01606274,0.00000001,-0.0
 1479514,-0.00251295,0.,0.64185831,-0.02780771,-0.01827254,0.00000002,-
 0.00047900,-0.00305398,0.,-0.14759131,-0.21902657,0.00000015,0.0018392
 4,0.00092177,0.,-0.00063357,0.00518713,-0.00000001,-0.00251295,0.00127
 980,0.,0.05718321,0.77084347,0.00000001,0.,0.00955763,0.,0.,0.00610189
 ,0.00000018,0.00000015,-0.05964298,0.,0.,-0.00505756,0.,0.,0.00082679,
 0.,0.,-0.00043394,-0.00000016,-0.00000035,0.13176131,-0.06423543,0.033
 47787,0.,-0.00656588,-0.00121977,0.,-0.01108959,-0.03381933,0.00000001
 ,-0.24206853,-0.11137446,0.00000008,-0.00961426,0.00277173,0.,0.006377
 87,0.00076941,0.,0.03555545,0.02755643,-0.00000001,0.69567126,-0.01825
 996,0.07738284,0.,-0.00760641,-0.00557652,0.,-0.02471595,-0.06638547,0
 .00000004,-0.03833813,-0.17707659,0.00000003,-0.01263072,0.00440679,0.
 ,0.01033916,-0.00036277,0.,0.08283397,-0.02484248,0.,-0.05084890,0.692
 91906,0.00000001,-0.00000004,0.00761833,0.,0.,0.00797955,0.00000002,0.
 00000004,-0.00629357,0.00000006,0.00000007,-0.06039428,0.,0.,-0.001617
 92,0.,0.,-0.00010185,-0.00000005,0.00000002,0.00544932,-0.00000006,-0.
 00000031,0.13451369,0.01733859,-0.00681282,0.,0.01863698,0.08265524,0.
 00000002,0.00430561,0.01606274,0.00000001,-0.01479514,0.00251295,0.,-0
 .31574573,0.09016981,0.00000016,-0.07000615,0.00183924,0.00000001,-0.0
 1070472,0.00100426,0.,0.00806753,0.01099432,0.,0.64185832,0.00047900,-
 0.00305398,0.,0.02780771,-0.01827254,-0.00000002,0.00063357,0.00518713
 ,0.00000001,0.00251295,0.00127980,0.,0.14759131,-0.21902656,-0.0000001
 5,-0.00183924,0.00092177,0.,-0.00100426,0.00231091,0.,-0.00039074,-0.0
 0091272,0.,-0.05718321,0.77084347,0.,0.,0.00610189,0.00000001,0.,0.009
 55763,0.,0.,0.00082679,0.,0.,-0.00043394,0.00000018,-0.00000015,-0.059
 64298,0.,0.,-0.00505756,0.,0.,0.00009464,0.,0.,-0.00010701,-0.00000016
 ,0.00000035,0.13176131,-0.00656588,0.00121977,0.,-0.06423543,-0.033477
 87,0.,-0.00961426,-0.00277173,0.,0.00637787,-0.00076941,0.,-0.01108959
 ,0.03381933,0.00000001,-0.24206853,0.11137446,0.00000008,0.00806753,0.
 00039074,0.,-0.00447564,-0.00535194,0.,0.03555545,-0.02755643,-0.00000
 001,0.69567126,0.00760641,-0.00557652,0.,0.01825995,0.07738284,0.,0.01
 263072,0.00440679,0.,-0.01033916,-0.00036277,0.,0.02471595,-0.06638547
 ,-0.00000004,0.03833813,-0.17707659,-0.00000003,-0.01099432,-0.0009127
 2,0.,0.00535194,0.00907296,0.,-0.08283397,-0.02484248,0.,0.05084890,0.
 69291906,0.,0.,0.00797955,0.00000001,0.00000004,0.00761833,0.,0.,-0.00
 161792,0.,0.,-0.00010185,0.00000002,-0.00000004,-0.00629357,0.00000006
 ,-0.00000007,-0.06039428,0.,0.,-0.00010701,0.,0.,-0.00054025,-0.000000
 05,-0.00000002,0.00544932,-0.00000006,0.00000031,0.13451369,-0.0110895
 9,0.03381933,0.,-0.00961427,-0.00277174,0.,-0.06423543,-0.03347787,0.0
 0000002,0.03555545,-0.02755642,0.,-0.00656589,0.00121977,0.,0.00806753
 ,0.00039074,0.,-0.24206853,0.11137446,-0.00000005,-0.13269984,-0.03820
 812,0.00000003,0.00637788,-0.00076941,0.,-0.00380531,0.00641729,0.,0.6
 9567127,0.02471595,-0.06638547,0.00000001,0.01263073,0.00440679,0.,0.0
 1825995,0.07738284,-0.00000003,-0.08283397,-0.02484248,0.00000003,0.00
 760641,-0.00557652,0.00000001,-0.01099432,-0.00091272,0.,0.03833814,-0
 .17707659,0.00000006,0.03820813,-0.35382989,0.00000018,-0.01033916,-0.
 00036277,0.,0.00641729,-0.00858963,0.,0.05084890,0.69291906,-0.0000000
 1,0.00000004,-0.00629357,0.,0.,-0.00161792,0.,-0.00000004,0.00761833,0
 .00000004,0.00000002,0.00544932,0.,0.,0.00797955,0.,0.,-0.00010701,-0.
 00000002,0.00000006,-0.06039428,-0.00000001,0.00000019,-0.06297514,0.,
 0.,-0.00010185,0.,0.,0.00018757,-0.00000008,-0.00000034,0.13451369,-0.
 00961427,0.00277174,0.,-0.01108959,-0.03381933,0.,-0.00656589,-0.00121
 977,0.,0.00806753,-0.00039074,0.,-0.06423543,0.03347787,0.00000002,0.0
 3555545,0.02755643,0.,0.00637788,0.00076941,0.,-0.00380531,-0.00641729
 ,0.,-0.24206853,-0.11137446,-0.00000005,-0.13269984,0.03820812,0.00000
 003,-0.00447565,0.00535194,0.,0.69567127,-0.01263073,0.00440679,0.,-0.
 02471595,-0.06638547,-0.00000001,-0.00760641,-0.00557652,-0.00000001,0
 .01099432,-0.00091272,0.,-0.01825995,0.07738284,0.00000003,0.08283397,
 -0.02484248,-0.00000003,0.01033916,-0.00036277,0.,-0.00641729,-0.00858
 963,0.,-0.03833814,-0.17707659,-0.00000006,-0.03820812,-0.35382989,-0.
 00000018,-0.00535194,0.00907296,0.,-0.05084890,0.69291906,0.,0.,-0.001
 61792,-0.00000001,-0.00000004,-0.00629357,0.,0.,0.00797955,0.,0.,-0.00
 010701,0.,0.00000004,0.00761833,0.00000004,-0.00000002,0.00544932,0.,0
 .,-0.00010185,0.,0.,0.00018757,-0.00000002,-0.00000006,-0.06039428,-0.
 00000001,-0.00000019,-0.06297514,0.,0.,-0.00054025,-0.00000008,0.00000
 034,0.13451369,0.00768111,0.02837532,0.,0.00024217,-0.00070925,0.,-0.0
 0359518,0.00178235,0.,-0.06071327,0.00607833,0.,0.00004288,0.00088485,
 0.,-0.00022692,0.00001238,0.,-0.00123085,0.00027570,0.,0.00618946,-0.0
 2702674,0.,-0.00052036,-0.00020808,0.,-0.00002063,-0.00021776,0.,-0.00
 448679,-0.00234195,0.,0.00008203,0.00018575,0.,0.05567222,-0.00276006,
 -0.01212028,0.,0.00027732,0.00055481,0.,0.00200658,0.00137653,0.,0.005
 27127,-0.34331901,0.00000005,0.00030061,-0.00068955,0.,0.00014607,-0.0
 0024025,0.,0.00027791,0.00034221,0.,0.00349097,-0.01068701,0.,0.000062
 18,0.00009827,0.,0.00019658,0.00004932,0.,-0.00293762,0.00082999,0.,0.
 00005322,0.00006476,0.,-0.00632580,0.36367454,0.00000002,0.,0.00297875
 ,0.,0.,-0.00374533,0.,0.,0.01018445,-0.00000002,0.00000005,-0.03777592
 ,0.,0.,0.00002985,0.,0.,-0.00020427,0.,0.,-0.00076539,0.,0.00000001,0.
 00197673,0.,0.,-0.00056886,0.,0.,0.00018674,0.,0.,0.00675200,0.,0.,-0.
 00002897,0.,-0.00000006,0.02519925,0.00024217,0.00070925,0.,0.00768111
 ,-0.02837532,0.,0.00004288,-0.00088485,0.,-0.00022692,-0.00001238,0.,-
 0.00359518,-0.00178235,0.,-0.06071327,-0.00607832,0.,-0.00052036,0.000
 20808,0.,-0.00002063,0.00021776,0.,-0.00123085,-0.00027570,0.,0.006189
 46,0.02702674,0.,0.00008203,-0.00018575,0.,-0.00448679,0.00234195,0.,-
 0.00017922,0.00007279,0.,0.05567222,-0.00027732,0.00055481,0.,0.002760
 06,-0.01212028,0.,-0.00030061,-0.00068955,0.,-0.00014607,-0.00024025,0
 .,-0.00200658,0.00137653,0.,-0.00527127,-0.34331901,-0.00000005,-0.000
 06218,0.00009827,0.,-0.00019658,0.00004932,0.,-0.00027792,0.00034221,0
 .,-0.00349097,-0.01068701,0.,-0.00005322,0.00006476,0.,0.00293762,0.00
 082999,0.,-0.00007279,0.00007455,0.,0.00632580,0.36367454,0.,0.,-0.003
 74533,0.00000002,0.,0.00297875,0.,0.,0.00002985,0.,0.,-0.00020427,0.,0
 .,0.01018445,-0.00000002,-0.00000005,-0.03777592,0.,0.,-0.00056886,0.,
 0.,0.00018674,0.,0.,-0.00076539,0.,-0.00000001,0.00197673,0.,0.,-0.000
 02897,0.,0.,0.00675200,0.,0.,0.00007407,0.,0.00000006,0.02519925,-0.00
 359518,-0.00178234,0.,0.00004288,-0.00088485,0.,0.00768111,-0.02837532
 ,0.00000001,-0.00123085,-0.00027570,0.,0.00024217,0.00070925,0.,-0.000
 52036,0.00020808,0.,-0.06071327,-0.00607832,0.,-0.00448679,0.00234195,
 0.,-0.00022692,-0.00001238,0.,0.00008203,-0.00018575,0.,0.00618946,0.0
 2702674,-0.00000001,-0.00002063,0.00021776,0.,0.00018318,-0.00005332,0
 .,0.00001773,0.00000164,0.,0.05567222,-0.00200658,0.00137653,0.,-0.000
 30062,-0.00068955,0.,0.00276006,-0.01212028,0.,-0.00027792,0.00034221,
 0.,-0.00027732,0.00055481,0.,-0.00006217,0.00009827,0.,-0.00527127,-0.
 34331901,0.00000013,0.00293762,0.00082999,0.,-0.00014607,-0.00024025,0
 .,-0.00005322,0.00006476,0.,-0.00349097,-0.01068701,0.,-0.00019658,0.0
 0004931,0.,0.00005332,-0.00008688,0.,0.00000164,-0.00001514,0.,0.00632
 580,0.36367454,0.,0.,0.01018445,0.,0.,0.00002985,0.,0.00000003,0.00297
 875,0.,0.,-0.00076539,0.,0.,-0.00374533,0.,0.,-0.00056886,0.,0.0000001
 1,-0.03777592,0.,0.,0.00675200,0.,0.,-0.00020427,0.,0.,-0.00002897,0.,
 0.,0.00197673,0.,0.,0.00018674,0.,0.,-0.00151025,0.,0.,0.00000442,0.,-
 0.00000014,0.02519925,-0.00402453,-0.00363196,0.,0.00023844,0.00035016
 ,0.,0.00022288,-0.00078694,0.,-0.01779699,0.01512105,0.,-0.00032634,0.
 00014488,0.,-0.00011321,0.00022748,0.,0.00169866,-0.00052638,0.,-0.276
 00942,0.12001249,-0.00000001,0.00008283,0.00009110,0.,-0.00006134,-0.0
 0000103,0.,0.00328753,-0.00250034,0.,-0.00009850,-0.00002262,0.,0.0008
 5607,-0.00030089,0.,-0.00000244,-0.00002910,0.,0.00004184,-0.00016495,
 0.,0.29117169,-0.00375417,-0.00075066,0.,-0.00041283,0.00036087,0.,-0.
 00096683,-0.00103549,0.,-0.01564437,0.01133290,0.,-0.00043741,0.000102
 67,0.,0.00009782,0.00013866,0.,-0.00087908,-0.00541468,0.,0.11917497,-
 0.12564208,0.00000002,0.00022239,0.00006647,0.,-0.00010059,0.00010205,
 0.,0.02951957,-0.01078984,0.,-0.00010624,-0.00013277,0.,0.00061443,0.0
 0072238,0.,-0.00000036,-0.00001273,0.,0.00132951,-0.00063468,0.,-0.128
 32529,0.13084109,0.,0.,0.00582603,0.,0.,0.00042147,0.,0.,-0.00148683,0
 .00000002,0.,0.00254972,0.,0.,-0.00090372,0.,0.,0.00021328,0.,0.,0.008
 44058,-0.00000001,0.00000002,-0.03533413,0.,0.,0.00005689,0.,0.,-0.000
 05035,-0.00000002,0.00000002,0.00278614,0.,0.,-0.00000659,0.,0.,-0.003
 05606,0.,0.,0.00006378,0.,0.,0.00008290,0.00000001,-0.00000003,0.02525
 246,0.00004288,0.00088485,0.,-0.00359518,0.00178234,0.,0.00024217,-0.0
 0070925,0.,-0.00052036,-0.00020808,0.,0.00768111,0.02837532,0.00000001
 ,-0.00123085,0.00027570,0.,-0.00022692,0.00001238,0.,0.00008203,0.0001
 8575,0.,-0.06071327,0.00607833,0.,-0.00448679,-0.00234195,0.,-0.000020
 63,-0.00021776,0.,0.00618946,-0.02702674,-0.00000001,0.00001773,-0.000
 00164,0.,0.00018318,0.00005332,0.,-0.00017922,-0.00007279,0.,-0.000033
 07,-0.00002927,0.,0.05567222,0.00030062,-0.00068955,0.,0.00200658,0.00
 137653,0.,0.00027732,0.00055481,0.,0.00006217,0.00009827,0.,-0.0027600
 6,-0.01212028,0.,0.00027792,0.00034221,0.,0.00014607,-0.00024025,0.,0.
 00005322,0.00006476,0.,0.00527127,-0.34331901,-0.00000013,-0.00293762,
 0.00082999,0.,0.00019658,0.00004931,0.,0.00349097,-0.01068701,0.,-0.00
 000164,-0.00001514,0.,-0.00005332,-0.00008688,0.,0.00007279,0.00007455
 ,0.,0.00002977,0.00001815,0.,-0.00632580,0.36367454,0.,0.,0.00002985,0
 .,0.,0.01018445,0.,0.,-0.00374533,0.,0.,-0.00056886,0.,-0.00000003,0.0
 0297875,0.,0.,-0.00076539,0.,0.,-0.00020427,0.,0.,-0.00002897,0.,-0.00
 000011,-0.03777592,0.,0.,0.00675200,0.,0.,0.00018674,0.,0.,0.00197673,
 0.,0.,0.00000442,0.,0.,-0.00151025,0.,0.,0.00007407,0.,0.,0.00012211,0
 .,0.00000014,0.02519925,0.00023844,-0.00035016,0.,-0.00402453,0.003631
 96,0.,-0.00032634,-0.00014488,0.,-0.00011321,-0.00022748,0.,0.00022288
 ,0.00078694,0.,-0.01779699,-0.01512105,0.,0.00008283,-0.00009110,0.,-0
 .00006134,0.00000103,0.,0.00169866,0.00052638,0.,-0.27600942,-0.120012
 49,-0.00000001,-0.00009850,0.00002262,0.,0.00328753,0.00250034,0.,-0.0
 0000244,0.00002910,0.,0.00085607,0.00030089,0.,-0.00003307,-0.00002977
 ,0.,-0.00004772,-0.00001711,0.,0.00004184,0.00016495,0.,0.29117168,0.0
 0041283,0.00036087,0.,0.00375417,-0.00075066,0.,0.00043741,0.00010267,
 0.,-0.00009782,0.00013866,0.,0.00096683,-0.00103549,0.,0.01564437,0.01
 133290,0.,-0.00022239,0.00006647,0.,0.00010059,0.00010205,0.,0.0008790
 8,-0.00541468,0.,-0.11917497,-0.12564208,-0.00000002,0.00010624,-0.000
 13277,0.,-0.02951957,-0.01078984,0.,0.00000036,-0.00001273,0.,-0.00061
 443,0.00072238,0.,0.00002927,0.00001815,0.,0.00001711,0.00001309,0.,-0
 .00132951,-0.00063468,0.,0.12832529,0.13084109,0.,0.,0.00042147,0.,0.,
 0.00582603,0.,0.,-0.00090372,0.,0.,0.00021328,0.,0.,-0.00148683,0.0000
 0002,0.,0.00254972,0.,0.,0.00005689,0.,0.,-0.00005035,0.,0.,0.00844058
 ,-0.00000001,-0.00000002,-0.03533413,0.,0.,-0.00000659,-0.00000002,-0.
 00000002,0.00278614,0.,0.,0.00006378,0.,0.,-0.00305606,0.,0.,0.0001221
 1,0.,0.,-0.00008756,0.,0.,0.00008290,0.00000001,0.00000003,0.02525246,
 0.00022288,0.00078694,0.,-0.00032633,-0.00014488,0.,-0.00402453,0.0036
 3196,0.,0.00169866,0.00052638,0.,0.00023845,-0.00035017,0.,0.00008282,
 -0.00009110,0.,-0.01779700,-0.01512105,0.00000001,0.00328753,0.0025003
 4,0.,-0.00011321,-0.00022747,0.,-0.00009850,0.00002261,0.,-0.27600942,
 -0.12001249,0.00000008,-0.00006134,0.00000104,0.,0.00004184,0.00016495
 ,0.,-0.00003307,-0.00002977,0.,0.00085607,0.00030089,0.,0.00092517,-0.
 00029030,0.,-0.00000244,0.00002910,0.,-0.00001155,-0.00000515,0.,0.291
 17169,0.00096682,-0.00103549,0.,0.00043741,0.00010267,0.,0.00375417,-0
 .00075066,0.,0.00087909,-0.00541468,0.,0.00041284,0.00036087,0.,-0.000
 22239,0.00006647,0.,0.01564437,0.01133290,0.,-0.02951957,-0.01078984,0
 .00000001,-0.00009783,0.00013866,0.,0.00010624,-0.00013277,0.,-0.11917
 497,-0.12564208,0.00000006,0.00010059,0.00010206,0.,-0.00132951,-0.000
 63468,0.,0.00002927,0.00001815,0.,-0.00061443,0.00072238,0.,0.00029030
 ,0.00071332,0.,0.00000036,-0.00001273,0.,-0.00000515,0.00000128,0.,0.1
 2832529,0.13084109,0.,0.,-0.00148683,0.,0.,-0.00090372,0.,0.,0.0058260
 3,0.,0.,0.00844058,0.,0.,0.00042147,0.,0.,0.00005689,0.,0.,0.00254972,
 0.00000002,0.00000001,0.00278614,0.,0.,0.00021328,0.,0.,-0.00000659,0.
 00000008,0.00000006,-0.03533413,0.,0.,-0.00005035,0.,0.,0.00008290,0.,
 0.,0.00012211,0.,0.,-0.00305606,0.,0.,-0.00488908,0.,0.,0.00006378,0.,
 0.,-0.00000104,-0.00000009,-0.00000007,0.02525246,-0.00032633,0.000144
 88,0.,0.00022288,-0.00078694,0.,0.00023845,0.00035017,0.,0.00008282,0.
 00009110,0.,-0.00402453,-0.00363196,0.,0.00169866,-0.00052638,0.,-0.00
 011321,0.00022747,0.,-0.00009850,-0.00002261,0.,-0.01779700,0.01512105
 ,0.00000001,0.00328753,-0.00250034,0.,-0.00006134,-0.00000104,0.,-0.27
 600942,0.12001249,0.00000008,-0.00003307,0.00002977,0.,0.00004184,-0.0
 0016495,0.,-0.00000244,-0.00002910,0.,-0.00001155,0.00000515,0.,0.0008
 5607,-0.00030089,0.,0.00092517,0.00029030,0.,-0.00004772,0.00001711,0.
 ,0.29117169,-0.00043741,0.00010267,0.,-0.00096682,-0.00103549,0.,-0.00
 041284,0.00036087,0.,0.00022239,0.00006647,0.,-0.00375417,-0.00075066,
 0.,-0.00087909,-0.00541468,0.,0.00009783,0.00013866,0.,-0.00010624,-0.
 00013277,0.,-0.01564437,0.01133290,0.,0.02951957,-0.01078984,-0.000000
 01,-0.00010059,0.00010206,0.,0.11917497,-0.12564208,-0.00000006,-0.000
 02927,0.00001815,0.,0.00132951,-0.00063468,0.,-0.00000036,-0.00001273,
 0.,0.00000515,0.00000128,0.,0.00061443,0.00072238,0.,-0.00029030,0.000
 71332,0.,-0.00001711,0.00001309,0.,-0.12832529,0.13084109,0.,0.,-0.000
 90372,0.,0.,-0.00148683,0.,0.,0.00042147,0.,0.,0.00005689,0.,0.,0.0058
 2603,0.,0.,0.00844058,0.,0.,0.00021328,0.,0.,-0.00000659,0.,0.,0.00254
 972,0.00000002,-0.00000001,0.00278614,0.,0.,-0.00005035,0.00000008,-0.
 00000006,-0.03533413,0.,0.,0.00012211,0.,0.,0.00008290,0.,0.,0.0000637
 8,0.,0.,-0.00000104,0.,0.,-0.00305606,0.,0.,-0.00488908,0.,0.,-0.00008
 756,-0.00000009,0.00000007,0.02525246\\-0.00000403,-0.00000695,-0.0000
 0013,0.00000403,-0.00000695,0.00000013,-0.00000403,0.00000695,0.000000
 05,0.00000916,0.00001075,-0.00000002,0.00000403,0.00000695,-0.00000005
 ,-0.00000916,0.00001075,0.00000002,0.00000916,-0.00001075,0.00000006,-
 0.00000615,-0.00001104,0.,-0.00000916,-0.00001075,-0.00000006,0.000006
 15,-0.00001104,0.,-0.00000615,0.00001104,0.,0.00000615,0.00001104,0.,-
 0.00000228,-0.00000148,0.,0.00000228,-0.00000148,0.,-0.00000228,0.0000
 0148,-0.00000002,-0.00000027,0.00000160,0.,0.00000228,0.00000148,0.000
 00002,0.00000027,0.00000160,0.,-0.00000027,-0.00000160,0.,0.00000027,-
 0.00000160,0.\\\@


 THE ONLY DIFFERENCE BETWEEN ECCENTRICS AND JOGGERS
 IS THAT JOGGERS WEAR SWEATBANDS WHEN THEY RUN IN THE RAIN.
 Job cpu time:       0 days  4 hours 56 minutes  7.1 seconds.
 File lengths (MBytes):  RWF=    194 Int=      0 D2E=      0 Chk=     14 Scr=      1
 Normal termination of Gaussian 09 at Fri Jul  9 19:52:24 2021.
