 Entering Gaussian System, Link 0=g09
 Initial command:
 /home/minenky/programs//g09/l1.exe "/local/scratch/minenky/m1_00_119123-35-2-C32H18_wB97XD/Gau-19393.inp" -scrdir="/local/scratch/minenky/m1_00_119123-35-2-C32H18_wB97XD/"
 Entering Link 1 = /home/minenky/programs//g09/l1.exe PID=     19394.
  
 Copyright (c) 1988,1990,1992,1993,1995,1998,2003,2009,2013,
            Gaussian, Inc.  All Rights Reserved.
  
 This is part of the Gaussian(R) 09 program.  It is based on
 the Gaussian(R) 03 system (copyright 2003, Gaussian, Inc.),
 the Gaussian(R) 98 system (copyright 1998, Gaussian, Inc.),
 the Gaussian(R) 94 system (copyright 1995, Gaussian, Inc.),
 the Gaussian 92(TM) system (copyright 1992, Gaussian, Inc.),
 the Gaussian 90(TM) system (copyright 1990, Gaussian, Inc.),
 the Gaussian 88(TM) system (copyright 1988, Gaussian, Inc.),
 the Gaussian 86(TM) system (copyright 1986, Carnegie Mellon
 University), and the Gaussian 82(TM) system (copyright 1983,
 Carnegie Mellon University). Gaussian is a federally registered
 trademark of Gaussian, Inc.
  
 This software contains proprietary and confidential information,
 including trade secrets, belonging to Gaussian, Inc.
  
 This software is provided under written license and may be
 used, copied, transmitted, or stored only in accord with that
 written license.
  
 The following legend is applicable only to US Government
 contracts under FAR:
  
                    RESTRICTED RIGHTS LEGEND
  
 Use, reproduction and disclosure by the US Government is
 subject to restrictions as set forth in subparagraphs (a)
 and (c) of the Commercial Computer Software - Restricted
 Rights clause in FAR 52.227-19.
  
 Gaussian, Inc.
 340 Quinnipiac St., Bldg. 40, Wallingford CT 06492
  
  
 ---------------------------------------------------------------
 Warning -- This program may not be used in any manner that
 competes with the business of Gaussian, Inc. or will provide
 assistance to any competitor of Gaussian, Inc.  The licensee
 of this program is prohibited from giving any competitor of
 Gaussian, Inc. access to this program.  By using this program,
 the user acknowledges that Gaussian, Inc. is engaged in the
 business of creating and licensing software in the field of
 computational chemistry and represents and warrants to the
 licensee that it is not a competitor of Gaussian, Inc. and that
 it will not use this program in any manner prohibited above.
 ---------------------------------------------------------------
  

 Cite this work as:
 Gaussian 09, Revision D.01,
 M. J. Frisch, G. W. Trucks, H. B. Schlegel, G. E. Scuseria, 
 M. A. Robb, J. R. Cheeseman, G. Scalmani, V. Barone, B. Mennucci, 
 G. A. Petersson, H. Nakatsuji, M. Caricato, X. Li, H. P. Hratchian, 
 A. F. Izmaylov, J. Bloino, G. Zheng, J. L. Sonnenberg, M. Hada, 
 M. Ehara, K. Toyota, R. Fukuda, J. Hasegawa, M. Ishida, T. Nakajima, 
 Y. Honda, O. Kitao, H. Nakai, T. Vreven, J. A. Montgomery, Jr., 
 J. E. Peralta, F. Ogliaro, M. Bearpark, J. J. Heyd, E. Brothers, 
 K. N. Kudin, V. N. Staroverov, T. Keith, R. Kobayashi, J. Normand, 
 K. Raghavachari, A. Rendell, J. C. Burant, S. S. Iyengar, J. Tomasi, 
 M. Cossi, N. Rega, J. M. Millam, M. Klene, J. E. Knox, J. B. Cross, 
 V. Bakken, C. Adamo, J. Jaramillo, R. Gomperts, R. E. Stratmann, 
 O. Yazyev, A. J. Austin, R. Cammi, C. Pomelli, J. W. Ochterski, 
 R. L. Martin, K. Morokuma, V. G. Zakrzewski, G. A. Voth, 
 P. Salvador, J. J. Dannenberg, S. Dapprich, A. D. Daniels, 
 O. Farkas, J. B. Foresman, J. V. Ortiz, J. Cioslowski, 
 and D. J. Fox, Gaussian, Inc., Wallingford CT, 2013.
 
 ******************************************
 Gaussian 09:  AM64L-G09RevD.01 24-Apr-2013
                27-Jul-2019 
 ******************************************
 %Mem=32000MB
 %NProcShared=16
 Will use up to   16 processors via shared memory.
 %Chk=m1_00_119123-35-2-C32H18_wB97XD
 ----------------------------------------------------------------------
 #P wB97XD/def2tzvp opt=(tight) freq integral(Grid=ultrafine) # SCF(Max
 Cycle=380) 5d 7f GFPrint
 ----------------------------------------------------------------------
 1/7=10,14=-1,18=20,19=15,26=4,38=1/1,3;
 2/9=110,12=2,17=6,18=5,40=1/2;
 3/5=44,7=101,8=11,11=2,16=1,24=100,25=1,30=1,71=1,74=-58,75=-5/1,2,3;
 4//1;
 5/5=2,7=380,38=5/2;
 6/7=2,8=2,9=2,10=2,28=1/1;
 7//1,2,3,16;
 1/7=10,14=-1,18=20,19=15,26=4/3(2);
 2/9=110/2;
 99//99;
 2/9=110/2;
 3/5=44,7=101,8=11,11=2,16=1,25=1,30=1,71=1,74=-58,75=-5/1,2,3;
 4/5=5,16=3,69=1/1;
 5/5=2,7=380,38=5/2;
 7//1,2,3,16;
 1/7=10,14=-1,18=20,19=15,26=4/3(-5);
 2/9=110/2;
 6/7=2,8=2,9=2,10=2,19=2,28=1/1;
 99/9=1/99;
 Leave Link    1 at Sat Jul 27 10:15:43 2019, MaxMem=  4194304000 cpu:         1.5
 (Enter /home/minenky/programs//g09/l101.exe)
 ---------------------------------------
 The PBEPBE optimization and frequencies
 ---------------------------------------
 Symbolic Z-matrix:
 Charge =  0 Multiplicity = 1
 C                     2.71868   1.41869   0. 
 C                     1.5051   -1.11801   0. 
 C                    -0.50228  -2.50008   0. 
 C                     0.84561  -2.39903   0. 
 C                    -1.33486  -1.32431   0. 
 C                    -2.71867  -1.41863   0. 
 C                     0.71618   0.04596   0. 
 C                     1.33487   1.32438   0. 
 C                     0.50229   2.50015   0. 
 C                    -0.84562   2.39912   0. 
 C                    -1.50513   1.11808   0. 
 C                    -0.71618  -0.04588   0. 
 C                    -3.52146  -0.26603   0. 
 C                    -2.91874   1.009     0. 
 C                    -3.75399   2.17885   0. 
 C                    -5.10361   2.08208   0. 
 C                     3.52146   0.26607   0. 
 C                     2.91871  -1.00894   0. 
 C                     3.75389  -2.17884   0. 
 C                     5.10354  -2.08213   0. 
 C                    -4.967    -0.37093   0. 
 C                    -5.74728   0.79812   0. 
 C                    -7.1549    0.70059   0. 
 C                    -7.76568  -0.5332    0. 
 C                    -6.98987  -1.70358   0. 
 C                    -5.61568  -1.6242    0. 
 C                     4.96701   0.3709    0. 
 C                     5.74726  -0.79818   0. 
 C                     7.1549   -0.7007    0. 
 C                     7.76572   0.53307   0. 
 C                     6.98995   1.70349   0. 
 C                     5.61575   1.62416   0. 
 H                     3.20891   2.40568   0. 
 H                    -0.99454  -3.47939   0. 
 H                     1.48264  -3.2968    0. 
 H                    -3.20889  -2.40564   0. 
 H                     0.99456   3.47946   0. 
 H                    -1.48264   3.29689   0. 
 H                    -3.25537   3.16029   0. 
 H                    -5.73381   2.97887   0. 
 H                     3.25521  -3.16025   0. 
 H                     5.7337   -2.97895   0. 
 H                    -7.7544    1.61805   0. 
 H                    -8.85784  -0.60992   0. 
 H                    -7.48583  -2.67967   0. 
 H                    -4.99802  -2.5353    0. 
 H                     7.75435  -1.61818   0. 
 H                     8.85788   0.60977   0. 
 H                     7.48596   2.67955   0. 
 H                     4.99813   2.53528   0. 
 
 NAtoms=     50 NQM=       50 NQMF=       0 NMMI=      0 NMMIF=      0
                NMic=       0 NMicF=      0.
                    Isotopes and Nuclear Properties:
 (Nuclear quadrupole moments (NQMom) in fm**2, nuclear magnetic moments (NMagM)
  in nuclear magnetons)

  Atom         1           2           3           4           5           6           7           8           9          10
 IAtWgt=          12          12          12          12          12          12          12          12          12          12
 AtmWgt=  12.0000000  12.0000000  12.0000000  12.0000000  12.0000000  12.0000000  12.0000000  12.0000000  12.0000000  12.0000000
 NucSpn=           0           0           0           0           0           0           0           0           0           0
 AtZEff=   0.0000000   0.0000000   0.0000000   0.0000000   0.0000000   0.0000000   0.0000000   0.0000000   0.0000000   0.0000000
 NQMom=    0.0000000   0.0000000   0.0000000   0.0000000   0.0000000   0.0000000   0.0000000   0.0000000   0.0000000   0.0000000
 NMagM=    0.0000000   0.0000000   0.0000000   0.0000000   0.0000000   0.0000000   0.0000000   0.0000000   0.0000000   0.0000000
 AtZNuc=   6.0000000   6.0000000   6.0000000   6.0000000   6.0000000   6.0000000   6.0000000   6.0000000   6.0000000   6.0000000

  Atom        11          12          13          14          15          16          17          18          19          20
 IAtWgt=          12          12          12          12          12          12          12          12          12          12
 AtmWgt=  12.0000000  12.0000000  12.0000000  12.0000000  12.0000000  12.0000000  12.0000000  12.0000000  12.0000000  12.0000000
 NucSpn=           0           0           0           0           0           0           0           0           0           0
 AtZEff=   0.0000000   0.0000000   0.0000000   0.0000000   0.0000000   0.0000000   0.0000000   0.0000000   0.0000000   0.0000000
 NQMom=    0.0000000   0.0000000   0.0000000   0.0000000   0.0000000   0.0000000   0.0000000   0.0000000   0.0000000   0.0000000
 NMagM=    0.0000000   0.0000000   0.0000000   0.0000000   0.0000000   0.0000000   0.0000000   0.0000000   0.0000000   0.0000000
 AtZNuc=   6.0000000   6.0000000   6.0000000   6.0000000   6.0000000   6.0000000   6.0000000   6.0000000   6.0000000   6.0000000

  Atom        21          22          23          24          25          26          27          28          29          30
 IAtWgt=          12          12          12          12          12          12          12          12          12          12
 AtmWgt=  12.0000000  12.0000000  12.0000000  12.0000000  12.0000000  12.0000000  12.0000000  12.0000000  12.0000000  12.0000000
 NucSpn=           0           0           0           0           0           0           0           0           0           0
 AtZEff=   0.0000000   0.0000000   0.0000000   0.0000000   0.0000000   0.0000000   0.0000000   0.0000000   0.0000000   0.0000000
 NQMom=    0.0000000   0.0000000   0.0000000   0.0000000   0.0000000   0.0000000   0.0000000   0.0000000   0.0000000   0.0000000
 NMagM=    0.0000000   0.0000000   0.0000000   0.0000000   0.0000000   0.0000000   0.0000000   0.0000000   0.0000000   0.0000000
 AtZNuc=   6.0000000   6.0000000   6.0000000   6.0000000   6.0000000   6.0000000   6.0000000   6.0000000   6.0000000   6.0000000

  Atom        31          32          33          34          35          36          37          38          39          40
 IAtWgt=          12          12           1           1           1           1           1           1           1           1
 AtmWgt=  12.0000000  12.0000000   1.0078250   1.0078250   1.0078250   1.0078250   1.0078250   1.0078250   1.0078250   1.0078250
 NucSpn=           0           0           1           1           1           1           1           1           1           1
 AtZEff=   0.0000000   0.0000000   0.0000000   0.0000000   0.0000000   0.0000000   0.0000000   0.0000000   0.0000000   0.0000000
 NQMom=    0.0000000   0.0000000   0.0000000   0.0000000   0.0000000   0.0000000   0.0000000   0.0000000   0.0000000   0.0000000
 NMagM=    0.0000000   0.0000000   2.7928460   2.7928460   2.7928460   2.7928460   2.7928460   2.7928460   2.7928460   2.7928460
 AtZNuc=   6.0000000   6.0000000   1.0000000   1.0000000   1.0000000   1.0000000   1.0000000   1.0000000   1.0000000   1.0000000

  Atom        41          42          43          44          45          46          47          48          49          50
 IAtWgt=           1           1           1           1           1           1           1           1           1           1
 AtmWgt=   1.0078250   1.0078250   1.0078250   1.0078250   1.0078250   1.0078250   1.0078250   1.0078250   1.0078250   1.0078250
 NucSpn=           1           1           1           1           1           1           1           1           1           1
 AtZEff=   0.0000000   0.0000000   0.0000000   0.0000000   0.0000000   0.0000000   0.0000000   0.0000000   0.0000000   0.0000000
 NQMom=    0.0000000   0.0000000   0.0000000   0.0000000   0.0000000   0.0000000   0.0000000   0.0000000   0.0000000   0.0000000
 NMagM=    2.7928460   2.7928460   2.7928460   2.7928460   2.7928460   2.7928460   2.7928460   2.7928460   2.7928460   2.7928460
 AtZNuc=   1.0000000   1.0000000   1.0000000   1.0000000   1.0000000   1.0000000   1.0000000   1.0000000   1.0000000   1.0000000
 Leave Link  101 at Sat Jul 27 10:15:44 2019, MaxMem=  4194304000 cpu:         6.2
 (Enter /home/minenky/programs//g09/l103.exe)

 GradGradGradGradGradGradGradGradGradGradGradGradGradGradGradGradGradGrad
 Berny optimization.
 Initialization pass.
                           ----------------------------
                           !    Initial Parameters    !
                           ! (Angstroms and Degrees)  !
 --------------------------                            --------------------------
 ! Name  Definition              Value          Derivative Info.                !
 --------------------------------------------------------------------------------
 ! R1    R(1,8)                  1.387          estimate D2E/DX2                !
 ! R2    R(1,17)                 1.4046         estimate D2E/DX2                !
 ! R3    R(1,33)                 1.102          estimate D2E/DX2                !
 ! R4    R(2,4)                  1.4408         estimate D2E/DX2                !
 ! R5    R(2,7)                  1.4061         estimate D2E/DX2                !
 ! R6    R(2,18)                 1.4178         estimate D2E/DX2                !
 ! R7    R(3,4)                  1.3517         estimate D2E/DX2                !
 ! R8    R(3,5)                  1.4407         estimate D2E/DX2                !
 ! R9    R(3,34)                 1.0961         estimate D2E/DX2                !
 ! R10   R(4,35)                 1.1008         estimate D2E/DX2                !
 ! R11   R(5,6)                  1.387          estimate D2E/DX2                !
 ! R12   R(5,12)                 1.4203         estimate D2E/DX2                !
 ! R13   R(6,13)                 1.4046         estimate D2E/DX2                !
 ! R14   R(6,36)                 1.102          estimate D2E/DX2                !
 ! R15   R(7,8)                  1.4203         estimate D2E/DX2                !
 ! R16   R(7,12)                 1.4353         estimate D2E/DX2                !
 ! R17   R(8,9)                  1.4407         estimate D2E/DX2                !
 ! R18   R(9,10)                 1.3517         estimate D2E/DX2                !
 ! R19   R(9,37)                 1.0961         estimate D2E/DX2                !
 ! R20   R(10,11)                1.4408         estimate D2E/DX2                !
 ! R21   R(10,38)                1.1008         estimate D2E/DX2                !
 ! R22   R(11,12)                1.4061         estimate D2E/DX2                !
 ! R23   R(11,14)                1.4178         estimate D2E/DX2                !
 ! R24   R(13,14)                1.4103         estimate D2E/DX2                !
 ! R25   R(13,21)                1.4493         estimate D2E/DX2                !
 ! R26   R(14,15)                1.4374         estimate D2E/DX2                !
 ! R27   R(15,16)                1.3531         estimate D2E/DX2                !
 ! R28   R(15,39)                1.1008         estimate D2E/DX2                !
 ! R29   R(16,22)                1.4363         estimate D2E/DX2                !
 ! R30   R(16,40)                1.0961         estimate D2E/DX2                !
 ! R31   R(17,18)                1.4103         estimate D2E/DX2                !
 ! R32   R(17,27)                1.4493         estimate D2E/DX2                !
 ! R33   R(18,19)                1.4374         estimate D2E/DX2                !
 ! R34   R(19,20)                1.3531         estimate D2E/DX2                !
 ! R35   R(19,41)                1.1008         estimate D2E/DX2                !
 ! R36   R(20,28)                1.4363         estimate D2E/DX2                !
 ! R37   R(20,42)                1.0961         estimate D2E/DX2                !
 ! R38   R(21,22)                1.4055         estimate D2E/DX2                !
 ! R39   R(21,26)                1.4112         estimate D2E/DX2                !
 ! R40   R(22,23)                1.411          estimate D2E/DX2                !
 ! R41   R(23,24)                1.3767         estimate D2E/DX2                !
 ! R42   R(23,43)                1.096          estimate D2E/DX2                !
 ! R43   R(24,25)                1.4042         estimate D2E/DX2                !
 ! R44   R(24,44)                1.0948         estimate D2E/DX2                !
 ! R45   R(25,26)                1.3765         estimate D2E/DX2                !
 ! R46   R(25,45)                1.0949         estimate D2E/DX2                !
 ! R47   R(26,46)                1.1007         estimate D2E/DX2                !
 ! R48   R(27,28)                1.4055         estimate D2E/DX2                !
 ! R49   R(27,32)                1.4112         estimate D2E/DX2                !
 ! R50   R(28,29)                1.411          estimate D2E/DX2                !
 ! R51   R(29,30)                1.3767         estimate D2E/DX2                !
 ! R52   R(29,47)                1.096          estimate D2E/DX2                !
 ! R53   R(30,31)                1.4042         estimate D2E/DX2                !
 ! R54   R(30,48)                1.0948         estimate D2E/DX2                !
 ! R55   R(31,32)                1.3765         estimate D2E/DX2                !
 ! R56   R(31,49)                1.0949         estimate D2E/DX2                !
 ! R57   R(32,50)                1.1007         estimate D2E/DX2                !
 ! A1    A(8,1,17)             120.9576         estimate D2E/DX2                !
 ! A2    A(8,1,33)             120.3118         estimate D2E/DX2                !
 ! A3    A(17,1,33)            118.7305         estimate D2E/DX2                !
 ! A4    A(4,2,7)              118.6312         estimate D2E/DX2                !
 ! A5    A(4,2,18)             121.6519         estimate D2E/DX2                !
 ! A6    A(7,2,18)             119.7168         estimate D2E/DX2                !
 ! A7    A(4,3,5)              121.0156         estimate D2E/DX2                !
 ! A8    A(4,3,34)             120.974          estimate D2E/DX2                !
 ! A9    A(5,3,34)             118.0103         estimate D2E/DX2                !
 ! A10   A(2,4,3)              121.5271         estimate D2E/DX2                !
 ! A11   A(2,4,35)             117.4014         estimate D2E/DX2                !
 ! A12   A(3,4,35)             121.0715         estimate D2E/DX2                !
 ! A13   A(3,5,6)              121.4032         estimate D2E/DX2                !
 ! A14   A(3,5,12)             118.8731         estimate D2E/DX2                !
 ! A15   A(6,5,12)             119.7236         estimate D2E/DX2                !
 ! A16   A(5,6,13)             120.9578         estimate D2E/DX2                !
 ! A17   A(5,6,36)             120.312          estimate D2E/DX2                !
 ! A18   A(13,6,36)            118.7303         estimate D2E/DX2                !
 ! A19   A(2,7,8)              120.0465         estimate D2E/DX2                !
 ! A20   A(2,7,12)             120.4602         estimate D2E/DX2                !
 ! A21   A(8,7,12)             119.4933         estimate D2E/DX2                !
 ! A22   A(1,8,7)              119.7235         estimate D2E/DX2                !
 ! A23   A(1,8,9)              121.4039         estimate D2E/DX2                !
 ! A24   A(7,8,9)              118.8726         estimate D2E/DX2                !
 ! A25   A(8,9,10)             121.0159         estimate D2E/DX2                !
 ! A26   A(8,9,37)             118.0101         estimate D2E/DX2                !
 ! A27   A(10,9,37)            120.974          estimate D2E/DX2                !
 ! A28   A(9,10,11)            121.5272         estimate D2E/DX2                !
 ! A29   A(9,10,38)            121.071          estimate D2E/DX2                !
 ! A30   A(11,10,38)           117.4018         estimate D2E/DX2                !
 ! A31   A(10,11,12)           118.6296         estimate D2E/DX2                !
 ! A32   A(10,11,14)           121.6529         estimate D2E/DX2                !
 ! A33   A(12,11,14)           119.7175         estimate D2E/DX2                !
 ! A34   A(5,12,7)             119.4926         estimate D2E/DX2                !
 ! A35   A(5,12,11)            120.046          estimate D2E/DX2                !
 ! A36   A(7,12,11)            120.4614         estimate D2E/DX2                !
 ! A37   A(6,13,14)            119.8422         estimate D2E/DX2                !
 ! A38   A(6,13,21)            120.7069         estimate D2E/DX2                !
 ! A39   A(14,13,21)           119.4509         estimate D2E/DX2                !
 ! A40   A(11,14,13)           119.713          estimate D2E/DX2                !
 ! A41   A(11,14,15)           121.1134         estimate D2E/DX2                !
 ! A42   A(13,14,15)           119.1736         estimate D2E/DX2                !
 ! A43   A(14,15,16)           121.4248         estimate D2E/DX2                !
 ! A44   A(14,15,39)           117.5408         estimate D2E/DX2                !
 ! A45   A(16,15,39)           121.0345         estimate D2E/DX2                !
 ! A46   A(15,16,22)           120.7267         estimate D2E/DX2                !
 ! A47   A(15,16,40)           120.9955         estimate D2E/DX2                !
 ! A48   A(22,16,40)           118.2778         estimate D2E/DX2                !
 ! A49   A(1,17,18)            119.8414         estimate D2E/DX2                !
 ! A50   A(1,17,27)            120.7083         estimate D2E/DX2                !
 ! A51   A(18,17,27)           119.4503         estimate D2E/DX2                !
 ! A52   A(2,18,17)            119.7141         estimate D2E/DX2                !
 ! A53   A(2,18,19)            121.1108         estimate D2E/DX2                !
 ! A54   A(17,18,19)           119.1751         estimate D2E/DX2                !
 ! A55   A(18,19,20)           121.4241         estimate D2E/DX2                !
 ! A56   A(18,19,41)           117.5405         estimate D2E/DX2                !
 ! A57   A(20,19,41)           121.0354         estimate D2E/DX2                !
 ! A58   A(19,20,28)           120.7262         estimate D2E/DX2                !
 ! A59   A(19,20,42)           120.9953         estimate D2E/DX2                !
 ! A60   A(28,20,42)           118.2785         estimate D2E/DX2                !
 ! A61   A(13,21,22)           119.5707         estimate D2E/DX2                !
 ! A62   A(13,21,26)           121.516          estimate D2E/DX2                !
 ! A63   A(22,21,26)           118.9133         estimate D2E/DX2                !
 ! A64   A(16,22,21)           119.6533         estimate D2E/DX2                !
 ! A65   A(16,22,23)           120.589          estimate D2E/DX2                !
 ! A66   A(21,22,23)           119.7576         estimate D2E/DX2                !
 ! A67   A(22,23,24)           120.3009         estimate D2E/DX2                !
 ! A68   A(22,23,43)           119.1985         estimate D2E/DX2                !
 ! A69   A(24,23,43)           120.5005         estimate D2E/DX2                !
 ! A70   A(23,24,25)           120.1233         estimate D2E/DX2                !
 ! A71   A(23,24,44)           120.3559         estimate D2E/DX2                !
 ! A72   A(25,24,44)           119.5207         estimate D2E/DX2                !
 ! A73   A(24,25,26)           120.2334         estimate D2E/DX2                !
 ! A74   A(24,25,45)           119.5249         estimate D2E/DX2                !
 ! A75   A(26,25,45)           120.2417         estimate D2E/DX2                !
 ! A76   A(21,26,25)           120.6714         estimate D2E/DX2                !
 ! A77   A(21,26,46)           118.5            estimate D2E/DX2                !
 ! A78   A(25,26,46)           120.8285         estimate D2E/DX2                !
 ! A79   A(17,27,28)           119.571          estimate D2E/DX2                !
 ! A80   A(17,27,32)           121.5161         estimate D2E/DX2                !
 ! A81   A(28,27,32)           118.9129         estimate D2E/DX2                !
 ! A82   A(20,28,27)           119.6534         estimate D2E/DX2                !
 ! A83   A(20,28,29)           120.5891         estimate D2E/DX2                !
 ! A84   A(27,28,29)           119.7576         estimate D2E/DX2                !
 ! A85   A(28,29,30)           120.301          estimate D2E/DX2                !
 ! A86   A(28,29,47)           119.1978         estimate D2E/DX2                !
 ! A87   A(30,29,47)           120.5012         estimate D2E/DX2                !
 ! A88   A(29,30,31)           120.1233         estimate D2E/DX2                !
 ! A89   A(29,30,48)           120.3567         estimate D2E/DX2                !
 ! A90   A(31,30,48)           119.52           estimate D2E/DX2                !
 ! A91   A(30,31,32)           120.2335         estimate D2E/DX2                !
 ! A92   A(30,31,49)           119.5241         estimate D2E/DX2                !
 ! A93   A(32,31,49)           120.2424         estimate D2E/DX2                !
 ! A94   A(27,32,31)           120.6716         estimate D2E/DX2                !
 ! A95   A(27,32,50)           118.4999         estimate D2E/DX2                !
 ! A96   A(31,32,50)           120.8286         estimate D2E/DX2                !
 ! D1    D(17,1,8,7)             0.0            estimate D2E/DX2                !
 ! D2    D(17,1,8,9)           180.0            estimate D2E/DX2                !
 ! D3    D(33,1,8,7)           180.0            estimate D2E/DX2                !
 ! D4    D(33,1,8,9)             0.0            estimate D2E/DX2                !
 ! D5    D(8,1,17,18)            0.0            estimate D2E/DX2                !
 ! D6    D(8,1,17,27)          180.0            estimate D2E/DX2                !
 ! D7    D(33,1,17,18)         180.0            estimate D2E/DX2                !
 ! D8    D(33,1,17,27)           0.0            estimate D2E/DX2                !
 ! D9    D(7,2,4,3)              0.0            estimate D2E/DX2                !
 ! D10   D(7,2,4,35)           180.0            estimate D2E/DX2                !
 ! D11   D(18,2,4,3)           180.0            estimate D2E/DX2                !
 ! D12   D(18,2,4,35)            0.0            estimate D2E/DX2                !
 ! D13   D(4,2,7,8)            180.0            estimate D2E/DX2                !
 ! D14   D(4,2,7,12)             0.0            estimate D2E/DX2                !
 ! D15   D(18,2,7,8)             0.0            estimate D2E/DX2                !
 ! D16   D(18,2,7,12)          180.0            estimate D2E/DX2                !
 ! D17   D(4,2,18,17)          180.0            estimate D2E/DX2                !
 ! D18   D(4,2,18,19)            0.0            estimate D2E/DX2                !
 ! D19   D(7,2,18,17)            0.0            estimate D2E/DX2                !
 ! D20   D(7,2,18,19)          180.0            estimate D2E/DX2                !
 ! D21   D(5,3,4,2)              0.0            estimate D2E/DX2                !
 ! D22   D(5,3,4,35)           180.0            estimate D2E/DX2                !
 ! D23   D(34,3,4,2)           180.0            estimate D2E/DX2                !
 ! D24   D(34,3,4,35)            0.0            estimate D2E/DX2                !
 ! D25   D(4,3,5,6)            180.0            estimate D2E/DX2                !
 ! D26   D(4,3,5,12)             0.0            estimate D2E/DX2                !
 ! D27   D(34,3,5,6)             0.0            estimate D2E/DX2                !
 ! D28   D(34,3,5,12)          180.0            estimate D2E/DX2                !
 ! D29   D(3,5,6,13)           180.0            estimate D2E/DX2                !
 ! D30   D(3,5,6,36)             0.0            estimate D2E/DX2                !
 ! D31   D(12,5,6,13)            0.0            estimate D2E/DX2                !
 ! D32   D(12,5,6,36)          180.0            estimate D2E/DX2                !
 ! D33   D(3,5,12,7)             0.0            estimate D2E/DX2                !
 ! D34   D(3,5,12,11)          180.0            estimate D2E/DX2                !
 ! D35   D(6,5,12,7)           180.0            estimate D2E/DX2                !
 ! D36   D(6,5,12,11)            0.0            estimate D2E/DX2                !
 ! D37   D(5,6,13,14)            0.0            estimate D2E/DX2                !
 ! D38   D(5,6,13,21)          180.0            estimate D2E/DX2                !
 ! D39   D(36,6,13,14)         180.0            estimate D2E/DX2                !
 ! D40   D(36,6,13,21)           0.0            estimate D2E/DX2                !
 ! D41   D(2,7,8,1)              0.0            estimate D2E/DX2                !
 ! D42   D(2,7,8,9)            180.0            estimate D2E/DX2                !
 ! D43   D(12,7,8,1)           180.0            estimate D2E/DX2                !
 ! D44   D(12,7,8,9)             0.0            estimate D2E/DX2                !
 ! D45   D(2,7,12,5)             0.0            estimate D2E/DX2                !
 ! D46   D(2,7,12,11)          180.0            estimate D2E/DX2                !
 ! D47   D(8,7,12,5)           180.0            estimate D2E/DX2                !
 ! D48   D(8,7,12,11)            0.0            estimate D2E/DX2                !
 ! D49   D(1,8,9,10)           180.0            estimate D2E/DX2                !
 ! D50   D(1,8,9,37)             0.0            estimate D2E/DX2                !
 ! D51   D(7,8,9,10)             0.0            estimate D2E/DX2                !
 ! D52   D(7,8,9,37)           180.0            estimate D2E/DX2                !
 ! D53   D(8,9,10,11)            0.0            estimate D2E/DX2                !
 ! D54   D(8,9,10,38)          180.0            estimate D2E/DX2                !
 ! D55   D(37,9,10,11)         180.0            estimate D2E/DX2                !
 ! D56   D(37,9,10,38)           0.0            estimate D2E/DX2                !
 ! D57   D(9,10,11,12)           0.0            estimate D2E/DX2                !
 ! D58   D(9,10,11,14)         180.0            estimate D2E/DX2                !
 ! D59   D(38,10,11,12)        180.0            estimate D2E/DX2                !
 ! D60   D(38,10,11,14)          0.0            estimate D2E/DX2                !
 ! D61   D(10,11,12,5)         180.0            estimate D2E/DX2                !
 ! D62   D(10,11,12,7)           0.0            estimate D2E/DX2                !
 ! D63   D(14,11,12,5)           0.0            estimate D2E/DX2                !
 ! D64   D(14,11,12,7)         180.0            estimate D2E/DX2                !
 ! D65   D(10,11,14,13)        180.0            estimate D2E/DX2                !
 ! D66   D(10,11,14,15)          0.0            estimate D2E/DX2                !
 ! D67   D(12,11,14,13)          0.0            estimate D2E/DX2                !
 ! D68   D(12,11,14,15)        180.0            estimate D2E/DX2                !
 ! D69   D(6,13,14,11)           0.0            estimate D2E/DX2                !
 ! D70   D(6,13,14,15)         180.0            estimate D2E/DX2                !
 ! D71   D(21,13,14,11)        180.0            estimate D2E/DX2                !
 ! D72   D(21,13,14,15)          0.0            estimate D2E/DX2                !
 ! D73   D(6,13,21,22)         180.0            estimate D2E/DX2                !
 ! D74   D(6,13,21,26)           0.0            estimate D2E/DX2                !
 ! D75   D(14,13,21,22)          0.0            estimate D2E/DX2                !
 ! D76   D(14,13,21,26)        180.0            estimate D2E/DX2                !
 ! D77   D(11,14,15,16)        180.0            estimate D2E/DX2                !
 ! D78   D(11,14,15,39)          0.0            estimate D2E/DX2                !
 ! D79   D(13,14,15,16)          0.0            estimate D2E/DX2                !
 ! D80   D(13,14,15,39)        180.0            estimate D2E/DX2                !
 ! D81   D(14,15,16,22)          0.0            estimate D2E/DX2                !
 ! D82   D(14,15,16,40)        180.0            estimate D2E/DX2                !
 ! D83   D(39,15,16,22)        180.0            estimate D2E/DX2                !
 ! D84   D(39,15,16,40)          0.0            estimate D2E/DX2                !
 ! D85   D(15,16,22,21)          0.0            estimate D2E/DX2                !
 ! D86   D(15,16,22,23)        180.0            estimate D2E/DX2                !
 ! D87   D(40,16,22,21)        180.0            estimate D2E/DX2                !
 ! D88   D(40,16,22,23)          0.0            estimate D2E/DX2                !
 ! D89   D(1,17,18,2)            0.0            estimate D2E/DX2                !
 ! D90   D(1,17,18,19)         180.0            estimate D2E/DX2                !
 ! D91   D(27,17,18,2)         180.0            estimate D2E/DX2                !
 ! D92   D(27,17,18,19)          0.0            estimate D2E/DX2                !
 ! D93   D(1,17,27,28)         180.0            estimate D2E/DX2                !
 ! D94   D(1,17,27,32)           0.0            estimate D2E/DX2                !
 ! D95   D(18,17,27,28)          0.0            estimate D2E/DX2                !
 ! D96   D(18,17,27,32)        180.0            estimate D2E/DX2                !
 ! D97   D(2,18,19,20)         180.0            estimate D2E/DX2                !
 ! D98   D(2,18,19,41)           0.0            estimate D2E/DX2                !
 ! D99   D(17,18,19,20)          0.0            estimate D2E/DX2                !
 ! D100  D(17,18,19,41)        180.0            estimate D2E/DX2                !
 ! D101  D(18,19,20,28)          0.0            estimate D2E/DX2                !
 ! D102  D(18,19,20,42)        180.0            estimate D2E/DX2                !
 ! D103  D(41,19,20,28)        180.0            estimate D2E/DX2                !
 ! D104  D(41,19,20,42)          0.0            estimate D2E/DX2                !
 ! D105  D(19,20,28,27)          0.0            estimate D2E/DX2                !
 ! D106  D(19,20,28,29)        180.0            estimate D2E/DX2                !
 ! D107  D(42,20,28,27)        180.0            estimate D2E/DX2                !
 ! D108  D(42,20,28,29)          0.0            estimate D2E/DX2                !
 ! D109  D(13,21,22,16)          0.0            estimate D2E/DX2                !
 ! D110  D(13,21,22,23)        180.0            estimate D2E/DX2                !
 ! D111  D(26,21,22,16)        180.0            estimate D2E/DX2                !
 ! D112  D(26,21,22,23)          0.0            estimate D2E/DX2                !
 ! D113  D(13,21,26,25)        180.0            estimate D2E/DX2                !
 ! D114  D(13,21,26,46)          0.0            estimate D2E/DX2                !
 ! D115  D(22,21,26,25)          0.0            estimate D2E/DX2                !
 ! D116  D(22,21,26,46)        180.0            estimate D2E/DX2                !
 ! D117  D(16,22,23,24)        180.0            estimate D2E/DX2                !
 ! D118  D(16,22,23,43)          0.0            estimate D2E/DX2                !
 ! D119  D(21,22,23,24)          0.0            estimate D2E/DX2                !
 ! D120  D(21,22,23,43)        180.0            estimate D2E/DX2                !
 ! D121  D(22,23,24,25)          0.0            estimate D2E/DX2                !
 ! D122  D(22,23,24,44)        180.0            estimate D2E/DX2                !
 ! D123  D(43,23,24,25)        180.0            estimate D2E/DX2                !
 ! D124  D(43,23,24,44)          0.0            estimate D2E/DX2                !
 ! D125  D(23,24,25,26)          0.0            estimate D2E/DX2                !
 ! D126  D(23,24,25,45)        180.0            estimate D2E/DX2                !
 ! D127  D(44,24,25,26)        180.0            estimate D2E/DX2                !
 ! D128  D(44,24,25,45)          0.0            estimate D2E/DX2                !
 ! D129  D(24,25,26,21)          0.0            estimate D2E/DX2                !
 ! D130  D(24,25,26,46)        180.0            estimate D2E/DX2                !
 ! D131  D(45,25,26,21)        180.0            estimate D2E/DX2                !
 ! D132  D(45,25,26,46)          0.0            estimate D2E/DX2                !
 ! D133  D(17,27,28,20)          0.0            estimate D2E/DX2                !
 ! D134  D(17,27,28,29)        180.0            estimate D2E/DX2                !
 ! D135  D(32,27,28,20)        180.0            estimate D2E/DX2                !
 ! D136  D(32,27,28,29)          0.0            estimate D2E/DX2                !
 ! D137  D(17,27,32,31)        180.0            estimate D2E/DX2                !
 ! D138  D(17,27,32,50)          0.0            estimate D2E/DX2                !
 ! D139  D(28,27,32,31)          0.0            estimate D2E/DX2                !
 ! D140  D(28,27,32,50)        180.0            estimate D2E/DX2                !
 ! D141  D(20,28,29,30)        180.0            estimate D2E/DX2                !
 ! D142  D(20,28,29,47)          0.0            estimate D2E/DX2                !
 ! D143  D(27,28,29,30)          0.0            estimate D2E/DX2                !
 ! D144  D(27,28,29,47)        180.0            estimate D2E/DX2                !
 ! D145  D(28,29,30,31)          0.0            estimate D2E/DX2                !
 ! D146  D(28,29,30,48)        180.0            estimate D2E/DX2                !
 ! D147  D(47,29,30,31)        180.0            estimate D2E/DX2                !
 ! D148  D(47,29,30,48)          0.0            estimate D2E/DX2                !
 ! D149  D(29,30,31,32)          0.0            estimate D2E/DX2                !
 ! D150  D(29,30,31,49)        180.0            estimate D2E/DX2                !
 ! D151  D(48,30,31,32)        180.0            estimate D2E/DX2                !
 ! D152  D(48,30,31,49)          0.0            estimate D2E/DX2                !
 ! D153  D(30,31,32,27)          0.0            estimate D2E/DX2                !
 ! D154  D(30,31,32,50)        180.0            estimate D2E/DX2                !
 ! D155  D(49,31,32,27)        180.0            estimate D2E/DX2                !
 ! D156  D(49,31,32,50)          0.0            estimate D2E/DX2                !
 --------------------------------------------------------------------------------
 Trust Radius=3.00D-01 FncErr=1.00D-07 GrdErr=1.00D-06
 Number of steps in this run=    300 maximum allowed number of steps=    300.
 GradGradGradGradGradGradGradGradGradGradGradGradGradGradGradGradGradGrad

 Leave Link  103 at Sat Jul 27 10:15:44 2019, MaxMem=  4194304000 cpu:         0.3
 (Enter /home/minenky/programs//g09/l202.exe)
                          Input orientation:                          
 ---------------------------------------------------------------------
 Center     Atomic      Atomic             Coordinates (Angstroms)
 Number     Number       Type             X           Y           Z
 ---------------------------------------------------------------------
      1          6           0        2.718684    1.418687    0.000000
      2          6           0        1.505097   -1.118012    0.000000
      3          6           0       -0.502276   -2.500079    0.000000
      4          6           0        0.845611   -2.399034    0.000000
      5          6           0       -1.334856   -1.324307    0.000000
      6          6           0       -2.718668   -1.418635    0.000000
      7          6           0        0.716179    0.045956    0.000000
      8          6           0        1.334872    1.324377    0.000000
      9          6           0        0.502292    2.500155    0.000000
     10          6           0       -0.845622    2.399118    0.000000
     11          6           0       -1.505128    1.118080    0.000000
     12          6           0       -0.716179   -0.045881    0.000000
     13          6           0       -3.521460   -0.266032    0.000000
     14          6           0       -2.918744    1.008997    0.000000
     15          6           0       -3.753992    2.178852    0.000000
     16          6           0       -5.103607    2.082082    0.000000
     17          6           0        3.521462    0.266065    0.000000
     18          6           0        2.918710   -1.008943    0.000000
     19          6           0        3.753892   -2.178840    0.000000
     20          6           0        5.103538   -2.082127    0.000000
     21          6           0       -4.966997   -0.370929    0.000000
     22          6           0       -5.747281    0.798122    0.000000
     23          6           0       -7.154902    0.700591    0.000000
     24          6           0       -7.765680   -0.533198    0.000000
     25          6           0       -6.989866   -1.703578    0.000000
     26          6           0       -5.615676   -1.624201    0.000000
     27          6           0        4.967014    0.370904    0.000000
     28          6           0        5.747261   -0.798182    0.000000
     29          6           0        7.154899   -0.700700    0.000000
     30          6           0        7.765722    0.533067    0.000000
     31          6           0        6.989947    1.703485    0.000000
     32          6           0        5.615751    1.624162    0.000000
     33          1           0        3.208913    2.405683    0.000000
     34          1           0       -0.994536   -3.479390    0.000000
     35          1           0        1.482642   -3.296795    0.000000
     36          1           0       -3.208886   -2.405637    0.000000
     37          1           0        0.994560    3.479464    0.000000
     38          1           0       -1.482639    3.296888    0.000000
     39          1           0       -3.255366    3.160285    0.000000
     40          1           0       -5.733806    2.978874    0.000000
     41          1           0        3.255205   -3.160246    0.000000
     42          1           0        5.733696   -2.978951    0.000000
     43          1           0       -7.754401    1.618046    0.000000
     44          1           0       -8.857836   -0.609924    0.000000
     45          1           0       -7.485834   -2.679671    0.000000
     46          1           0       -4.998018   -2.535297    0.000000
     47          1           0        7.754354   -1.618184    0.000000
     48          1           0        8.857881    0.609768    0.000000
     49          1           0        7.485965    2.679553    0.000000
     50          1           0        4.998129    2.535282    0.000000
 ---------------------------------------------------------------------
                    Distance matrix (angstroms):
                    1          2          3          4          5
     1  C    0.000000
     2  C    2.812051   0.000000
     3  C    5.072604   2.437141   0.000000
     4  C    4.252458   1.440813   1.351669   0.000000
     5  C    4.894405   2.847436   1.440705   2.430941   0.000000
     6  C    6.133123   4.234451   2.466154   3.696656   1.387024
     7  C    2.427842   1.406134   2.822574   2.448414   2.466650
     8  C    1.387022   2.448313   4.242826   3.755418   3.760714
     9  C    2.466164   3.754563   5.100146   4.911203   4.242831
    10  C    3.696691   4.230376   4.911213   5.087488   3.755428
    11  C    4.234496   3.749875   3.754569   4.230374   2.448315
    12  C    3.734065   2.466481   2.463501   2.824272   1.420258
    13  C    6.463566   5.098250   3.755854   4.860145   2.429235
    14  C    5.652295   4.908619   4.260626   5.077898   2.820108
    15  C    6.517161   6.207039   5.697899   6.489483   4.257269
    16  C    7.850372   7.342722   6.493724   7.448060   5.080056
    17  C    1.404631   2.445689   4.882830   3.776631   5.110099
    18  C    2.435856   1.417815   3.731841   2.496016   4.265241
    19  C    3.743509   2.486451   4.268274   2.916606   5.159999
    20  C    4.235944   3.725358   5.621373   4.269705   6.482840
    21  C    7.891288   6.515070   4.946415   6.156267   3.755181
    22  C    8.488679   7.501237   6.195822   7.327212   4.896346
    23  C    9.899665   8.848893   7.382528   8.579970   6.162235
    24  C   10.664509   9.289204   7.525002   8.811111   6.479302
    25  C   10.198259   8.515122   6.536302   7.866280   5.667715
    26  C    8.872470   7.138742   5.187872   6.507579   4.291311
    27  C    2.480491   3.768519   6.177028   4.965735   6.525894
    28  C    3.753237   4.254203   6.477126   5.156443   7.101633
    29  C    4.916482   5.665192   7.865754   6.533870   8.512627
    30  C    5.124150   6.474681   8.806803   7.515661   9.288184
    31  C    4.280747   6.168016   8.590888   7.388067   8.858322
    32  C    2.904344   4.941355   7.378320   6.240220   7.550126
    33  H    1.102036   3.914001   6.151375   5.354484   5.878661
    34  H    6.146475   3.438644   1.096070   2.133848   2.181788
    35  H    4.874789   2.178900   2.138844   1.100810   3.439332
    36  H    7.054186   4.886678   2.708257   4.054502   2.163623
    37  H    2.686895   4.625735   6.164045   5.880385   5.338763
    38  H    4.602039   5.330845   5.879280   6.153396   4.623557
    39  H    6.222736   6.400456   6.294381   6.908259   4.878516
    40  H    8.595276   8.317824   7.575476   8.497683   6.153708
    41  H    4.610259   2.689535   3.815034   2.526972   4.943616
    42  H    5.331933   4.619972   6.254331   4.922365   7.259633
    43  H   10.474982   9.655274   8.339800   9.491951   7.061727
    44  H   11.752918  10.375382   8.566684   9.867006   7.556823
    45  H   10.996760   9.125548   6.985866   8.336169   6.298535
    46  H    8.670726   6.655765   4.495880   5.845217   3.858142
    47  H    5.880523   6.269241   8.303594   6.952730   9.093959
    48  H    6.192261   7.553056   9.863250   8.558585  10.374610
    49  H    4.931202   7.084650   9.520535   8.359806   9.686990
    50  H    2.538238   5.054485   7.457165   6.449100   7.416409
                    6          7          8          9         10
     6  C    0.000000
     7  C    3.734060   0.000000
     8  C    4.894416   1.420261   0.000000
     9  C    5.072623   2.463501   1.440709   0.000000
    10  C    4.252474   2.824286   2.430972   1.351696   0.000000
    11  C    2.812046   2.466507   2.847483   2.437184   1.440835
    12  C    2.427842   1.435299   2.466661   2.822582   2.448423
    13  C    1.404624   4.249109   5.110124   4.882865   3.776656
    14  C    2.435863   3.760334   4.265292   3.731895   2.496050
    15  C    3.743502   4.952946   5.160104   4.268395   2.916699
    16  C    4.235912   6.165689   6.482911   5.621467   4.269772
    17  C    6.463548   2.813905   2.429239   3.755868   4.860179
    18  C    5.652246   2.442121   2.820093   4.260615   5.077901
    19  C    6.517051   3.765291   4.257251   5.697885   6.489471
    20  C    7.850295   4.876234   5.080070   6.493748   7.448091
    21  C    2.480458   5.698446   6.525919   6.177074   4.965772
    22  C    3.753200   6.507079   7.101679   6.477198   5.156496
    23  C    4.916430   7.898257   8.512659   7.865815   6.533912
    24  C    5.124092   8.501609   9.288198   8.806849   7.515695
    25  C    4.280692   7.902152   8.858317   8.590914   7.388088
    26  C    2.904291   6.548420   7.550114   7.378336   6.240233
    27  C    7.891271   4.263236   3.755205   4.946458   6.156329
    28  C    8.488635   5.101407   4.896369   6.195863   7.327267
    29  C    9.899634   6.481867   6.162276   7.382590   8.580047
    30  C   10.664502   7.066353   6.479352   7.525081   8.811209
    31  C   10.198277   6.489034   5.667768   6.536386   7.866387
    32  C    8.872494   5.147479   4.291363   5.187950   6.507680
    33  H    7.054192   3.432496   2.163620   2.708268   4.054540
    34  H    2.686883   3.918496   5.338756   6.164044   5.880393
    35  H    4.602010   3.429497   4.623534   5.879261   6.153392
    36  H    1.102037   4.627790   5.878668   6.151393   5.354501
    37  H    6.146498   3.444775   2.181791   1.096072   2.133874
    38  H    4.874826   3.924712   3.439356   2.138864   1.100810
    39  H    4.610266   5.047001   4.943769   3.815203   2.527102
    40  H    5.331899   7.085501   7.259723   6.254446   4.922444
    41  H    6.222570   4.089790   4.878475   6.294336   6.908206
    42  H    8.595176   5.858800   6.153720   7.575498   8.497708
    43  H    5.880479   8.615230   9.094016   8.303680   6.952790
    44  H    6.192204   9.596455  10.374624   9.863296   8.558616
    45  H    4.931133   8.643035   9.686963   9.520544   8.359815
    46  H    2.538182   6.270161   7.416372   7.457157   6.449096
    47  H   10.474923   7.232238   7.061757   8.339851   9.492013
    48  H   11.752911   8.161201   7.556873   8.566763   9.867105
    49  H   10.996803   7.264009   6.298607   6.985976   8.336305
    50  H    8.670780   4.952963   3.858204   4.495974   5.845337
                   11         12         13         14         15
    11  C    0.000000
    12  C    1.406146   0.000000
    13  C    2.445682   2.813907   0.000000
    14  C    1.417818   2.442143   1.410308   0.000000
    15  C    2.486489   3.765335   2.455917   1.437428   0.000000
    16  C    3.725366   4.876244   2.831400   2.434161   1.353080
    17  C    5.098288   4.249107   7.062994   6.482916   7.522699
    18  C    4.908622   3.760307   6.482878   6.176403   7.395066
    19  C    6.207011   4.952883   7.522605   7.395024   8.680888
    20  C    7.342738   6.165663   8.814125   8.597212   9.829129
    21  C    3.768512   4.263228   1.449338   2.469724   2.823608
    22  C    4.254202   5.101405   2.467125   2.836387   2.424792
    23  C    5.665178   6.481850   3.759822   4.247370   3.708293
    24  C    6.474660   7.066325   4.252620   5.086369   4.842401
    25  C    6.167990   6.489000   3.754515   4.892045   5.054121
    26  C    4.941326   5.147442   2.496069   3.769241   4.234274
    27  C    6.515128   5.698454   8.512337   7.911532   8.906437
    28  C    7.501281   6.507074   9.283985   8.852431   9.956734
    29  C    8.848956   7.898268  10.685204  10.217697  11.282541
    30  C    9.289290   8.501637  11.315434  10.695061  11.636685
    31  C    8.515222   7.902193  10.694329   9.932999  10.754451
    32  C    7.138840   6.548464   9.330673   8.556636   9.386148
    33  H    4.886727   4.627797   7.241269   6.284815   6.966599
    34  H    4.625736   3.444773   4.087910   4.883461   6.295260
    35  H    5.330844   3.924698   5.850347   6.157276   7.576612
    36  H    3.913997   3.432497   2.162316   3.426939   4.616782
    37  H    3.438688   3.918506   5.867127   4.627867   4.923448
    38  H    2.178924   3.429514   4.105020   2.701266   2.531610
    39  H    2.689598   4.089863   3.436634   2.177465   1.100836
    40  H    4.619986   5.858817   3.927326   3.435839   2.135345
    41  H    6.400379   5.046896   7.368831   7.449848   8.811062
    42  H    8.317826   7.085462   9.644576   9.527247  10.799035
    43  H    6.269240   7.232235   4.633307   4.873861   4.039526
    44  H    7.553034   8.161172   5.347445   6.155788   5.816055
    45  H    7.084614   7.263957   4.641326   5.870655   6.126327
    46  H    5.054448   4.952912   2.707358   4.109185   4.875530
    47  H    9.655317   8.615222  11.356597  10.991683  12.118561
    48  H   10.375469   9.596484  12.410283  11.783390  12.709106
    49  H    9.125675   8.643098  11.394730  10.537966  11.251104
    50  H    6.655886   6.270224   8.968320   8.062656   8.759376
                   16         17         18         19         20
    16  C    0.000000
    17  C    8.814178   0.000000
    18  C    8.597210   1.410303   0.000000
    19  C    9.829077   2.455929   1.437424   0.000000
    20  C   11.023904   2.831425   2.434173   1.353106   0.000000
    21  C    2.456811   8.512327   7.911476   8.906316  10.214885
    22  C    1.436269   9.284002   8.852395   9.956636  11.226581
    23  C    2.473121  10.685203  10.217640  11.282416  12.570317
    24  C    3.731798  11.315405  10.694977  11.636524  12.962097
    25  C    4.229562  10.694275   9.932895  10.754265  12.099328
    26  C    3.741490   9.330616   8.556535   9.385970  10.728991
    27  C   10.214966   1.449348   2.469721   2.823625   2.456827
    28  C   11.226632   2.467145   2.836392   2.424816   1.436277
    29  C   12.570395   3.759853   4.247388   3.708334   2.473140
    30  C   12.962218   4.252650   5.086386   4.842440   3.731818
    31  C   12.099479   3.754539   4.892058   5.054157   4.229586
    32  C   10.729135   2.496091   3.769253   4.234305   3.741515
    33  H    8.318816   2.162325   3.426935   4.616801   4.871349
    34  H    6.914798   5.867084   4.627808   4.923312   6.256105
    35  H    8.503587   4.104968   2.701215   2.531482   3.819203
    36  H    4.871302   7.241242   6.284759   6.966471   8.318717
    37  H    6.256222   4.087930   4.883457   6.295262   6.914839
    38  H    3.819314   5.850378   6.157277   7.576600   8.503619
    39  H    2.139747   7.368983   7.449945   8.811127   9.866822
    40  H    1.096078   9.644653   9.527262  10.799002  11.960843
    41  H    9.866699   3.436641   2.177461   1.100839   2.139784
    42  H   11.960819   3.927353   3.435851   2.135368   1.096080
    43  H    2.691103  11.356625  10.991650  12.118463  13.379756
    44  H    4.619646  12.410254  11.783305  12.708942  14.038781
    45  H    5.324405  11.394645  10.537830  11.250879  12.603545
    46  H    4.618586   8.968232   8.062528   8.759167  10.111716
    47  H   13.379803   4.633332   4.873871   4.039558   2.691109
    48  H   14.038906   5.347476   6.155808   5.816102   4.619675
    49  H   12.603741   4.641358   5.870674   6.126365   5.324430
    50  H   10.111897   2.707377   4.109198   4.875558   4.618612
                   21         22         23         24         25
    21  C    0.000000
    22  C    1.405533   0.000000
    23  C    2.436202   1.410995   0.000000
    24  C    2.803383   2.417921   1.376693   0.000000
    25  C    2.422386   2.793299   2.409827   1.404164   0.000000
    26  C    1.411196   2.425895   2.788167   2.410976   1.376481
    27  C    9.961671  10.722809  12.126398  12.764751  12.135504
    28  C   10.722774  11.604856  12.988923  13.515539  12.769266
    29  C   12.126381  12.988946  14.378248  14.921519  14.180273
    30  C   12.764770  13.515603  14.921565  15.567960  14.924141
    31  C   12.135556  12.769365  14.180358  14.924184  14.388998
    32  C   10.769166  11.393017  12.804005  13.554220  13.037463
    33  H    8.634528   9.099322  10.503142  11.361280  10.995504
    34  H    5.044103   6.394192   7.444618   7.384337   6.252798
    35  H    7.082269   8.309039   9.517681   9.652405   8.621005
    36  H    2.689050   4.087483   5.021921   4.926499   3.845607
    37  H    7.096879   7.255482   8.610218   9.635520   9.519190
    38  H    5.059015   4.942773   6.238214   7.358407   7.438697
    39  H    3.924175   3.433578   4.610474   5.829643   6.132182
    40  H    3.436448   2.180794   2.685160   4.057482   4.847994
    41  H    8.682448   9.834299  11.102990  11.329664  10.348109
    42  H   11.013928  12.086319  13.403543  13.719142  12.787322
    43  H    3.424272   2.168134   1.095957   2.151273   3.408475
    44  H    3.898172   3.414403   2.148822   1.094848   2.164576
    45  H    3.416845   3.888137   3.396423   2.164639   1.094870
    46  H    2.164590   3.416588   3.888845   3.415897   2.158521
    47  H   12.782348  13.716147  15.088493  15.557913  14.744467
    48  H   13.859619  14.606377  16.013041  16.662808  16.015701
    49  H   12.821143  13.366323  14.774006  15.586354  15.124865
    50  H   10.380260  10.884924  12.290738  13.127467  12.715344
                   26         27         28         29         30
    26  C    0.000000
    27  C   10.769111   0.000000
    28  C   11.392921   1.405542   0.000000
    29  C   12.803922   2.436222   1.411009   0.000000
    30  C   13.554174   2.803403   2.417935   1.376694   0.000000
    31  C   13.037454   2.422402   2.793315   2.409837   1.404174
    32  C   11.691741   1.411210   2.425911   2.788182   2.410988
    33  H    9.701202   2.689097   4.087538   5.021994   4.926581
    34  H    4.979624   7.096819   7.255391   8.610134   9.635452
    35  H    7.292714   5.058939   4.942676   6.238125   7.358325
    36  H    2.530470   8.634496   9.099257  10.503088  11.361251
    37  H    8.351204   5.044158   6.394250   7.444699   7.384436
    38  H    6.426438   7.082330   8.309095   9.517761   9.652507
    39  H    5.335013   8.682636   9.834468  11.103190  11.329902
    40  H    4.604591  11.014039  12.086400  13.403655  13.719302
    41  H    9.002886   3.924196   3.433612   4.610529   5.829694
    42  H   11.429942   3.436470   2.180811   2.685190   4.057512
    43  H    3.884110  12.782400  13.716160  15.088532  15.558001
    44  H    3.397111  13.859600  14.606311  16.012992  16.662807
    45  H    2.147442  12.821053  13.366181  14.773874  15.586265
    46  H    1.100725  10.380167  10.884787  12.290612  13.127374
    47  H   13.370031   3.424287   2.168139   1.095958   2.151282
    48  H   14.644947   3.898193   3.414423   2.148832   1.094849
    49  H   13.790405   3.416866   3.888153   3.396427   2.164639
    50  H   11.399743   2.164601   3.416604   3.888860   3.415909
                   31         32         33         34         35
    31  C    0.000000
    32  C    1.376484   0.000000
    33  H    3.845686   2.530543   0.000000
    34  H    9.519147   8.351175   7.232085   0.000000
    35  H    7.438630   6.426384   5.958042   2.483898   0.000000
    36  H   10.995503   9.701211   8.021031   2.460953   4.775416
    37  H    6.252901   4.979714   2.460968   7.237551   6.793814
    38  H    8.621117   7.292815   4.775448   6.793834   7.229768
    39  H   10.348368   9.003133   6.508174   7.014031   8.008908
    40  H   12.787514  11.430122   8.961069   8.010609   9.563532
    41  H    6.132225   5.335048   5.566121   4.261708   1.777815
    42  H    4.848028   4.604623   5.947168   6.746817   4.262920
    43  H   14.744595  13.370153  10.991570   8.466382  10.463203
    44  H   16.015745  14.644995  12.437858   8.370503  10.683855
    45  H   15.124823  13.790377  11.842230   6.540374   8.989683
    46  H   12.715289  11.399701   9.579509   4.113293   6.525246
    47  H    3.408490   3.884125   6.070630   8.944672   6.492465
    48  H    2.164577   3.397117   5.927576  10.667303   8.345981
    49  H    1.094871   2.147452   4.285812  10.481005   8.470928
    50  H    2.158524   1.100726   1.793904   8.490483   6.809682
                   36         37         38         39         40
    36  H    0.000000
    37  H    7.232107   0.000000
    38  H    5.958080   2.483918   0.000000
    39  H    5.566116   4.261895   1.777982   0.000000
    40  H    5.947115   6.746962   4.263045   2.485070   0.000000
    41  H    6.507988   7.014005   8.008855   9.073955  10.885363
    42  H    8.960941   8.010651   9.563558  10.885470  12.922820
    43  H    6.070562   8.944785   6.492573   4.756029   2.436115
    44  H    5.927497  10.667371   8.346060   6.752936   4.758050
    45  H    4.285717  10.481031   8.470986   7.211237   5.923575
    46  H    1.793824   8.490485   6.809719   5.956214   5.563045
    47  H   10.991484   8.466453  10.463268  12.001988  14.250032
    48  H   12.437827   8.370602  10.683959  12.378849  14.782760
    49  H   11.842255   6.540504   8.989826  10.752084  13.223159
    50  H    9.579550   4.113398   6.525366   8.277126  10.741099
                   41         42         43         44         45
    41  H    0.000000
    42  H    2.485112   0.000000
    43  H   12.001812  14.249952   0.000000
    44  H   12.378607  14.782594   2.486246   0.000000
    45  H   10.751784  13.222917   4.306100   2.483192   0.000000
    46  H    8.276851  10.740881   4.984767   4.313381   2.492001
    47  H    4.756080   2.436133  15.842811  16.642760  15.277109
    48  H    6.752999   4.758092  16.642853  17.757655  16.671456
    49  H    7.211282   5.923606  15.277288  16.671548  15.902076
    50  H    5.956243   5.563077  12.785474  14.208452  13.529414
                   46         47         48         49         50
    46  H    0.000000
    47  H   12.785308   0.000000
    48  H   14.208356   2.486272   0.000000
    49  H   13.529394   4.306109   2.483176   0.000000
    50  H   11.208645   4.984783   4.313385   2.492016   0.000000
 Stoichiometry    C32H18
 Framework group  CS[SG(C32H18)]
 Deg. of freedom    97
 Full point group                 CS      NOp   2
 Largest Abelian subgroup         CS      NOp   2
 Largest concise Abelian subgroup C1      NOp   1
                         Standard orientation:                         
 ---------------------------------------------------------------------
 Center     Atomic      Atomic             Coordinates (Angstroms)
 Number     Number       Type             X           Y           Z
 ---------------------------------------------------------------------
      1          6           0        1.241973   -2.803822    0.000000
      2          6           0       -1.211948   -1.430541    0.000000
      3          6           0       -2.462852    0.661084    0.000000
      4          6           0       -2.448188   -0.690505    0.000000
      5          6           0       -1.236256    1.416791    0.000000
      6          6           0       -1.241921    2.803803    0.000000
      7          6           0        0.000075   -0.717652    0.000000
      8          6           0        1.236326   -1.416812    0.000000
      9          6           0        2.462928   -0.661106    0.000000
     10          6           0        2.448273    0.690511    0.000000
     11          6           0        1.212020    1.430568    0.000000
     12          6           0        0.000000    0.717647    0.000000
     13          6           0       -0.040352    3.531264    0.000000
     14          6           0        1.193536    2.848265    0.000000
     15          6           0        2.414397    3.607013    0.000000
     16          6           0        2.404109    4.960054    0.000000
     17          6           0        0.040386   -3.531269    0.000000
     18          6           0       -1.193478   -2.848235    0.000000
     19          6           0       -2.414377   -3.606914    0.000000
     20          6           0       -2.404148   -4.959982    0.000000
     21          6           0       -0.052617    4.980550    0.000000
     22          6           0        1.163927    5.684498    0.000000
     23          6           0        1.156588    7.095474    0.000000
     24          6           0       -0.035628    7.783882    0.000000
     25          6           0       -1.253214    7.084480    0.000000
     26          6           0       -1.261854    5.708026    0.000000
     27          6           0        0.052593   -4.980565    0.000000
     28          6           0       -1.163985   -5.684474    0.000000
     29          6           0       -1.156696   -7.095464    0.000000
     30          6           0        0.035496   -7.783916    0.000000
     31          6           0        1.253117   -7.084555    0.000000
     32          6           0        1.261811   -5.708099    0.000000
     33          1           0        2.195608   -3.356149    0.000000
     34          1           0       -3.408688    1.214947    0.000000
     35          1           0       -3.384839   -1.268837    0.000000
     36          1           0       -2.195563    3.356120    0.000000
     37          1           0        3.408762   -1.214976    0.000000
     38          1           0        3.384933    1.268828    0.000000
     39          1           0        3.361944    3.046662    0.000000
     40          1           0        3.339357    5.531629    0.000000
     41          1           0       -3.361894   -3.046504    0.000000
     42          1           0       -3.339425   -5.531514    0.000000
     43          1           0        2.110494    7.635092    0.000000
     44          1           0       -0.042373    8.878709    0.000000
     45          1           0       -2.195601    7.641837    0.000000
     46          1           0       -2.210574    5.149881    0.000000
     47          1           0       -2.110628   -7.635036    0.000000
     48          1           0        0.042216   -8.878744    0.000000
     49          1           0        2.195476   -7.641961    0.000000
     50          1           0        2.210554   -5.149991    0.000000
 ---------------------------------------------------------------------
 Rotational constants (GHZ):      0.5306891      0.0607192      0.0544852
 Leave Link  202 at Sat Jul 27 10:15:44 2019, MaxMem=  4194304000 cpu:         0.6
 (Enter /home/minenky/programs//g09/l301.exe)
 Standard basis: def2TZVP (5D, 7F)
 ======================================================================================================
                                       Pseudopotential Parameters
 ======================================================================================================
  Center     Atomic      Valence      Angular      Power
  Number     Number     Electrons     Momentum     of R      Exponent        Coefficient   SO-Coeffient
 ======================================================================================================
    1          6
                                   No pseudopotential on this center.
    2          6
                                   No pseudopotential on this center.
    3          6
                                   No pseudopotential on this center.
    4          6
                                   No pseudopotential on this center.
    5          6
                                   No pseudopotential on this center.
    6          6
                                   No pseudopotential on this center.
    7          6
                                   No pseudopotential on this center.
    8          6
                                   No pseudopotential on this center.
    9          6
                                   No pseudopotential on this center.
   10          6
                                   No pseudopotential on this center.
   11          6
                                   No pseudopotential on this center.
   12          6
                                   No pseudopotential on this center.
   13          6
                                   No pseudopotential on this center.
   14          6
                                   No pseudopotential on this center.
   15          6
                                   No pseudopotential on this center.
   16          6
                                   No pseudopotential on this center.
   17          6
                                   No pseudopotential on this center.
   18          6
                                   No pseudopotential on this center.
   19          6
                                   No pseudopotential on this center.
   20          6
                                   No pseudopotential on this center.
   21          6
                                   No pseudopotential on this center.
   22          6
                                   No pseudopotential on this center.
   23          6
                                   No pseudopotential on this center.
   24          6
                                   No pseudopotential on this center.
   25          6
                                   No pseudopotential on this center.
   26          6
                                   No pseudopotential on this center.
   27          6
                                   No pseudopotential on this center.
   28          6
                                   No pseudopotential on this center.
   29          6
                                   No pseudopotential on this center.
   30          6
                                   No pseudopotential on this center.
   31          6
                                   No pseudopotential on this center.
   32          6
                                   No pseudopotential on this center.
   33          1
                                   No pseudopotential on this center.
   34          1
                                   No pseudopotential on this center.
   35          1
                                   No pseudopotential on this center.
   36          1
                                   No pseudopotential on this center.
   37          1
                                   No pseudopotential on this center.
   38          1
                                   No pseudopotential on this center.
   39          1
                                   No pseudopotential on this center.
   40          1
                                   No pseudopotential on this center.
   41          1
                                   No pseudopotential on this center.
   42          1
                                   No pseudopotential on this center.
   43          1
                                   No pseudopotential on this center.
   44          1
                                   No pseudopotential on this center.
   45          1
                                   No pseudopotential on this center.
   46          1
                                   No pseudopotential on this center.
   47          1
                                   No pseudopotential on this center.
   48          1
                                   No pseudopotential on this center.
   49          1
                                   No pseudopotential on this center.
   50          1
                                   No pseudopotential on this center.
 ======================================================================================================
 Ernie: Thresh=  0.10000D-02 Tol=  0.10000D-05 Strict=F.
 AO basis set (Overlap normalization):
 Atom C1       Shell     1 S   6     bf    1 -     1          2.346989215843         -5.298456523910          0.000000000000
      0.1357534968D+05  0.6064550360D-03
      0.2035233368D+04  0.4697908888D-02
      0.4632256236D+03  0.2433247765D-01
      0.1312001960D+03  0.9739996831D-01
      0.4285301589D+02  0.3019558425D+00
      0.1558418577D+02  0.6623360914D+00
 Atom C1       Shell     2 S   2     bf    2 -     2          2.346989215843         -5.298456523910          0.000000000000
      0.6206713851D+01  0.6559530854D+00
      0.2576489653D+01  0.3758563329D+00
 Atom C1       Shell     3 S   1     bf    3 -     3          2.346989215843         -5.298456523910          0.000000000000
      0.5769633942D+00  0.1000000000D+01
 Atom C1       Shell     4 S   1     bf    4 -     4          2.346989215843         -5.298456523910          0.000000000000
      0.2297283136D+00  0.1000000000D+01
 Atom C1       Shell     5 S   1     bf    5 -     5          2.346989215843         -5.298456523910          0.000000000000
      0.9516444003D-01  0.1000000000D+01
 Atom C1       Shell     6 P   4     bf    6 -     8          2.346989215843         -5.298456523910          0.000000000000
      0.3469723224D+02  0.1132722000D-01
      0.7958262283D+01  0.7616965920D-01
      0.2378082688D+01  0.3019225220D+00
      0.8143320818D+00  0.7278502735D+00
 Atom C1       Shell     7 P   1     bf    9 -    11          2.346989215843         -5.298456523910          0.000000000000
      0.2888754725D+00  0.1000000000D+01
 Atom C1       Shell     8 P   1     bf   12 -    14          2.346989215843         -5.298456523910          0.000000000000
      0.1005682367D+00  0.1000000000D+01
 Atom C1       Shell     9 D   1     bf   15 -    19          2.346989215843         -5.298456523910          0.000000000000
      0.1097000000D+01  0.1000000000D+01
 Atom C1       Shell    10 D   1     bf   20 -    24          2.346989215843         -5.298456523910          0.000000000000
      0.3180000000D+00  0.1000000000D+01
 Atom C1       Shell    11 F   1     bf   25 -    31          2.346989215843         -5.298456523910          0.000000000000
      0.7610000000D+00  0.1000000000D+01
 Atom C2       Shell    12 S   6     bf   32 -    32         -2.290250100419         -2.703330872325          0.000000000000
      0.1357534968D+05  0.6064550360D-03
      0.2035233368D+04  0.4697908888D-02
      0.4632256236D+03  0.2433247765D-01
      0.1312001960D+03  0.9739996831D-01
      0.4285301589D+02  0.3019558425D+00
      0.1558418577D+02  0.6623360914D+00
 Atom C2       Shell    13 S   2     bf   33 -    33         -2.290250100419         -2.703330872325          0.000000000000
      0.6206713851D+01  0.6559530854D+00
      0.2576489653D+01  0.3758563329D+00
 Atom C2       Shell    14 S   1     bf   34 -    34         -2.290250100419         -2.703330872325          0.000000000000
      0.5769633942D+00  0.1000000000D+01
 Atom C2       Shell    15 S   1     bf   35 -    35         -2.290250100419         -2.703330872325          0.000000000000
      0.2297283136D+00  0.1000000000D+01
 Atom C2       Shell    16 S   1     bf   36 -    36         -2.290250100419         -2.703330872325          0.000000000000
      0.9516444003D-01  0.1000000000D+01
 Atom C2       Shell    17 P   4     bf   37 -    39         -2.290250100419         -2.703330872325          0.000000000000
      0.3469723224D+02  0.1132722000D-01
      0.7958262283D+01  0.7616965920D-01
      0.2378082688D+01  0.3019225220D+00
      0.8143320818D+00  0.7278502735D+00
 Atom C2       Shell    18 P   1     bf   40 -    42         -2.290250100419         -2.703330872325          0.000000000000
      0.2888754725D+00  0.1000000000D+01
 Atom C2       Shell    19 P   1     bf   43 -    45         -2.290250100419         -2.703330872325          0.000000000000
      0.1005682367D+00  0.1000000000D+01
 Atom C2       Shell    20 D   1     bf   46 -    50         -2.290250100419         -2.703330872325          0.000000000000
      0.1097000000D+01  0.1000000000D+01
 Atom C2       Shell    21 D   1     bf   51 -    55         -2.290250100419         -2.703330872325          0.000000000000
      0.3180000000D+00  0.1000000000D+01
 Atom C2       Shell    22 F   1     bf   56 -    62         -2.290250100419         -2.703330872325          0.000000000000
      0.7610000000D+00  0.1000000000D+01
 Atom C3       Shell    23 S   6     bf   63 -    63         -4.654115884887          1.249268568350          0.000000000000
      0.1357534968D+05  0.6064550360D-03
      0.2035233368D+04  0.4697908888D-02
      0.4632256236D+03  0.2433247765D-01
      0.1312001960D+03  0.9739996831D-01
      0.4285301589D+02  0.3019558425D+00
      0.1558418577D+02  0.6623360914D+00
 Atom C3       Shell    24 S   2     bf   64 -    64         -4.654115884887          1.249268568350          0.000000000000
      0.6206713851D+01  0.6559530854D+00
      0.2576489653D+01  0.3758563329D+00
 Atom C3       Shell    25 S   1     bf   65 -    65         -4.654115884887          1.249268568350          0.000000000000
      0.5769633942D+00  0.1000000000D+01
 Atom C3       Shell    26 S   1     bf   66 -    66         -4.654115884887          1.249268568350          0.000000000000
      0.2297283136D+00  0.1000000000D+01
 Atom C3       Shell    27 S   1     bf   67 -    67         -4.654115884887          1.249268568350          0.000000000000
      0.9516444003D-01  0.1000000000D+01
 Atom C3       Shell    28 P   4     bf   68 -    70         -4.654115884887          1.249268568350          0.000000000000
      0.3469723224D+02  0.1132722000D-01
      0.7958262283D+01  0.7616965920D-01
      0.2378082688D+01  0.3019225220D+00
      0.8143320818D+00  0.7278502735D+00
 Atom C3       Shell    29 P   1     bf   71 -    73         -4.654115884887          1.249268568350          0.000000000000
      0.2888754725D+00  0.1000000000D+01
 Atom C3       Shell    30 P   1     bf   74 -    76         -4.654115884887          1.249268568350          0.000000000000
      0.1005682367D+00  0.1000000000D+01
 Atom C3       Shell    31 D   1     bf   77 -    81         -4.654115884887          1.249268568350          0.000000000000
      0.1097000000D+01  0.1000000000D+01
 Atom C3       Shell    32 D   1     bf   82 -    86         -4.654115884887          1.249268568350          0.000000000000
      0.3180000000D+00  0.1000000000D+01
 Atom C3       Shell    33 F   1     bf   87 -    93         -4.654115884887          1.249268568350          0.000000000000
      0.7610000000D+00  0.1000000000D+01
 Atom C4       Shell    34 S   6     bf   94 -    94         -4.626404526252         -1.304864920225          0.000000000000
      0.1357534968D+05  0.6064550360D-03
      0.2035233368D+04  0.4697908888D-02
      0.4632256236D+03  0.2433247765D-01
      0.1312001960D+03  0.9739996831D-01
      0.4285301589D+02  0.3019558425D+00
      0.1558418577D+02  0.6623360914D+00
 Atom C4       Shell    35 S   2     bf   95 -    95         -4.626404526252         -1.304864920225          0.000000000000
      0.6206713851D+01  0.6559530854D+00
      0.2576489653D+01  0.3758563329D+00
 Atom C4       Shell    36 S   1     bf   96 -    96         -4.626404526252         -1.304864920225          0.000000000000
      0.5769633942D+00  0.1000000000D+01
 Atom C4       Shell    37 S   1     bf   97 -    97         -4.626404526252         -1.304864920225          0.000000000000
      0.2297283136D+00  0.1000000000D+01
 Atom C4       Shell    38 S   1     bf   98 -    98         -4.626404526252         -1.304864920225          0.000000000000
      0.9516444003D-01  0.1000000000D+01
 Atom C4       Shell    39 P   4     bf   99 -   101         -4.626404526252         -1.304864920225          0.000000000000
      0.3469723224D+02  0.1132722000D-01
      0.7958262283D+01  0.7616965920D-01
      0.2378082688D+01  0.3019225220D+00
      0.8143320818D+00  0.7278502735D+00
 Atom C4       Shell    40 P   1     bf  102 -   104         -4.626404526252         -1.304864920225          0.000000000000
      0.2888754725D+00  0.1000000000D+01
 Atom C4       Shell    41 P   1     bf  105 -   107         -4.626404526252         -1.304864920225          0.000000000000
      0.1005682367D+00  0.1000000000D+01
 Atom C4       Shell    42 D   1     bf  108 -   112         -4.626404526252         -1.304864920225          0.000000000000
      0.1097000000D+01  0.1000000000D+01
 Atom C4       Shell    43 D   1     bf  113 -   117         -4.626404526252         -1.304864920225          0.000000000000
      0.3180000000D+00  0.1000000000D+01
 Atom C4       Shell    44 F   1     bf  118 -   124         -4.626404526252         -1.304864920225          0.000000000000
      0.7610000000D+00  0.1000000000D+01
 Atom C5       Shell    45 S   6     bf  125 -   125         -2.336185871294          2.677347321670          0.000000000000
      0.1357534968D+05  0.6064550360D-03
      0.2035233368D+04  0.4697908888D-02
      0.4632256236D+03  0.2433247765D-01
      0.1312001960D+03  0.9739996831D-01
      0.4285301589D+02  0.3019558425D+00
      0.1558418577D+02  0.6623360914D+00
 Atom C5       Shell    46 S   2     bf  126 -   126         -2.336185871294          2.677347321670          0.000000000000
      0.6206713851D+01  0.6559530854D+00
      0.2576489653D+01  0.3758563329D+00
 Atom C5       Shell    47 S   1     bf  127 -   127         -2.336185871294          2.677347321670          0.000000000000
      0.5769633942D+00  0.1000000000D+01
[...]
 1546,0.,0.00001173,0.00000473,0.,-0.00000121,0.00000682,0.,0.00000012,
 -0.00000575,0.,-0.00000412,0.00000051,0.,-0.00000051,-0.00000071,0.,-0
 .00000676,-0.00000018,0.,0.00000026,-0.00000234,0.,0.00000307,0.000004
 15,0.,-0.00000417,0.00000227,0.,0.00001165,-0.00001591,0.,-0.00000401,
 -0.00000192,0.,0.00000487,0.00000173,0.,-0.00001338,-0.00001103,0.,0.0
 0002630,0.00004286,0.,0.00000252,0.00000073,0.,-0.00000274,0.00000108,
 0.,-0.00070721,-0.00102453,0.,0.00033159,0.00083367,0.,0.12174674,0.30
 129592,0.,0.,0.00000028,0.,0.,0.00000724,0.,0.,0.00001040,0.,0.,-0.000
 01605,0.,0.,-0.00007848,0.,0.,0.00028586,0.,0.,0.00000074,0.,0.,-0.000
 00348,0.,0.,0.00000215,0.,0.,-0.00005629,0.,0.,-0.00001390,0.,0.,0.000
 05052,0.,0.,0.00014192,0.,0.,-0.00042025,0.,0.,0.00009861,0.,0.,-0.000
 95209,0.,0.,-0.00000120,0.,0.,-0.00000254,0.,0.,0.00000142,0.,0.,-0.00
 000174,0.,0.,0.00884656,0.,0.,-0.00107693,0.,0.,0.00662452,0.,0.,0.002
 30927,0.,0.,-0.03651485,0.,0.,0.00258611,0.,0.,0.00000063,0.,0.,-0.000
 00009,0.,0.,-0.00000041,0.,0.,-0.00000052,0.,0.,-0.00000065,0.,0.,-0.0
 0000064,0.,0.,0.00000027,0.,0.,0.00000685,0.,0.,0.00000296,0.,0.,-0.00
 006247,0.,0.,0.00000947,0.,0.,0.00000168,0.,0.,0.00010038,0.,0.,0.0000
 4228,0.,0.,0.00000099,0.,0.,0.00000089,0.,0.,0.00008972,0.,0.,-0.00312
 504,0.,0.,0.02575902,0.00004436,-0.00000498,0.,0.00004139,0.00000300,0
 .,0.00003285,-0.00002688,0.,-0.00002604,-0.00005031,0.,-0.00011467,0.0
 0013220,0.,-0.00261393,-0.00170234,0.,-0.00000128,0.00004156,0.,-0.000
 01266,0.00001260,0.,0.00001763,0.00004095,0.,0.00002335,-0.00006989,0.
 ,0.00008593,0.00012472,0.,-0.00001986,0.00005456,0.,-0.00068128,0.0013
 1782,0.,0.00010727,0.00014462,0.,0.00019924,-0.00003433,0.,0.00051597,
 -0.00062322,0.,-0.00002492,0.00003210,0.,-0.00003123,0.00000298,0.,0.0
 0001251,0.00001315,0.,0.00000158,-0.00002049,0.,0.01278169,-0.01096516
 ,0.,-0.00100341,-0.00308750,0.,-0.00069317,-0.00096276,0.,-0.00556979,
 -0.00144295,0.,-0.01281149,0.02950183,0.,-0.13410965,0.12473656,0.,-0.
 00000346,-0.00000673,0.,0.00000347,-0.00000233,0.,-0.00000400,0.000006
 77,0.,0.00000457,0.00000392,0.,0.00000541,0.00000080,0.,0.00000624,-0.
 00000309,0.,-0.00000017,0.00000236,0.,-0.00002004,0.00002076,0.,0.0000
 0759,-0.00000216,0.,-0.00503936,-0.00078922,0.,0.00000808,0.00000173,0
 .,0.00000033,0.00001647,0.,-0.00002085,0.00002395,0.,-0.00010477,-0.00
 023068,0.,-0.00000438,-0.00000015,0.,0.00000424,-0.00000144,0.,0.00005
 093,0.00008205,0.,-0.00071850,0.00130847,0.,0.00080399,-0.00030580,0.,
 0.14886806,0.00003181,0.00001721,0.,-0.00000022,-0.00000772,0.,-0.0000
 2888,0.00001634,0.,-0.00000859,-0.00004564,0.,-0.00012429,0.00090475,0
 .,0.00070910,-0.00065794,0.,0.00000643,0.00013153,0.,0.00000944,0.0000
 0139,0.,0.00001877,0.00003872,0.,-0.00002660,-0.00006669,0.,0.00009272
 ,0.00009530,0.,0.00018365,-0.00001115,0.,0.00169658,0.00015284,0.,-0.0
 0008894,-0.00011674,0.,-0.00000124,-0.00007124,0.,0.00130012,-0.000641
 10,0.,-0.00002344,0.00001871,0.,-0.00001666,0.00000388,0.,0.00000808,0
 .00000450,0.,0.00000079,-0.00001318,0.,0.01677906,-0.01846586,0.,-0.00
 402711,-0.00306727,0.,-0.00091538,0.00008980,0.,-0.00067193,0.00164284
 ,0.,-0.00307276,0.00443482,0.,0.12582160,-0.26897549,0.,-0.00000079,-0
 .00000188,0.,-0.00000071,-0.00000080,0.,-0.00000188,0.00000380,0.,0.00
 000119,0.00000232,0.,0.00000360,0.00000187,0.,0.00000433,-0.00000298,0
 .,0.00000345,0.00000161,0.,-0.00002613,0.00002757,0.,0.00001051,0.0000
 0084,0.,-0.00026142,0.00181443,0.,0.00000092,0.00000043,0.,0.00001746,
 0.00004000,0.,-0.00005052,0.00001795,0.,-0.00020341,-0.00041807,0.,-0.
 00000361,0.00000200,0.,0.00000192,-0.00000055,0.,0.00011710,-0.0000381
 9,0.,-0.00018261,0.00005280,0.,0.00020820,0.00096917,0.,-0.13729087,0.
 28211658,0.,0.,-0.00001300,0.,0.,-0.00004470,0.,0.,-0.00008167,0.,0.,0
 .00002951,0.,0.,-0.00016718,0.,0.,-0.00057328,0.,0.,0.00008135,0.,0.,0
 .00000762,0.,0.,-0.00001147,0.,0.,-0.00000919,0.,0.,0.00015242,0.,0.,-
 0.00000532,0.,0.,-0.00278612,0.,0.,-0.00004864,0.,0.,-0.00022994,0.,0.
 ,0.00016809,0.,0.,-0.00000121,0.,0.,0.00001850,0.,0.,-0.00000999,0.,0.
 ,-0.00000004,0.,0.,0.00273190,0.,0.,0.00620629,0.,0.,-0.00097604,0.,0.
 ,0.00876958,0.,0.,0.00347679,0.,0.,-0.03642569,0.,0.,-0.00000295,0.,0.
 ,0.00000128,0.,0.,-0.00000133,0.,0.,-0.00000024,0.,0.,-0.00000131,0.,0
 .,0.00000267,0.,0.,0.00000270,0.,0.,0.00004415,0.,0.,-0.00000584,0.,0.
 ,0.00191328,0.,0.,0.00000283,0.,0.,0.00000646,0.,0.,0.00004073,0.,0.,0
 .00004588,0.,0.,0.00000584,0.,0.,0.00000088,0.,0.,-0.00111247,0.,0.,-0
 .00001510,0.,0.,-0.00465524,0.,0.,0.02346805,-0.00047621,-0.00028406,0
 .,0.00004549,-0.00012945,0.,-0.00000960,-0.00001607,0.,-0.00003099,0.0
 0003870,0.,-0.00000991,0.00000248,0.,-0.00000183,-0.00000078,0.,-0.000
 01637,0.00000933,0.,-0.00001793,0.00013240,0.,-0.00004472,-0.00003286,
 0.,-0.00001144,0.00001249,0.,-0.00000621,0.00000517,0.,0.00002482,-0.0
 0001356,0.,-0.00000522,-0.00000045,0.,0.00000633,-0.00000642,0.,-0.000
 00286,-0.00000370,0.,-0.00000162,0.00000105,0.,-0.00022582,0.00162215,
 0.,0.00009294,0.00019781,0.,0.00019340,-0.00043696,0.,0.00112727,0.002
 08356,0.,0.00000629,0.00000038,0.,-0.00000244,0.00000137,0.,0.00000108
 ,-0.00000282,0.,-0.00000339,-0.00000069,0.,-0.00000061,0.00000036,0.,-
 0.00000403,0.00000182,0.,-0.00504723,-0.00190069,0.,-0.01238261,0.0277
 4217,0.,-0.14083601,0.12631779,0.,0.01192051,-0.01380371,0.,-0.0004502
 3,-0.00311830,0.,-0.00078635,-0.00098185,0.,0.00002666,0.00001201,0.,-
 0.00000603,-0.00000232,0.,-0.00000583,-0.00001731,0.,-0.00000229,-0.00
 000215,0.,0.00000395,-0.00000071,0.,-0.00000699,0.00000133,0.,0.000001
 48,-0.00000072,0.,-0.00000110,0.00000052,0.,-0.00004091,-0.00001915,0.
 ,-0.00030114,-0.00134120,0.,-0.00000040,0.00000071,0.,-0.00000090,-0.0
 0000008,0.,-0.00000099,-0.00000091,0.,0.00000124,0.00000034,0.,0.14605
 020,0.00009783,-0.00004773,0.,0.00008484,-0.00002471,0.,0.00001995,0.0
 0000139,0.,0.00000129,-0.00002884,0.,-0.00000758,0.00000652,0.,0.00002
 541,-0.00000870,0.,-0.00000164,0.00007408,0.,-0.00008921,-0.00001460,0
 .,0.00002191,0.00000731,0.,-0.00000927,-0.00002305,0.,0.00002149,0.000
 00745,0.,-0.00000372,0.00000300,0.,-0.00000859,0.00001663,0.,-0.000018
 84,0.00000100,0.,0.00000728,0.00000814,0.,0.00000137,-0.00000959,0.,-0
 .00048502,0.00000925,0.,-0.00016014,0.00027456,0.,0.00044708,0.0000843
 9,0.,-0.00182658,0.00100638,0.,-0.00000490,-0.00000310,0.,0.00000307,-
 0.00000114,0.,-0.00000254,0.00000465,0.,0.00000409,0.00000247,0.,0.000
 00317,-0.00000032,0.,0.00000520,-0.00000268,0.,-0.00083248,0.00129069,
 0.,-0.00218866,0.00326970,0.,0.12645791,-0.25773076,0.,0.01807679,-0.0
 1836563,0.,-0.00397231,-0.00350092,0.,-0.00078061,0.00017396,0.,-0.000
 01415,0.00001133,0.,0.00000538,0.00000250,0.,-0.00000479,-0.00000360,0
 .,0.00000059,0.00000253,0.,-0.00000322,-0.00000059,0.,0.00000202,-0.00
 000214,0.,-0.00000249,-0.00000012,0.,0.00000224,-0.00000105,0.,0.00005
 015,0.00000058,0.,0.00036564,0.00015813,0.,0.00000071,-0.00000184,0.,0
 .00000233,0.00000021,0.,0.00000141,0.00000188,0.,-0.00000278,-0.000001
 57,0.,-0.13590698,0.27357010,0.,0.,0.00014591,0.,0.,0.00002710,0.,0.,-
 0.00000442,0.,0.,-0.00000277,0.,0.,-0.00000236,0.,0.,-0.00000177,0.,0.
 ,-0.00001376,0.,0.,0.00000659,0.,0.,-0.00004866,0.,0.,-0.00000099,0.,0
 .,-0.00000330,0.,0.,0.00000295,0.,0.,0.00000061,0.,0.,0.00000008,0.,0.
 ,-0.00000023,0.,0.,-0.00000093,0.,0.,0.00006224,0.,0.,-0.00000129,0.,0
 .,-0.00008805,0.,0.,-0.00346892,0.,0.,-0.00000002,0.,0.,-0.00000011,0.
 ,0.,-0.00000037,0.,0.,-0.00000049,0.,0.,-0.00000062,0.,0.,-0.00000058,
 0.,0.,0.00586452,0.,0.,0.00301610,0.,0.,-0.03680176,0.,0.,0.00348891,0
 .,0.,0.00844854,0.,0.,-0.00088233,0.,0.,0.00000448,0.,0.,0.00000350,0.
 ,0.,0.00000744,0.,0.,0.00000120,0.,0.,0.00000264,0.,0.,0.00000953,0.,0
 .,0.00000090,0.,0.,0.00000064,0.,0.,0.00021481,0.,0.,0.00022447,0.,0.,
 0.00000040,0.,0.,0.00000042,0.,0.,0.00000055,0.,0.,0.00000073,0.,0.,0.
 02543392,-0.00004796,0.00003298,0.,0.00001875,0.00001627,0.,0.00000236
 ,-0.00001655,0.,-0.00001777,0.00001372,0.,-0.00001454,-0.00000957,0.,-
 0.00000926,-0.00000216,0.,-0.00000151,0.00000167,0.,0.00000270,-0.0000
 0831,0.,-0.00000174,-0.00003097,0.,-0.00001454,0.00002545,0.,-0.000001
 83,0.00001487,0.,0.00000993,-0.00000110,0.,0.00000979,-0.00000117,0.,-
 0.00000094,-0.00000630,0.,-0.00000405,-0.00001482,0.,-0.00000692,0.000
 01171,0.,-0.00000550,-0.00001448,0.,0.00001740,-0.00002214,0.,-0.00005
 440,-0.00034195,0.,-0.00061517,0.00042127,0.,0.00001013,0.00000619,0.,
 -0.00000047,0.00000692,0.,0.00000084,-0.00000670,0.,-0.00000393,-0.000
 00063,0.,-0.00000203,-0.00000143,0.,-0.00000735,0.00000064,0.,0.000668
 76,0.00010713,0.,0.00111534,-0.00257391,0.,-0.01004727,0.00226187,0.,-
 0.34167401,-0.01562284,0.,-0.01222907,-0.00428888,0.,0.00025491,0.0033
 7120,0.,0.00003086,-0.00004466,0.,-0.00000567,-0.00000201,0.,0.0000094
 1,0.00000788,0.,0.00000079,-0.00000244,0.,0.00000530,0.00000172,0.,-0.
 00000381,0.00000174,0.,0.00000335,0.00000040,0.,-0.00000312,0.00000118
 ,0.,-0.00006906,-0.00000249,0.,0.00001043,-0.00003560,0.,-0.00000090,0
 .00000233,0.,-0.00000301,-0.00000028,0.,-0.00000147,-0.00000224,0.,0.0
 0000352,0.00000225,0.,0.00079661,-0.00033287,0.,0.36186722,-0.00009889
 ,-0.00000668,0.,-0.00011328,0.00005164,0.,-0.00001842,0.00001627,0.,0.
 00001451,0.00000676,0.,0.00002324,-0.00000627,0.,-0.00002425,0.0000133
 3,0.,0.00003222,-0.00008883,0.,0.00008071,0.00010218,0.,-0.00003139,0.
 00000791,0.,0.00002396,0.00002111,0.,-0.00002337,-0.00002055,0.,-0.000
 01201,0.00000663,0.,0.00000768,-0.00002090,0.,0.00002096,0.00000769,0.
 ,-0.00000511,0.00000150,0.,0.00000379,0.00000443,0.,0.00030448,0.00014
 470,0.,0.00024454,-0.00024513,0.,-0.00036341,-0.00034654,0.,-0.0010311
 7,0.00072810,0.,-0.00000430,0.00000009,0.,-0.00000203,-0.00000406,0.,0
 .00000205,0.00000051,0.,-0.00000049,-0.00000231,0.,-0.00000213,0.00000
 104,0.,0.00000093,0.00000182,0.,-0.00029422,-0.00137913,0.,-0.00197398
 ,-0.00500021,0.,-0.02961496,0.00369897,0.,-0.01509852,-0.06157692,0.,0
 .02725974,0.00673117,0.,0.00274479,-0.00424880,0.,-0.00003947,0.000075
 21,0.,-0.00000121,-0.00000035,0.,0.00000628,0.00001323,0.,0.00000020,-
 0.00000015,0.,-0.00000366,0.00000522,0.,0.00000062,0.00000046,0.,-0.00
 000010,0.00000039,0.,-0.00000014,0.00000014,0.,-0.00013638,-0.00001076
 ,0.,0.00002202,-0.00003563,0.,-0.00000008,0.00000021,0.,-0.00000028,0.
 ,0.,-0.00000025,-0.00000024,0.,0.00000049,0.00000024,0.,0.00043008,0.0
 0084658,0.,0.01692812,0.05961947,0.,0.,0.00002451,0.,0.,0.00005132,0.,
 0.,0.00000739,0.,0.,-0.00000895,0.,0.,0.00000246,0.,0.,-0.00000721,0.,
 0.,-0.00000694,0.,0.,-0.00005097,0.,0.,-0.00000106,0.,0.,-0.00000487,0
 .,0.,0.00000002,0.,0.,0.00002181,0.,0.,0.00000025,0.,0.,-0.00000137,0.
 ,0.,-0.00000101,0.,0.,-0.00000044,0.,0.,-0.00093641,0.,0.,0.00007543,0
 .,0.,-0.00042990,0.,0.,0.00018390,0.,0.,0.00000093,0.,0.,0.00000009,0.
 ,0.,-0.00000059,0.,0.,-0.00000039,0.,0.,-0.00000046,0.,0.,-0.00000049,
 0.,0.,-0.00099742,0.,0.,0.00898307,0.,0.,0.00298894,0.,0.,-0.03709349,
 0.,0.,0.00219890,0.,0.,0.00668791,0.,0.,0.00008462,0.,0.,0.00000135,0.
 ,0.,-0.00000316,0.,0.,0.00000095,0.,0.,0.00000281,0.,0.,0.00000173,0.,
 0.,0.00000076,0.,0.,0.00000060,0.,0.,-0.00001680,0.,0.,0.00008509,0.,0
 .,0.00000042,0.,0.,0.00000036,0.,0.,0.00000043,0.,0.,0.00000053,0.,0.,
 -0.00462271,0.,0.,0.02591817,-0.00009213,0.00000569,0.,-0.00009864,-0.
 00014164,0.,-0.00002303,-0.00001876,0.,-0.00003980,0.00005390,0.,0.000
 01815,-0.00001053,0.,-0.00002823,0.00001552,0.,0.00001083,-0.00008512,
 0.,0.00011018,0.00008080,0.,-0.00005077,-0.00003066,0.,0.00001495,0.00
 003778,0.,-0.00003590,-0.00001874,0.,0.00000742,0.00000380,0.,0.000007
 90,-0.00002154,0.,0.00002652,0.00000721,0.,-0.00000897,-0.00000777,0.,
 0.00000063,0.00000910,0.,0.00035407,-0.00155015,0.,-0.00036927,-0.0000
 2820,0.,-0.00022290,0.00017274,0.,0.00034067,0.00012601,0.,0.00000184,
 0.00000308,0.,-0.00000500,-0.00000205,0.,0.00000339,-0.00000249,0.,-0.
 00000364,-0.00000274,0.,-0.00000308,0.00000133,0.,-0.00000271,0.000002
 17,0.,-0.00563592,0.00092215,0.,-0.00108658,0.00057184,0.,-0.00127649,
 0.00349317,0.,0.01200842,0.01671611,0.,-0.11714843,-0.11253617,0.,-0.0
 0957876,-0.02995619,0.,-0.00001234,0.00001204,0.,-0.00000880,-0.000001
 69,0.,0.00000481,-0.00000240,0.,-0.00000005,-0.00000144,0.,-0.00000012
 ,0.00001102,0.,-0.00000712,0.00000217,0.,0.00000145,0.00000156,0.,-0.0
 0000260,0.00000089,0.,0.00000283,-0.00001729,0.,-0.00001734,-0.0000727
 8,0.,-0.00000099,0.00000141,0.,-0.00000147,-0.00000025,0.,-0.00000081,
 -0.00000106,0.,0.00000183,0.00000138,0.,0.00039100,0.00086814,0.,0.000
 72740,-0.00056632,0.,0.12092364,-0.00000399,-0.00007357,0.,0.00007610,
 0.00000196,0.,0.00000719,-0.00001391,0.,-0.00002348,0.00000756,0.,-0.0
 0002151,-0.00000430,0.,0.00000557,-0.00000254,0.,-0.00002982,0.0000371
 1,0.,-0.00004358,-0.00001801,0.,0.00001006,-0.00003574,0.,-0.00002612,
 0.00000232,0.,0.00000397,0.00001700,0.,0.00002045,0.00000745,0.,-0.000
 00121,0.00001006,0.,-0.00000841,-0.00000788,0.,-0.00000138,-0.00001358
 ,0.,-0.00000746,0.00000540,0.,0.00002112,-0.00001115,0.,-0.00014077,0.
 00012069,0.,0.00008434,-0.00003699,0.,-0.00016373,-0.00005090,0.,0.000
 01173,0.00000473,0.,-0.00000121,0.00000682,0.,0.00000012,-0.00000575,0
 .,-0.00000412,0.00000051,0.,-0.00000051,-0.00000071,0.,-0.00000676,-0.
 00000018,0.,0.00046107,0.00173490,0.,0.00088341,0.00044823,0.,0.004119
 28,-0.00293377,0.,-0.01488654,-0.01783777,0.,-0.11334329,-0.28567077,0
 .,0.00192154,0.00221547,0.,0.00001165,-0.00001591,0.,-0.00000401,-0.00
 000192,0.,0.00000487,0.00000173,0.,0.00000026,-0.00000234,0.,0.0000030
 7,0.00000415,0.,-0.00000417,0.00000227,0.,0.00000252,0.00000073,0.,-0.
 00000274,0.00000108,0.,-0.00001338,-0.00001103,0.,0.00002630,0.0000428
 6,0.,-0.00000091,0.00000188,0.,-0.00000224,-0.00000024,0.,-0.00000106,
 -0.00000171,0.,0.00000246,0.00000161,0.,-0.00070721,-0.00102453,0.,0.0
 0033159,0.00083367,0.,0.12174678,0.30129587,0.,0.,0.00028586,0.,0.,-0.
 00001390,0.,0.,0.00000215,0.,0.,-0.00005629,0.,0.,-0.00000348,0.,0.,0.
 00000028,0.,0.,0.00005052,0.,0.,-0.00007848,0.,0.,0.00001040,0.,0.,-0.
 00001605,0.,0.,0.00000724,0.,0.,0.00000074,0.,0.,-0.00000120,0.,0.,-0.
 00000254,0.,0.,0.00000142,0.,0.,-0.00000174,0.,0.,0.00014192,0.,0.,-0.
 00042025,0.,0.,0.00009861,0.,0.,-0.00095209,0.,0.,0.00000063,0.,0.,-0.
 00000009,0.,0.,-0.00000041,0.,0.,-0.00000052,0.,0.,-0.00000065,0.,0.,-
 0.00000064,0.,0.,0.00884656,0.,0.,-0.00107694,0.,0.,0.00662453,0.,0.,0
 .00230926,0.,0.,-0.03651485,0.,0.,0.00258610,0.,0.,-0.00006247,0.,0.,0
 .00000947,0.,0.,0.00000167,0.,0.,0.00000027,0.,0.,0.00000685,0.,0.,0.0
 0000296,0.,0.,0.00000099,0.,0.,0.00000089,0.,0.,0.00010038,0.,0.,0.000
 04228,0.,0.,0.00000055,0.,0.,0.00000043,0.,0.,0.00000052,0.,0.,0.00000
 066,0.,0.,0.00008972,0.,0.,-0.00312505,0.,0.,0.02575902,-0.00261392,-0
 .00170234,0.,0.00008593,0.00012472,0.,0.00001763,0.00004095,0.,0.00002
 335,-0.00006989,0.,-0.00001266,0.00001260,0.,0.00004436,-0.00000498,0.
 ,-0.00001986,0.00005456,0.,-0.00011467,0.00013220,0.,0.00003285,-0.000
 02688,0.,-0.00002604,-0.00005031,0.,0.00004139,0.00000300,0.,-0.000001
 28,0.00004156,0.,-0.00002492,0.00003210,0.,-0.00003123,0.00000298,0.,0
 .00001251,0.00001315,0.,0.00000158,-0.00002049,0.,-0.00068128,0.001317
 81,0.,0.00010727,0.00014463,0.,0.00019924,-0.00003433,0.,0.00051597,-0
 .00062322,0.,-0.00000346,-0.00000673,0.,0.00000347,-0.00000233,0.,-0.0
 0000400,0.00000677,0.,0.00000457,0.00000392,0.,0.00000541,0.00000080,0
 .,0.00000624,-0.00000309,0.,0.01278169,-0.01096516,0.,-0.00100341,-0.0
 0308750,0.,-0.00069317,-0.00096276,0.,-0.00556980,-0.00144295,0.,-0.01
 281149,0.02950183,0.,-0.13410960,0.12473654,0.,-0.00503933,-0.00078921
 ,0.,0.00000808,0.00000173,0.,0.00000033,0.00001647,0.,-0.00000017,0.00
 000236,0.,-0.00002004,0.00002076,0.,0.00000759,-0.00000216,0.,-0.00000
 438,-0.00000015,0.,0.00000424,-0.00000144,0.,-0.00002085,0.00002395,0.
 ,-0.00010477,-0.00023068,0.,0.00000124,-0.00000278,0.,0.00000352,0.000
 00049,0.,0.00000183,0.00000246,0.,-0.00000436,-0.00000281,0.,0.0000509
 3,0.00008205,0.,-0.00071850,0.00130847,0.,0.00080399,-0.00030580,0.,0.
 14886797,0.00070910,-0.00065794,0.,0.00009272,0.00009530,0.,0.00001877
 ,0.00003872,0.,-0.00002660,-0.00006669,0.,0.00000944,0.00000139,0.,0.0
 0003181,0.00001721,0.,0.00018365,-0.00001115,0.,-0.00012429,0.00090475
 ,0.,-0.00002888,0.00001634,0.,-0.00000859,-0.00004564,0.,-0.00000022,-
 0.00000772,0.,0.00000643,0.00013153,0.,-0.00002344,0.00001871,0.,-0.00
 001666,0.00000388,0.,0.00000808,0.00000450,0.,0.00000079,-0.00001318,0
 .,0.00169658,0.00015284,0.,-0.00008894,-0.00011674,0.,-0.00000124,-0.0
 0007124,0.,0.00130012,-0.00064110,0.,-0.00000079,-0.00000188,0.,-0.000
 00071,-0.00000080,0.,-0.00000188,0.00000380,0.,0.00000119,0.00000232,0
 .,0.00000360,0.00000187,0.,0.00000433,-0.00000298,0.,0.01677906,-0.018
 46586,0.,-0.00402711,-0.00306727,0.,-0.00091538,0.00008980,0.,-0.00067
 193,0.00164284,0.,-0.00307275,0.00443482,0.,0.12582158,-0.26897557,0.,
 -0.00026142,0.00181443,0.,0.00000092,0.00000043,0.,0.00001746,0.000040
 00,0.,0.00000345,0.00000161,0.,-0.00002613,0.00002757,0.,0.00001051,0.
 00000084,0.,-0.00000361,0.00000200,0.,0.00000192,-0.00000055,0.,-0.000
 05052,0.00001795,0.,-0.00020341,-0.00041807,0.,0.00000034,-0.00000157,
 0.,0.00000225,0.00000024,0.,0.00000138,0.00000161,0.,-0.00000281,-0.00
 000178,0.,0.00011710,-0.00003819,0.,-0.00018261,0.00005280,0.,0.000208
 20,0.00096917,0.,-0.13729086,0.28211667,0.,0.,-0.00057328,0.,0.,0.0001
 5242,0.,0.,-0.00001147,0.,0.,-0.00000920,0.,0.,0.00000762,0.,0.,-0.000
 01300,0.,0.,-0.00000532,0.,0.,-0.00016718,0.,0.,-0.00008167,0.,0.,0.00
 002951,0.,0.,-0.00004470,0.,0.,0.00008135,0.,0.,-0.00000121,0.,0.,0.00
 001850,0.,0.,-0.00000999,0.,0.,-0.00000004,0.,0.,-0.00278611,0.,0.,-0.
 00004864,0.,0.,-0.00022994,0.,0.,0.00016809,0.,0.,-0.00000295,0.,0.,0.
 00000128,0.,0.,-0.00000133,0.,0.,-0.00000024,0.,0.,-0.00000131,0.,0.,0
 .00000267,0.,0.,0.00273190,0.,0.,0.00620629,0.,0.,-0.00097605,0.,0.,0.
 00876958,0.,0.,0.00347679,0.,0.,-0.03642570,0.,0.,0.00191327,0.,0.,0.0
 0000283,0.,0.,0.00000646,0.,0.,0.00000270,0.,0.,0.00004415,0.,0.,-0.00
 000584,0.,0.,0.00000584,0.,0.,0.00000088,0.,0.,0.00004073,0.,0.,0.0000
 4588,0.,0.,0.00000073,0.,0.,0.00000053,0.,0.,0.00000066,0.,0.,-0.00000
 076,0.,0.,-0.00111247,0.,0.,-0.00001510,0.,0.,-0.00465524,0.,0.,0.0234
 6805\\-0.00000086,-0.00000203,0.,0.00000070,0.00000145,0.,-0.00000127,
 0.00000116,0.,-0.00000058,-0.00000087,0.,0.00000137,-0.00000063,0.,0.0
 0000084,0.00000205,0.,-0.00000152,0.00000097,0.,-0.00000137,0.00000064
 ,0.,0.00000127,-0.00000116,0.,0.00000060,0.00000089,0.,-0.00000070,-0.
 00000145,0.,0.00000154,-0.00000098,0.,-0.00000047,-0.00000029,0.,0.000
 00176,-0.00000170,0.,0.00000011,0.00000091,0.,-0.00000024,0.00000109,0
 .,0.00000045,0.00000027,0.,-0.00000178,0.00000169,0.,-0.00000013,-0.00
 000090,0.,0.00000024,-0.00000108,0.,0.00000084,-0.00000097,0.,-0.00000
 125,0.00000099,0.,-0.00000049,0.00000041,0.,0.00000077,-0.00000069,0.,
 0.00000081,0.00000022,0.,0.00000165,-0.00000156,0.,-0.00000084,0.00000
 097,0.,0.00000126,-0.00000100,0.,0.00000049,-0.00000041,0.,-0.00000078
 ,0.00000069,0.,-0.00000081,-0.00000023,0.,-0.00000163,0.00000158,0.,0.
 00000270,0.00000112,0.,0.00000034,0.00000014,0.,0.00000549,-0.00000046
 ,0.,-0.00000271,-0.00000113,0.,-0.00000034,-0.00000014,0.,-0.00000547,
 0.00000046,0.,0.00000310,-0.00000051,0.,0.00000020,-0.00000014,0.,-0.0
 0000312,0.00000050,0.,-0.00000020,0.00000014,0.,-0.00000019,-0.0000004
 8,0.,0.00000032,-0.00000028,0.,0.00000010,-0.00000008,0.,-0.00000207,0
 .00000055,0.,0.00000019,0.00000048,0.,-0.00000032,0.00000028,0.,-0.000
 00010,0.00000007,0.,0.00000208,-0.00000056,0.\\\@


 BLACK HOLES SUCK.
 Job cpu time:       4 days 14 hours  7 minutes 59.2 seconds.
 File lengths (MBytes):  RWF=   4683 Int=      0 D2E=      0 Chk=     87 Scr=      1
 Normal termination of Gaussian 09 at Sat Jul 27 23:11:14 2019.
