 Entering Gaussian System, Link 0=g09
 Initial command:
 /home/minenky/programs//g09/l1.exe "/local/scratch/minenky/m1_00_115-07-10_C3H6_wB97XD/Gau-178439.inp" -scrdir="/local/scratch/minenky/m1_00_115-07-10_C3H6_wB97XD/"
 Entering Link 1 = /home/minenky/programs//g09/l1.exe PID=    178452.
  
 Copyright (c) 1988,1990,1992,1993,1995,1998,2003,2009,2013,
            Gaussian, Inc.  All Rights Reserved.
  
 This is part of the Gaussian(R) 09 program.  It is based on
 the Gaussian(R) 03 system (copyright 2003, Gaussian, Inc.),
 the Gaussian(R) 98 system (copyright 1998, Gaussian, Inc.),
 the Gaussian(R) 94 system (copyright 1995, Gaussian, Inc.),
 the Gaussian 92(TM) system (copyright 1992, Gaussian, Inc.),
 the Gaussian 90(TM) system (copyright 1990, Gaussian, Inc.),
 the Gaussian 88(TM) system (copyright 1988, Gaussian, Inc.),
 the Gaussian 86(TM) system (copyright 1986, Carnegie Mellon
 University), and the Gaussian 82(TM) system (copyright 1983,
 Carnegie Mellon University). Gaussian is a federally registered
 trademark of Gaussian, Inc.
  
 This software contains proprietary and confidential information,
 including trade secrets, belonging to Gaussian, Inc.
  
 This software is provided under written license and may be
 used, copied, transmitted, or stored only in accord with that
 written license.
  
 The following legend is applicable only to US Government
 contracts under FAR:
  
                    RESTRICTED RIGHTS LEGEND
  
 Use, reproduction and disclosure by the US Government is
 subject to restrictions as set forth in subparagraphs (a)
 and (c) of the Commercial Computer Software - Restricted
 Rights clause in FAR 52.227-19.
  
 Gaussian, Inc.
 340 Quinnipiac St., Bldg. 40, Wallingford CT 06492
  
  
 ---------------------------------------------------------------
 Warning -- This program may not be used in any manner that
 competes with the business of Gaussian, Inc. or will provide
 assistance to any competitor of Gaussian, Inc.  The licensee
 of this program is prohibited from giving any competitor of
 Gaussian, Inc. access to this program.  By using this program,
 the user acknowledges that Gaussian, Inc. is engaged in the
 business of creating and licensing software in the field of
 computational chemistry and represents and warrants to the
 licensee that it is not a competitor of Gaussian, Inc. and that
 it will not use this program in any manner prohibited above.
 ---------------------------------------------------------------
  

 Cite this work as:
 Gaussian 09, Revision D.01,
 M. J. Frisch, G. W. Trucks, H. B. Schlegel, G. E. Scuseria, 
 M. A. Robb, J. R. Cheeseman, G. Scalmani, V. Barone, B. Mennucci, 
 G. A. Petersson, H. Nakatsuji, M. Caricato, X. Li, H. P. Hratchian, 
 A. F. Izmaylov, J. Bloino, G. Zheng, J. L. Sonnenberg, M. Hada, 
 M. Ehara, K. Toyota, R. Fukuda, J. Hasegawa, M. Ishida, T. Nakajima, 
 Y. Honda, O. Kitao, H. Nakai, T. Vreven, J. A. Montgomery, Jr., 
 J. E. Peralta, F. Ogliaro, M. Bearpark, J. J. Heyd, E. Brothers, 
 K. N. Kudin, V. N. Staroverov, T. Keith, R. Kobayashi, J. Normand, 
 K. Raghavachari, A. Rendell, J. C. Burant, S. S. Iyengar, J. Tomasi, 
 M. Cossi, N. Rega, J. M. Millam, M. Klene, J. E. Knox, J. B. Cross, 
 V. Bakken, C. Adamo, J. Jaramillo, R. Gomperts, R. E. Stratmann, 
 O. Yazyev, A. J. Austin, R. Cammi, C. Pomelli, J. W. Ochterski, 
 R. L. Martin, K. Morokuma, V. G. Zakrzewski, G. A. Voth, 
 P. Salvador, J. J. Dannenberg, S. Dapprich, A. D. Daniels, 
 O. Farkas, J. B. Foresman, J. V. Ortiz, J. Cioslowski, 
 and D. J. Fox, Gaussian, Inc., Wallingford CT, 2013.
 
 ******************************************
 Gaussian 09:  AM64L-G09RevD.01 24-Apr-2013
                 9-Jul-2021 
 ******************************************
 %Mem=32000MB
 %NProcShared=16
 Will use up to   16 processors via shared memory.
 %Chk=m1_00_115-07-10_C3H6_wB97XD
 ----------------------------------------------------------------------
 #P wB97XD/def2tzvp opt=(tight) freq integral(Grid=ultrafine) # SCF(Max
 Cycle=380) 5d 7f GFPrint
 ----------------------------------------------------------------------
 1/7=10,14=-1,18=20,19=15,26=4,38=1/1,3;
 2/9=110,12=2,17=6,18=5,40=1/2;
 3/5=44,7=101,8=11,11=2,16=1,24=100,25=1,30=1,71=1,74=-58,75=-5/1,2,3;
 4//1;
 5/5=2,7=380,38=5/2;
 6/7=2,8=2,9=2,10=2,28=1/1;
 7//1,2,3,16;
 1/7=10,14=-1,18=20,19=15,26=4/3(2);
 2/9=110/2;
 99//99;
 2/9=110/2;
 3/5=44,7=101,8=11,11=2,16=1,25=1,30=1,71=1,74=-58,75=-5/1,2,3;
 4/5=5,16=3,69=1/1;
 5/5=2,7=380,38=5/2;
 7//1,2,3,16;
 1/7=10,14=-1,18=20,19=15,26=4/3(-5);
 2/9=110/2;
 6/7=2,8=2,9=2,10=2,19=2,28=1/1;
 99/9=1/99;
 Leave Link    1 at Fri Jul  9 19:19:35 2021, MaxMem=  4194304000 cpu:         1.4
 (Enter /home/minenky/programs//g09/l101.exe)
 ---------------------------------------
 The PBEPBE optimization and frequencies
 ---------------------------------------
 Symbolic Z-matrix:
 Charge =  0 Multiplicity = 1
 C                     0.        0.47263   0. 
 C                     1.28681   0.14967   0. 
 H                     2.06218   0.90492   0. 
 H                     1.6112   -0.8852    0. 
 H                    -0.27606   1.52409   0. 
 C                    -1.13351  -0.50322   0. 
 H                    -0.77365  -1.533     0. 
 H                    -1.77174  -0.36263   0.87721 
 H                    -1.77174  -0.36263  -0.87721 
 
 NAtoms=      9 NQM=        9 NQMF=       0 NMMI=      0 NMMIF=      0
                NMic=       0 NMicF=      0.
                    Isotopes and Nuclear Properties:
 (Nuclear quadrupole moments (NQMom) in fm**2, nuclear magnetic moments (NMagM)
  in nuclear magnetons)

  Atom         1           2           3           4           5           6           7           8           9
 IAtWgt=          12          12           1           1           1          12           1           1           1
 AtmWgt=  12.0000000  12.0000000   1.0078250   1.0078250   1.0078250  12.0000000   1.0078250   1.0078250   1.0078250
 NucSpn=           0           0           1           1           1           0           1           1           1
 AtZEff=   0.0000000   0.0000000   0.0000000   0.0000000   0.0000000   0.0000000   0.0000000   0.0000000   0.0000000
 NQMom=    0.0000000   0.0000000   0.0000000   0.0000000   0.0000000   0.0000000   0.0000000   0.0000000   0.0000000
 NMagM=    0.0000000   0.0000000   2.7928460   2.7928460   2.7928460   0.0000000   2.7928460   2.7928460   2.7928460
 AtZNuc=   6.0000000   6.0000000   1.0000000   1.0000000   1.0000000   6.0000000   1.0000000   1.0000000   1.0000000
 Leave Link  101 at Fri Jul  9 19:19:36 2021, MaxMem=  4194304000 cpu:         2.9
 (Enter /home/minenky/programs//g09/l103.exe)

 GradGradGradGradGradGradGradGradGradGradGradGradGradGradGradGradGradGrad
 Berny optimization.
 Initialization pass.
                           ----------------------------
                           !    Initial Parameters    !
                           ! (Angstroms and Degrees)  !
 --------------------------                            --------------------------
 ! Name  Definition              Value          Derivative Info.                !
 --------------------------------------------------------------------------------
 ! R1    R(1,2)                  1.3267         estimate D2E/DX2                !
 ! R2    R(1,5)                  1.0871         estimate D2E/DX2                !
 ! R3    R(1,6)                  1.4957         estimate D2E/DX2                !
 ! R4    R(2,3)                  1.0824         estimate D2E/DX2                !
 ! R5    R(2,4)                  1.0845         estimate D2E/DX2                !
 ! R6    R(6,7)                  1.0908         estimate D2E/DX2                !
 ! R7    R(6,8)                  1.0939         estimate D2E/DX2                !
 ! R8    R(6,9)                  1.0939         estimate D2E/DX2                !
 ! A1    A(2,1,5)              118.7996         estimate D2E/DX2                !
 ! A2    A(2,1,6)              125.186          estimate D2E/DX2                !
 ! A3    A(5,1,6)              116.0144         estimate D2E/DX2                !
 ! A4    A(1,2,3)              121.6644         estimate D2E/DX2                !
 ! A5    A(1,2,4)              121.4923         estimate D2E/DX2                !
 ! A6    A(3,2,4)              116.8433         estimate D2E/DX2                !
 ! A7    A(1,6,7)              111.4632         estimate D2E/DX2                !
 ! A8    A(1,6,8)              110.9966         estimate D2E/DX2                !
 ! A9    A(1,6,9)              110.9966         estimate D2E/DX2                !
 ! A10   A(7,6,8)              108.2886         estimate D2E/DX2                !
 ! A11   A(7,6,9)              108.2886         estimate D2E/DX2                !
 ! A12   A(8,6,9)              106.6265         estimate D2E/DX2                !
 ! D1    D(5,1,2,3)              0.0            estimate D2E/DX2                !
 ! D2    D(5,1,2,4)            180.0            estimate D2E/DX2                !
 ! D3    D(6,1,2,3)            180.0            estimate D2E/DX2                !
 ! D4    D(6,1,2,4)              0.0            estimate D2E/DX2                !
 ! D5    D(2,1,6,7)              0.0            estimate D2E/DX2                !
 ! D6    D(2,1,6,8)            120.8015         estimate D2E/DX2                !
 ! D7    D(2,1,6,9)           -120.8015         estimate D2E/DX2                !
 ! D8    D(5,1,6,7)            180.0            estimate D2E/DX2                !
 ! D9    D(5,1,6,8)            -59.1985         estimate D2E/DX2                !
 ! D10   D(5,1,6,9)             59.1985         estimate D2E/DX2                !
 --------------------------------------------------------------------------------
 Trust Radius=3.00D-01 FncErr=1.00D-07 GrdErr=1.00D-06
 Number of steps in this run=     40 maximum allowed number of steps=    100.
 GradGradGradGradGradGradGradGradGradGradGradGradGradGradGradGradGradGrad

 Leave Link  103 at Fri Jul  9 19:19:36 2021, MaxMem=  4194304000 cpu:         0.0
 (Enter /home/minenky/programs//g09/l202.exe)
                          Input orientation:                          
 ---------------------------------------------------------------------
 Center     Atomic      Atomic             Coordinates (Angstroms)
 Number     Number       Type             X           Y           Z
 ---------------------------------------------------------------------
      1          6           0        0.000000    0.472625    0.000000
      2          6           0        1.286814    0.149673    0.000000
      3          1           0        2.062176    0.904919    0.000000
      4          1           0        1.611198   -0.885199    0.000000
      5          1           0       -0.276063    1.524090    0.000000
      6          6           0       -1.133510   -0.503222    0.000000
      7          1           0       -0.773650   -1.533000    0.000000
      8          1           0       -1.771744   -0.362631    0.877209
      9          1           0       -1.771744   -0.362631   -0.877209
 ---------------------------------------------------------------------
                    Distance matrix (angstroms):
                    1          2          3          4          5
     1  C    0.000000
     2  C    1.326721   0.000000
     3  H    2.107000   1.082397   0.000000
     4  H    2.107047   1.084521   1.846051   0.000000
     5  H    1.087101   2.081251   2.418829   3.060462   0.000000
     6  C    1.495701   2.506839   3.492173   2.771160   2.201184
     7  H    2.149666   2.660244   3.739700   2.471264   3.097320
     8  H    2.146212   3.222845   4.132205   3.533676   2.562474
     9  H    2.146212   3.222845   4.132205   3.533676   2.562474
                    6          7          8          9
     6  C    0.000000
     7  H    1.090845   0.000000
     8  H    1.093894   1.770720   0.000000
     9  H    1.093894   1.770720   1.754418   0.000000
 Stoichiometry    C3H6
 Framework group  CS[SG(C3H4),X(H2)]
 Deg. of freedom    14
 Full point group                 CS      NOp   2
 Largest Abelian subgroup         CS      NOp   2
 Largest concise Abelian subgroup CS      NOp   2
                         Standard orientation:                         
 ---------------------------------------------------------------------
 Center     Atomic      Atomic             Coordinates (Angstroms)
 Number     Number       Type             X           Y           Z
 ---------------------------------------------------------------------
      1          6           0        0.000000    0.472625    0.000000
      2          6           0        1.286814    0.149673    0.000000
      3          1           0        2.062176    0.904919    0.000000
      4          1           0        1.611198   -0.885199    0.000000
      5          1           0       -0.276063    1.524090    0.000000
      6          6           0       -1.133510   -0.503222    0.000000
      7          1           0       -0.773649   -1.533000    0.000000
      8          1           0       -1.771744   -0.362632    0.877209
      9          1           0       -1.771744   -0.362632   -0.877209
 ---------------------------------------------------------------------
 Rotational constants (GHZ):     47.1261042      9.3377310      8.1850504
 Leave Link  202 at Fri Jul  9 19:19:36 2021, MaxMem=  4194304000 cpu:         2.8
 (Enter /home/minenky/programs//g09/l301.exe)
 Standard basis: def2TZVP (5D, 7F)
 ======================================================================================================
                                       Pseudopotential Parameters
 ======================================================================================================
  Center     Atomic      Valence      Angular      Power
  Number     Number     Electrons     Momentum     of R      Exponent        Coefficient   SO-Coeffient
 ======================================================================================================
    1          6
                                   No pseudopotential on this center.
    2          6
                                   No pseudopotential on this center.
    3          1
                                   No pseudopotential on this center.
    4          1
                                   No pseudopotential on this center.
    5          1
                                   No pseudopotential on this center.
    6          6
                                   No pseudopotential on this center.
    7          1
                                   No pseudopotential on this center.
    8          1
                                   No pseudopotential on this center.
    9          1
                                   No pseudopotential on this center.
 ======================================================================================================
 Ernie: Thresh=  0.10000D-02 Tol=  0.10000D-05 Strict=F.
 AO basis set (Overlap normalization):
 Atom C1       Shell     1 S   6     bf    1 -     1          0.000000000000          0.893131498601          0.000000000000
      0.1357534968D+05  0.6064550360D-03
      0.2035233368D+04  0.4697908888D-02
      0.4632256236D+03  0.2433247765D-01
      0.1312001960D+03  0.9739996831D-01
      0.4285301589D+02  0.3019558425D+00
      0.1558418577D+02  0.6623360914D+00
 Atom C1       Shell     2 S   2     bf    2 -     2          0.000000000000          0.893131498601          0.000000000000
      0.6206713851D+01  0.6559530854D+00
      0.2576489653D+01  0.3758563329D+00
 Atom C1       Shell     3 S   1     bf    3 -     3          0.000000000000          0.893131498601          0.000000000000
      0.5769633942D+00  0.1000000000D+01
 Atom C1       Shell     4 S   1     bf    4 -     4          0.000000000000          0.893131498601          0.000000000000
      0.2297283136D+00  0.1000000000D+01
 Atom C1       Shell     5 S   1     bf    5 -     5          0.000000000000          0.893131498601          0.000000000000
      0.9516444003D-01  0.1000000000D+01
 Atom C1       Shell     6 P   4     bf    6 -     8          0.000000000000          0.893131498601          0.000000000000
      0.3469723224D+02  0.1132722000D-01
      0.7958262283D+01  0.7616965920D-01
      0.2378082688D+01  0.3019225220D+00
      0.8143320818D+00  0.7278502735D+00
 Atom C1       Shell     7 P   1     bf    9 -    11          0.000000000000          0.893131498601          0.000000000000
      0.2888754725D+00  0.1000000000D+01
 Atom C1       Shell     8 P   1     bf   12 -    14          0.000000000000          0.893131498601          0.000000000000
      0.1005682367D+00  0.1000000000D+01
 Atom C1       Shell     9 D   1     bf   15 -    19          0.000000000000          0.893131498601          0.000000000000
      0.1097000000D+01  0.1000000000D+01
 Atom C1       Shell    10 D   1     bf   20 -    24          0.000000000000          0.893131498601          0.000000000000
      0.3180000000D+00  0.1000000000D+01
 Atom C1       Shell    11 F   1     bf   25 -    31          0.000000000000          0.893131498601          0.000000000000
      0.7610000000D+00  0.1000000000D+01
 Atom C2       Shell    12 S   6     bf   32 -    32          2.431726205373          0.282841307677          0.000000000000
      0.1357534968D+05  0.6064550360D-03
      0.2035233368D+04  0.4697908888D-02
      0.4632256236D+03  0.2433247765D-01
      0.1312001960D+03  0.9739996831D-01
      0.4285301589D+02  0.3019558425D+00
      0.1558418577D+02  0.6623360914D+00
 Atom C2       Shell    13 S   2     bf   33 -    33          2.431726205373          0.282841307677          0.000000000000
      0.6206713851D+01  0.6559530854D+00
      0.2576489653D+01  0.3758563329D+00
 Atom C2       Shell    14 S   1     bf   34 -    34          2.431726205373          0.282841307677          0.000000000000
      0.5769633942D+00  0.1000000000D+01
 Atom C2       Shell    15 S   1     bf   35 -    35          2.431726205373          0.282841307677          0.000000000000
      0.2297283136D+00  0.1000000000D+01
 Atom C2       Shell    16 S   1     bf   36 -    36          2.431726205373          0.282841307677          0.000000000000
      0.9516444003D-01  0.1000000000D+01
 Atom C2       Shell    17 P   4     bf   37 -    39          2.431726205373          0.282841307677          0.000000000000
      0.3469723224D+02  0.1132722000D-01
      0.7958262283D+01  0.7616965920D-01
      0.2378082688D+01  0.3019225220D+00
      0.8143320818D+00  0.7278502735D+00
 Atom C2       Shell    18 P   1     bf   40 -    42          2.431726205373          0.282841307677          0.000000000000
      0.2888754725D+00  0.1000000000D+01
 Atom C2       Shell    19 P   1     bf   43 -    45          2.431726205373          0.282841307677          0.000000000000
      0.1005682367D+00  0.1000000000D+01
 Atom C2       Shell    20 D   1     bf   46 -    50          2.431726205373          0.282841307677          0.000000000000
      0.1097000000D+01  0.1000000000D+01
 Atom C2       Shell    21 D   1     bf   51 -    55          2.431726205373          0.282841307677          0.000000000000
      0.3180000000D+00  0.1000000000D+01
 Atom C2       Shell    22 F   1     bf   56 -    62          2.431726205373          0.282841307677          0.000000000000
      0.7610000000D+00  0.1000000000D+01
 Atom H3       Shell    23 S   3     bf   63 -    63          3.896947661751          1.710049798157          0.000000000000
      0.3406134100D+02  0.2543930721D-01
      0.5123574600D+01  0.1900859489D+00
      0.1164662600D+01  0.8524411301D+00
 Atom H3       Shell    24 S   1     bf   64 -    64          3.896947661751          1.710049798157          0.000000000000
      0.3272304100D+00  0.1000000000D+01
 Atom H3       Shell    25 S   1     bf   65 -    65          3.896947661751          1.710049798157          0.000000000000
      0.1030724100D+00  0.1000000000D+01
 Atom H3       Shell    26 P   1     bf   66 -    68          3.896947661751          1.710049798157          0.000000000000
      0.8000000000D+00  0.1000000000D+01
 Atom H4       Shell    27 S   3     bf   69 -    69          3.044723644487         -1.672783192789          0.000000000000
      0.3406134100D+02  0.2543930721D-01
      0.5123574600D+01  0.1900859489D+00
      0.1164662600D+01  0.8524411301D+00
 Atom H4       Shell    28 S   1     bf   70 -    70          3.044723644487         -1.672783192789          0.000000000000
      0.3272304100D+00  0.1000000000D+01
 Atom H4       Shell    29 S   1     bf   71 -    71          3.044723644487         -1.672783192789          0.000000000000
      0.1030724100D+00  0.1000000000D+01
 Atom H4       Shell    30 P   1     bf   72 -    74          3.044723644487         -1.672783192789          0.000000000000
      0.8000000000D+00  0.1000000000D+01
 Atom H5       Shell    31 S   3     bf   75 -    75         -0.521683990940          2.880112248940          0.000000000000
      0.3406134100D+02  0.2543930721D-01
      0.5123574600D+01  0.1900859489D+00
      0.1164662600D+01  0.8524411301D+00
 Atom H5       Shell    32 S   1     bf   76 -    76         -0.521683990940          2.880112248940          0.000000000000
      0.3272304100D+00  0.1000000000D+01
 Atom H5       Shell    33 S   1     bf   77 -    77         -0.521683990940          2.880112248940          0.000000000000
      0.1030724100D+00  0.1000000000D+01
 Atom H5       Shell    34 P   1     bf   78 -    80         -0.521683990940          2.880112248940          0.000000000000
      0.8000000000D+00  0.1000000000D+01
 Atom C6       Shell    35 S   6     bf   81 -    81         -2.142022981163         -0.950952645520          0.000000000000
      0.1357534968D+05  0.6064550360D-03
      0.2035233368D+04  0.4697908888D-02
      0.4632256236D+03  0.2433247765D-01
      0.1312001960D+03  0.9739996831D-01
      0.4285301589D+02  0.3019558425D+00
      0.1558418577D+02  0.6623360914D+00
 Atom C6       Shell    36 S   2     bf   82 -    82         -2.142022981163         -0.950952645520          0.000000000000
      0.6206713851D+01  0.6559530854D+00
      0.2576489653D+01  0.3758563329D+00
 Atom C6       Shell    37 S   1     bf   83 -    83         -2.142022981163         -0.950952645520          0.000000000000
      0.5769633942D+00  0.1000000000D+01
 Atom C6       Shell    38 S   1     bf   84 -    84         -2.142022981163         -0.950952645520          0.000000000000
      0.2297283136D+00  0.1000000000D+01
 Atom C6       Shell    39 S   1     bf   85 -    85         -2.142022981163         -0.950952645520          0.000000000000
      0.9516444003D-01  0.1000000000D+01
 Atom C6       Shell    40 P   4     bf   86 -    88         -2.142022981163         -0.950952645520          0.000000000000
      0.3469723224D+02  0.1132722000D-01
      0.7958262283D+01  0.7616965920D-01
      0.2378082688D+01  0.3019225220D+00
      0.8143320818D+00  0.7278502735D+00
 Atom C6       Shell    41 P   1     bf   89 -    91         -2.142022981163         -0.950952645520          0.000000000000
      0.2888754725D+00  0.1000000000D+01
 Atom C6       Shell    42 P   1     bf   92 -    94         -2.142022981163         -0.950952645520          0.000000000000
      0.1005682367D+00  0.1000000000D+01
 Atom C6       Shell    43 D   1     bf   95 -    99         -2.142022981163         -0.950952645520          0.000000000000
      0.1097000000D+01  0.1000000000D+01
 Atom C6       Shell    44 D   1     bf  100 -   104         -2.142022981163         -0.950952645520          0.000000000000
      0.3180000000D+00  0.1000000000D+01
 Atom C6       Shell    45 F   1     bf  105 -   111         -2.142022981163         -0.950952645520          0.000000000000
      0.7610000000D+00  0.1000000000D+01
 Atom H7       Shell    46 S   3     bf  112 -   112         -1.461985620305         -2.896950863335          0.000000000000
      0.3406134100D+02  0.2543930721D-01
      0.5123574600D+01  0.1900859489D+00
      0.1164662600D+01  0.8524411301D+00
 Atom H7       Shell    47 S   1     bf  113 -   113         -1.461985620305         -2.896950863335          0.000000000000
      0.3272304100D+00  0.1000000000D+01
 Atom H7       Shell    48 S   1     bf  114 -   114         -1.461985620305         -2.896950863335          0.000000000000
      0.1030724100D+00  0.1000000000D+01
 Atom H7       Shell    49 P   1     bf  115 -   117         -1.461985620305         -2.896950863335          0.000000000000
      0.8000000000D+00  0.1000000000D+01
 Atom H8       Shell    50 S   3     bf  118 -   118         -3.348110520126         -0.685274477758          1.657684771302
      0.3406134100D+02  0.2543930721D-01
      0.5123574600D+01  0.1900859489D+00
      0.1164662600D+01  0.8524411301D+00
 Atom H8       Shell    51 S   1     bf  119 -   119         -3.348110520126         -0.685274477758          1.657684771302
      0.3272304100D+00  0.1000000000D+01
 Atom H8       Shell    52 S   1     bf  120 -   120         -3.348110520126         -0.685274477758          1.657684771302
      0.1030724100D+00  0.1000000000D+01
 Atom H8       Shell    53 P   1     bf  121 -   123         -3.348110520126         -0.685274477758          1.657684771302
      0.8000000000D+00  0.1000000000D+01
 Atom H9       Shell    54 S   3     bf  124 -   124         -3.348110520126         -0.685274477758         -1.657684771302
      0.3406134100D+02  0.2543930721D-01
      0.5123574600D+01  0.1900859489D+00
      0.1164662600D+01  0.8524411301D+00
 Atom H9       Shell    55 S   1     bf  125 -   125         -3.348110520126         -0.685274477758         -1.657684771302
      0.3272304100D+00  0.1000000000D+01
 Atom H9       Shell    56 S   1     bf  126 -   126         -3.348110520126         -0.685274477758         -1.657684771302
      0.1030724100D+00  0.1000000000D+01
 Atom H9       Shell    57 P   1     bf  127 -   129         -3.348110520126         -0.685274477758         -1.657684771302
      0.8000000000D+00  0.1000000000D+01
 There are   101 symmetry adapted cartesian basis functions of A'  symmetry.
 There are    43 symmetry adapted cartesian basis functions of A"  symmetry.
 There are    89 symmetry adapted basis functions of A'  symmetry.
 There are    40 symmetry adapted basis functions of A"  symmetry.
   129 basis functions,   201 primitive gaussians,   144 cartesian basis functions
    12 alpha electrons       12 beta electrons
       nuclear repulsion energy        70.9016311375 Hartrees.
 IExCor= 4639 DFT=T Ex+Corr=wB97XD ExCW=0 ScaHFX=  1.000000
 ScaDFX=  1.000000  1.000000  1.000000  1.000000 ScalE2=  1.000000  1.000000
 IRadAn=      5 IRanWt=     -1 IRanGd=            0 ICorTp=0 IEmpDi=121
  HFx wShort=  0.000000 wLong=  0.200000 cFull=  0.222036 cShort=  0.000000 cLong=  0.777964
  DFx wShort=  0.000000 wLong=  0.200000 cFull=  0.000000 cShort=  0.000000 cLong=  1.000000
 NAtoms=    9 NActive=    9 NUniq=    8 SFac= 1.27D+00 NAtFMM=   60 NAOKFM=F Big=F
 Integral buffers will be    131072 words long.
 Raffenetti 2 integral format.
 Two-electron integral symmetry is turned on.
 R6Disp:  Grimme-D2 Dispersion energy=       -0.0023130998 Hartrees.
 Nuclear repulsion after empirical dispersion term =       70.8993180377 Hartrees.
 Leave Link  301 at Fri Jul  9 19:19:36 2021, MaxMem=  4194304000 cpu:         1.0
 (Enter /home/minenky/programs//g09/l302.exe)
 NPDir=0 NMtPBC=     1 NCelOv=     1 NCel=       1 NClECP=     1 NCelD=      1
         NCelK=      1 NCelE2=     1 NClLst=     1 CellRange=     0.0.
 One-electron integrals computed using PRISM.
 One-electron integral symmetry used in STVInt
   2 Symmetry operations used in ECPInt.
 ECPInt:  NShTT=    1653 NPrTT=    4740 LenC2=    1652 LenP2D=    4221.
 LDataN:  DoStor=T MaxTD1= 6 Len=  172
 NBasis=   129 RedAO= T EigKep=  2.44D-04  NBF=    89    40
 NBsUse=   129 1.00D-06 EigRej= -1.00D+00 NBFU=    89    40
 Precomputing XC quadrature grid using
 IXCGrd= 4 IRadAn=           5 IRanWt=          -1 IRanGd=           0 AccXCQ= 0.00D+00.
 Generated NRdTot=       0 NPtTot=           0 NUsed=           0 NTot=          32
 NSgBfM=   144   144   144   144   144 MxSgAt=     9 MxSgA2=     9.
 Leave Link  302 at Fri Jul  9 19:19:38 2021, MaxMem=  4194304000 cpu:        16.0
 (Enter /home/minenky/programs//g09/l303.exe)
 DipDrv:  MaxL=1.
 Leave Link  303 at Fri Jul  9 19:19:38 2021, MaxMem=  4194304000 cpu:         3.1
 (Enter /home/minenky/programs//g09/l401.exe)
 ExpMin= 9.52D-02 ExpMax= 1.36D+04 ExpMxC= 4.63D+02 IAcc=3 IRadAn=         5 AccDes= 0.00D+00
 Harris functional with IExCor= 4639 and IRadAn=       5 diagonalized for initial guess.
 HarFok:  IExCor= 4639 AccDes= 0.00D+00 IRadAn=         5 IDoV= 1 UseB2=F ITyADJ=14
 ICtDFT=  3500011 ScaDFX=  1.000000  1.000000  1.000000  1.000000
 FoFCou: FMM=F IPFlag=           0 FMFlag=      100000 FMFlg1=           0
         NFxFlg=           0 DoJE=T BraDBF=F KetDBF=T FulRan=T
         wScrn=  0.000000 ICntrl=     500 IOpCl=  0 I1Cent=   200000004 NGrid=           0
         NMat0=    1 NMatS0=      1 NMatT0=    0 NMatD0=    1 NMtDS0=    0 NMtDT0=    0
 Petite list used in FoFCou.
 Harris En= -112.066146756020    
 JPrj=0 DoOrth=F DoCkMO=F.
 Initial guess orbital symmetries:
       Occupied  (A') (A') (A') (A') (A') (A') (A') (A') (A") (A')
                 (A') (A")
       Virtual   (A") (A') (A') (A') (A") (A') (A') (A') (A") (A')
                 (A') (A") (A') (A') (A') (A") (A') (A') (A') (A')
                 (A") (A') (A') (A') (A") (A') (A') (A") (A') (A')
                 (A") (A') (A") (A') (A') (A') (A') (A") (A') (A")
                 (A') (A') (A') (A") (A') (A") (A') (A") (A') (A')
                 (A") (A') (A') (A") (A") (A') (A') (A') (A") (A')
                 (A') (A") (A') (A") (A') (A') (A") (A') (A') (A")
                 (A') (A") (A') (A') (A') (A') (A") (A') (A') (A")
                 (A') (A") (A') (A') (A") (A') (A") (A") (A') (A")
                 (A') (A") (A') (A') (A") (A') (A') (A') (A") (A")
                 (A') (A') (A") (A') (A') (A') (A") (A') (A") (A')
                 (A') (A') (A') (A') (A') (A') (A')
 The electronic state of the initial guess is 1-A'.
 Leave Link  401 at Fri Jul  9 19:19:40 2021, MaxMem=  4194304000 cpu:        14.0
 (Enter /home/minenky/programs//g09/l502.exe)
 Closed shell SCF:
 Using DIIS extrapolation, IDIIS=  1040.
 Integral symmetry usage will be decided dynamically.
 Keep R1 ints in memory in symmetry-blocked form, NReq=106511320.
 IVT=      213596 IEndB=      213596 NGot=  4194304000 MDV=  4176090725
 LenX=  4176090725 LenY=  4176069548
 Requested convergence on RMS density matrix=1.00D-08 within 380 cycles.
 Requested convergence on MAX density matrix=1.00D-06.
 Requested convergence on             energy=1.00D-06.
 No special actions if energy rises.
 FoFCou: FMM=F IPFlag=           0 FMFlag=           0 FMFlg1=           0
         NFxFlg=           0 DoJE=F BraDBF=F KetDBF=F FulRan=T
         wScrn=  0.000000 ICntrl=     600 IOpCl=  0 I1Cent=           0 NGrid=           0
         NMat0=    1 NMatS0=   8385 NMatT0=    0 NMatD0=    1 NMtDS0=    0 NMtDT0=    0
 Petite list used in FoFCou.
 Integral accuracy reduced to 1.0D-05 until final iterations.

 Cycle   1  Pass 0  IDiag  1:
 E= -117.868241814982    
 DIIS: error= 4.88D-02 at cycle   1 NSaved=   1.
 NSaved= 1 IEnMin= 1 EnMin= -117.868241814982     IErMin= 1 ErrMin= 4.88D-02
 ErrMax= 4.88D-02  0.00D+00 EMaxC= 1.00D-01 BMatC= 2.53D-01 BMatP= 2.53D-01
 IDIUse=3 WtCom= 5.12D-01 WtEn= 4.88D-01
 Coeff-Com:  0.100D+01
 Coeff-En:   0.100D+01
 Coeff:      0.100D+01
 Gap=     0.415 Goal=   None    Shift=    0.000
 GapD=    0.415 DampG=2.000 DampE=0.500 DampFc=1.0000 IDamp=-1.
 RMSDP=1.35D-03 MaxDP=2.84D-02              OVMax= 5.53D-02

 Cycle   2  Pass 0  IDiag  1:
 E= -117.900979931259     Delta-E=       -0.032738116277 Rises=F Damp=F
 DIIS: error= 8.85D-03 at cycle   2 NSaved=   2.
 NSaved= 2 IEnMin= 2 EnMin= -117.900979931259     IErMin= 2 ErrMin= 8.85D-03
 ErrMax= 8.85D-03  0.00D+00 EMaxC= 1.00D-01 BMatC= 9.39D-03 BMatP= 2.53D-01
 IDIUse=3 WtCom= 9.12D-01 WtEn= 8.85D-02
 Coeff-Com:  0.910D-01 0.909D+00
 Coeff-En:   0.000D+00 0.100D+01
 Coeff:      0.829D-01 0.917D+00
 Gap=     0.430 Goal=   None    Shift=    0.000
 RMSDP=7.29D-04 MaxDP=1.88D-02 DE=-3.27D-02 OVMax= 3.79D-02

 Cycle   3  Pass 0  IDiag  1:
 E= -117.906658557309     Delta-E=       -0.005678626050 Rises=F Damp=F
 DIIS: error= 5.06D-03 at cycle   3 NSaved=   3.
 NSaved= 3 IEnMin= 3 EnMin= -117.906658557309     IErMin= 3 ErrMin= 5.06D-03
 ErrMax= 5.06D-03  0.00D+00 EMaxC= 1.00D-01 BMatC= 3.59D-03 BMatP= 9.39D-03
 IDIUse=3 WtCom= 9.49D-01 WtEn= 5.06D-02
 Coeff-Com:  0.232D-01 0.388D+00 0.589D+00
 Coeff-En:   0.000D+00 0.209D+00 0.791D+00
 Coeff:      0.220D-01 0.379D+00 0.599D+00
 Gap=     0.423 Goal=   None    Shift=    0.000
 RMSDP=2.59D-04 MaxDP=7.36D-03 DE=-5.68D-03 OVMax= 1.72D-02

 Cycle   4  Pass 0  IDiag  1:
 E= -117.909954929892     Delta-E=       -0.003296372583 Rises=F Damp=F
 DIIS: error= 6.24D-04 at cycle   4 NSaved=   4.
 NSaved= 4 IEnMin= 4 EnMin= -117.909954929892     IErMin= 4 ErrMin= 6.24D-04
 ErrMax= 6.24D-04  0.00D+00 EMaxC= 1.00D-01 BMatC= 2.67D-05 BMatP= 3.59D-03
 IDIUse=3 WtCom= 9.94D-01 WtEn= 6.24D-03
 Coeff-Com:  0.629D-02 0.104D+00 0.184D+00 0.706D+00
 Coeff-En:   0.000D+00 0.000D+00 0.000D+00 0.100D+01
 Coeff:      0.625D-02 0.104D+00 0.183D+00 0.707D+00
 Gap=     0.423 Goal=   None    Shift=    0.000
 RMSDP=3.67D-05 MaxDP=8.17D-04 DE=-3.30D-03 OVMax= 2.58D-03

 Cycle   5  Pass 0  IDiag  1:
 E= -117.909976135237     Delta-E=       -0.000021205345 Rises=F Damp=F
 DIIS: error= 2.33D-04 at cycle   5 NSaved=   5.
 NSaved= 5 IEnMin= 5 EnMin= -117.909976135237     IErMin= 5 ErrMin= 2.33D-04
 ErrMax= 2.33D-04  0.00D+00 EMaxC= 1.00D-01 BMatC= 5.19D-06 BMatP= 2.67D-05
 IDIUse=3 WtCom= 9.98D-01 WtEn= 2.33D-03
 Coeff-Com: -0.209D-02-0.335D-01-0.381D-01 0.302D+00 0.771D+00
 Coeff-En:   0.000D+00 0.000D+00 0.000D+00 0.425D-01 0.958D+00
 Coeff:     -0.209D-02-0.334D-01-0.380D-01 0.302D+00 0.772D+00
 Gap=     0.423 Goal=   None    Shift=    0.000
 RMSDP=2.02D-05 MaxDP=3.10D-04 DE=-2.12D-05 OVMax= 1.29D-03

 Cycle   6  Pass 0  IDiag  1:
 E= -117.909982019085     Delta-E=       -0.000005883848 Rises=F Damp=F
 DIIS: error= 2.56D-05 at cycle   6 NSaved=   6.
 NSaved= 6 IEnMin= 6 EnMin= -117.909982019085     IErMin= 6 ErrMin= 2.56D-05
 ErrMax= 2.56D-05  0.00D+00 EMaxC= 1.00D-01 BMatC= 7.56D-08 BMatP= 5.19D-06
 IDIUse=1 WtCom= 1.00D+00 WtEn= 0.00D+00
 Coeff-Com: -0.482D-03-0.813D-02-0.111D-01-0.253D-02 0.954D-01 0.927D+00
 Coeff:     -0.482D-03-0.813D-02-0.111D-01-0.253D-02 0.954D-01 0.927D+00
 Gap=     0.423 Goal=   None    Shift=    0.000
 RMSDP=4.72D-06 MaxDP=6.69D-05 DE=-5.88D-06 OVMax= 1.43D-04

 Initial convergence to 1.0D-05 achieved.  Increase integral accuracy.
 Cycle   7  Pass 1  IDiag  1:
 E= -117.910049398585     Delta-E=       -0.000067379499 Rises=F Damp=F
 DIIS: error= 4.31D-05 at cycle   1 NSaved=   1.
 NSaved= 1 IEnMin= 1 EnMin= -117.910049398585     IErMin= 1 ErrMin= 4.31D-05
 ErrMax= 4.31D-05  0.00D+00 EMaxC= 1.00D-01 BMatC= 1.95D-07 BMatP= 1.95D-07
 IDIUse=1 WtCom= 1.00D+00 WtEn= 0.00D+00
 Coeff-Com:  0.100D+01
 Coeff:      0.100D+01
 Gap=     0.423 Goal=   None    Shift=    0.000
 RMSDP=4.72D-06 MaxDP=6.69D-05 DE=-6.74D-05 OVMax= 6.65D-05

 Cycle   8  Pass 1  IDiag  1:
 E= -117.910049520622     Delta-E=       -0.000000122037 Rises=F Damp=F
 DIIS: error= 5.45D-06 at cycle   2 NSaved=   2.
 NSaved= 2 IEnMin= 2 EnMin= -117.910049520622     IErMin= 2 ErrMin= 5.45D-06
 ErrMax= 5.45D-06  0.00D+00 EMaxC= 1.00D-01 BMatC= 4.74D-09 BMatP= 1.95D-07
 IDIUse=1 WtCom= 1.00D+00 WtEn= 0.00D+00
 Coeff-Com: -0.243D-01 0.102D+01
 Coeff:     -0.243D-01 0.102D+01
 Gap=     0.423 Goal=   None    Shift=    0.000
 RMSDP=7.46D-07 MaxDP=1.35D-05 DE=-1.22D-07 OVMax= 4.51D-05

 Cycle   9  Pass 1  IDiag  1:
 E= -117.910049523358     Delta-E=       -0.000000002736 Rises=F Damp=F
 DIIS: error= 5.20D-06 at cycle   3 NSaved=   3.
 NSaved= 3 IEnMin= 3 EnMin= -117.910049523358     IErMin= 3 ErrMin= 5.20D-06
 ErrMax= 5.20D-06  0.00D+00 EMaxC= 1.00D-01 BMatC= 3.21D-09 BMatP= 4.74D-09
 IDIUse=1 WtCom= 1.00D+00 WtEn= 0.00D+00
 Coeff-Com: -0.378D-01 0.470D+00 0.568D+00
 Coeff:     -0.378D-01 0.470D+00 0.568D+00
 Gap=     0.423 Goal=   None    Shift=    0.000
 RMSDP=2.50D-07 MaxDP=7.39D-06 DE=-2.74D-09 OVMax= 1.46D-05

 Cycle  10  Pass 1  IDiag  1:
 E= -117.910049526135     Delta-E=       -0.000000002776 Rises=F Damp=F
 DIIS: error= 9.68D-07 at cycle   4 NSaved=   4.
 NSaved= 4 IEnMin= 4 EnMin= -117.910049526135     IErMin= 4 ErrMin= 9.68D-07
 ErrMax= 9.68D-07  0.00D+00 EMaxC= 1.00D-01 BMatC= 4.08D-11 BMatP= 3.21D-09
 IDIUse=1 WtCom= 1.00D+00 WtEn= 0.00D+00
 Coeff-Com: -0.552D-02 0.373D-01 0.709D-01 0.897D+00
 Coeff:     -0.552D-02 0.373D-01 0.709D-01 0.897D+00
 Gap=     0.423 Goal=   None    Shift=    0.000
 RMSDP=8.86D-08 MaxDP=1.81D-06 DE=-2.78D-09 OVMax= 7.59D-06

 Cycle  11  Pass 1  IDiag  1:
 E= -117.910049526192     Delta-E=       -0.000000000057 Rises=F Damp=F
 DIIS: error= 4.48D-07 at cycle   5 NSaved=   5.
 NSaved= 5 IEnMin= 5 EnMin= -117.910049526192     IErMin= 5 ErrMin= 4.48D-07
 ErrMax= 4.48D-07  0.00D+00 EMaxC= 1.00D-01 BMatC= 2.68D-11 BMatP= 4.08D-11
 IDIUse=1 WtCom= 1.00D+00 WtEn= 0.00D+00
 Coeff-Com:  0.357D-02-0.572D-01-0.691D-01 0.448D+00 0.675D+00
 Coeff:      0.357D-02-0.572D-01-0.691D-01 0.448D+00 0.675D+00
 Gap=     0.423 Goal=   None    Shift=    0.000
 RMSDP=4.66D-08 MaxDP=6.52D-07 DE=-5.73D-11 OVMax= 1.46D-06

 Cycle  12  Pass 1  IDiag  1:
 E= -117.910049526222     Delta-E=       -0.000000000030 Rises=F Damp=F
 DIIS: error= 9.91D-08 at cycle   6 NSaved=   6.
 NSaved= 6 IEnMin= 6 EnMin= -117.910049526222     IErMin= 6 ErrMin= 9.91D-08
 ErrMax= 9.91D-08  0.00D+00 EMaxC= 1.00D-01 BMatC= 4.20D-13 BMatP= 2.68D-11
 IDIUse=1 WtCom= 1.00D+00 WtEn= 0.00D+00
 Coeff-Com:  0.537D-03-0.431D-02-0.127D-01-0.403D-01-0.393D-01 0.110D+01
 Coeff:      0.537D-03-0.431D-02-0.127D-01-0.403D-01-0.393D-01 0.110D+01
 Gap=     0.423 Goal=   None    Shift=    0.000
 RMSDP=1.74D-08 MaxDP=2.81D-07 DE=-3.02D-11 OVMax= 7.73D-07

 Cycle  13  Pass 1  IDiag  1:
 E= -117.910049526222     Delta-E=        0.000000000000 Rises=F Damp=F
 DIIS: error= 1.69D-08 at cycle   7 NSaved=   7.
 NSaved= 7 IEnMin= 6 EnMin= -117.910049526222     IErMin= 7 ErrMin= 1.69D-08
 ErrMax= 1.69D-08  0.00D+00 EMaxC= 1.00D-01 BMatC= 3.08D-14 BMatP= 4.20D-13
 IDIUse=1 WtCom= 1.00D+00 WtEn= 0.00D+00
 Coeff-Com: -0.101D-03 0.224D-02 0.940D-03-0.233D-01-0.483D-01 0.143D+00
 Coeff-Com:  0.926D+00
 Coeff:     -0.101D-03 0.224D-02 0.940D-03-0.233D-01-0.483D-01 0.143D+00
 Coeff:      0.926D+00
 Gap=     0.423 Goal=   None    Shift=    0.000
 RMSDP=3.34D-09 MaxDP=6.35D-08 DE= 1.71D-13 OVMax= 1.22D-07

 SCF Done:  E(RwB97XD) =  -117.910049526     A.U. after   13 cycles
            NFock= 13  Conv=0.33D-08     -V/T= 2.0057
 KE= 1.172455597918D+02 PE=-4.145294460322D+02 EE= 1.084745186765D+02
 Leave Link  502 at Fri Jul  9 19:19:51 2021, MaxMem=  4194304000 cpu:       152.6
 (Enter /home/minenky/programs//g09/l601.exe)
 Copying SCF densities to generalized density rwf, IOpCl= 0 IROHF=0.

 **********************************************************************

            Population analysis using the SCF density.

 **********************************************************************

 Orbital symmetries:
       Occupied  (A') (A') (A') (A') (A') (A') (A') (A') (A") (A')
                 (A') (A")
       Virtual   (A") (A') (A') (A') (A") (A') (A') (A') (A') (A")
                 (A') (A") (A') (A') (A') (A") (A') (A') (A') (A')
                 (A") (A') (A') (A') (A') (A") (A') (A') (A") (A')
                 (A") (A') (A") (A') (A') (A') (A') (A") (A') (A")
                 (A') (A') (A') (A") (A') (A") (A") (A') (A') (A')
                 (A") (A') (A') (A") (A") (A') (A') (A') (A") (A')
                 (A') (A") (A') (A") (A') (A') (A") (A') (A') (A")
                 (A') (A") (A') (A') (A') (A') (A') (A") (A') (A')
                 (A") (A") (A') (A') (A") (A') (A") (A") (A') (A")
                 (A') (A") (A') (A') (A") (A') (A') (A') (A") (A")
                 (A') (A') (A") (A') (A') (A') (A") (A') (A") (A')
                 (A') (A') (A') (A') (A') (A') (A')
 The electronic state is 1-A'.
 Alpha  occ. eigenvalues --  -10.28759 -10.27814 -10.27134  -0.88804  -0.78332
 Alpha  occ. eigenvalues --   -0.64649  -0.55663  -0.50809  -0.49973  -0.45543
 Alpha  occ. eigenvalues --   -0.42746  -0.33961
 Alpha virt. eigenvalues --    0.08388   0.12794   0.15684   0.16786   0.19256
 Alpha virt. eigenvalues --    0.19553   0.21190   0.24811   0.28613   0.28752
 Alpha virt. eigenvalues --    0.29364   0.33596   0.33958   0.36332   0.40045
 Alpha virt. eigenvalues --    0.41968   0.44254   0.48010   0.50188   0.51746
 Alpha virt. eigenvalues --    0.54015   0.54720   0.55271   0.58745   0.66109
 Alpha virt. eigenvalues --    0.67064   0.68365   0.73860   0.75749   0.85103
 Alpha virt. eigenvalues --    0.85993   0.97269   1.02191   1.04594   1.06645
 Alpha virt. eigenvalues --    1.11579   1.12737   1.15327   1.23460   1.28059
 Alpha virt. eigenvalues --    1.31855   1.36703   1.50065   1.54193   1.58718
 Alpha virt. eigenvalues --    1.61927   1.62451   1.62554   1.64201   1.69356
 Alpha virt. eigenvalues --    1.70761   1.76356   1.83265   1.85900   1.91265
 Alpha virt. eigenvalues --    1.93067   1.98528   2.01244   2.01963   2.18437
 Alpha virt. eigenvalues --    2.25372   2.30472   2.32605   2.38407   2.40264
 Alpha virt. eigenvalues --    2.43707   2.47894   2.48823   2.53092   2.60383
 Alpha virt. eigenvalues --    2.62485   2.67686   2.68188   2.72958   2.75965
 Alpha virt. eigenvalues --    2.80563   2.89254   2.89833   2.97591   3.01842
 Alpha virt. eigenvalues --    3.02340   3.08909   3.11665   3.16508   3.17837
 Alpha virt. eigenvalues --    3.21364   3.22277   3.27414   3.27739   3.34792
 Alpha virt. eigenvalues --    3.35866   3.40592   3.41006   3.47721   3.51956
 Alpha virt. eigenvalues --    3.61292   3.65861   3.75269   3.76473   3.85312
 Alpha virt. eigenvalues --    3.91767   3.95365   4.11251   4.17228   4.27074
 Alpha virt. eigenvalues --    4.42560   4.47168   4.49531   4.57673   4.63168
 Alpha virt. eigenvalues --    4.72165   4.78958   4.94879   5.14203  22.16294
 Alpha virt. eigenvalues --   22.42626  22.81065
          Condensed to atoms (all electrons):
               1          2          3          4          5          6
     1  C    4.949643   0.641730  -0.041544  -0.040486   0.405742   0.308599
     2  C    0.641730   4.894304   0.419046   0.412305  -0.034810  -0.036806
     3  H   -0.041544   0.419046   0.527373  -0.026925  -0.007181   0.005988
     4  H   -0.040486   0.412305  -0.026925   0.536344   0.005683  -0.007941
     5  H    0.405742  -0.034810  -0.007181   0.005683   0.555966  -0.041039
     6  C    0.308599  -0.036806   0.005988  -0.007941  -0.041039   4.840375
     7  H   -0.050499   0.006579   0.000218   0.003247   0.005085   0.413809
     8  H   -0.034394  -0.002655  -0.000295   0.000162  -0.001872   0.409353
     9  H   -0.034394  -0.002655  -0.000295   0.000162  -0.001872   0.409353
               7          8          9
     1  C   -0.050499  -0.034394  -0.034394
     2  C    0.006579  -0.002655  -0.002655
     3  H    0.000218  -0.000295  -0.000295
     4  H    0.003247   0.000162   0.000162
     5  H    0.005085  -0.001872  -0.001872
     6  C    0.413809   0.409353   0.409353
     7  H    0.556665  -0.022276  -0.022276
     8  H   -0.022276   0.566705  -0.033887
     9  H   -0.022276  -0.033887   0.566705
 Mulliken charges:
               1
     1  C   -0.104398
     2  C   -0.297038
     3  H    0.123615
     4  H    0.117447
     5  H    0.114298
     6  C   -0.301690
     7  H    0.109447
     8  H    0.119159
     9  H    0.119159
 Sum of Mulliken charges =   0.00000
 Mulliken charges with hydrogens summed into heavy atoms:
               1
     1  C    0.009901
     2  C   -0.055976
     6  C    0.046075
 Electronic spatial extent (au):  <R**2>=            196.3121
 Charge=              0.0000 electrons
 Dipole moment (field-independent basis, Debye):
    X=             -0.4080    Y=             -0.0398    Z=              0.0000  Tot=              0.4100
 Quadrupole moment (field-independent basis, Debye-Ang):
   XX=            -19.0412   YY=            -18.9584   ZZ=            -21.8277
   XY=             -0.2197   XZ=              0.0000   YZ=              0.0000
 Traceless Quadrupole moment (field-independent basis, Debye-Ang):
   XX=              0.9013   YY=              0.9840   ZZ=             -1.8853
   XY=             -0.2197   XZ=              0.0000   YZ=              0.0000
 Octapole moment (field-independent basis, Debye-Ang**2):
  XXX=              1.0539  YYY=              0.3901  ZZZ=              0.0000  XYY=              0.9768
  XXY=              0.8091  XXZ=              0.0000  XZZ=             -2.8211  YZZ=             -0.5442
  YYZ=              0.0000  XYZ=              0.0000
 Hexadecapole moment (field-independent basis, Debye-Ang**3):
 XXXX=           -173.2861 YYYY=            -61.9725 ZZZZ=            -32.1679 XXXY=            -16.0525
 XXXZ=              0.0000 YYYX=            -18.8260 YYYZ=              0.0000 ZZZX=              0.0000
 ZZZY=              0.0000 XXYY=            -39.0716 XXZZ=            -34.8385 YYZZ=            -17.6595
 XXYZ=              0.0000 YYXZ=              0.0000 ZZXY=             -6.4018
 N-N= 7.089931803772D+01 E-N=-4.145294453751D+02  KE= 1.172455597918D+02
 Symmetry A'   KE= 1.131856119822D+02
 Symmetry A"   KE= 4.059947809653D+00
 No NMR shielding tensors so no spin-rotation constants.
 Leave Link  601 at Fri Jul  9 19:19:52 2021, MaxMem=  4194304000 cpu:        14.9
 (Enter /home/minenky/programs//g09/l701.exe)
 Compute integral first derivatives.
 ... and contract with generalized density number  0.
 R6Disp: Adding Grimme-D2 dispersion energy 1st derivatives to the gradient.
   2 Symmetry operations used in ECPInt.
 ECPInt:  NShTT=    1653 NPrTT=    4740 LenC2=    1652 LenP2D=    4221.
 LDataN:  DoStor=T MaxTD1= 7 Len=  274
 Leave Link  701 at Fri Jul  9 19:19:53 2021, MaxMem=  4194304000 cpu:         8.9
 (Enter /home/minenky/programs//g09/l702.exe)
 L702 exits ... SP integral derivatives will be done elsewhere.
 Leave Link  702 at Fri Jul  9 19:19:53 2021, MaxMem=  4194304000 cpu:         0.1
 (Enter /home/minenky/programs//g09/l703.exe)
 Compute integral first derivatives, UseDBF=F ICtDFT=           0.
 Integral derivatives from FoFJK, PRISM(SPDF).
 Calling FoFJK, ICntrl=      2127 FMM=F ISym2X=1 I1Cent= 0 IOpClX= 0 NMat=1 NMatS=1 NMatT=0.
 FoFJK:  IHMeth= 1 ICntrl=    2127 DoSepK=T KAlg= 0 I1Cent=   0 FoldK=F
 IRaf=         1 NMat=   1 IRICut=       1 DoRegI=T DoRafI=F ISym2E= 1.
 FoFCou: FMM=F IPFlag=           0 FMFlag=      100000 FMFlg1=         800
         NFxFlg=           0 DoJE=F BraDBF=F KetDBF=F FulRan=T
         wScrn=  0.000000 ICntrl=    2527 IOpCl=  0 I1Cent=           0 NGrid=           0
         NMat0=    1 NMatS0=      1 NMatT0=    0 NMatD0=    1 NMtDS0=    0 NMtDT0=    0
 Petite list used in FoFCou.
 Leave Link  703 at Fri Jul  9 19:19:55 2021, MaxMem=  4194304000 cpu:        28.6
 (Enter /home/minenky/programs//g09/l716.exe)
 Dipole        =-1.60525407D-01-1.56715983D-02 0.00000000D+00
 ***** Axes restored to original set *****
 -------------------------------------------------------------------
 Center     Atomic                   Forces (Hartrees/Bohr)
 Number     Number              X              Y              Z
 -------------------------------------------------------------------
      1        6           0.002625410   -0.000938607    0.000000000
      2        6          -0.003410728    0.000646071    0.000000000
      3        1          -0.000110096    0.000422600    0.000000000
      4        1          -0.000182692   -0.000361680    0.000000000
      5        1           0.000158800   -0.000066001    0.000000000
      6        6          -0.000331978   -0.000076032    0.000000000
      7        1           0.000059864    0.000099138    0.000000000
      8        1           0.000595710    0.000137255   -0.000232967
      9        1           0.000595710    0.000137255    0.000232967
 -------------------------------------------------------------------
 Cartesian Forces:  Max     0.003410728 RMS     0.000885983
 Leave Link  716 at Fri Jul  9 19:19:55 2021, MaxMem=  4194304000 cpu:         0.1
 (Enter /home/minenky/programs//g09/l103.exe)

 GradGradGradGradGradGradGradGradGradGradGradGradGradGradGradGradGradGrad
 Berny optimization.
 FormGI is forming the generalized inverse of G from B-inverse, IUseBI=4.
 Internal  Forces:  Max     0.003765330 RMS     0.000749381
 Search for a local minimum.
 Step number   1 out of a maximum of   40
 All quantities printed in internal units (Hartrees-Bohrs-Radians)
 RMS Force = .74938D-03 SwitMx=.10000D-02 MixMth= 2
 Mixed Optimization -- En-DIIS/RFO-DIIS
 Second derivative matrix not updated -- first step.
 ITU=  0
     Eigenvalues ---    0.00823   0.01744   0.03058   0.03058   0.07164
     Eigenvalues ---    0.07312   0.16000   0.16000   0.16000   0.16000
     Eigenvalues ---    0.16000   0.16000   0.22000   0.32833   0.34366
     Eigenvalues ---    0.34366   0.34715   0.35150   0.35454   0.35706
     Eigenvalues ---    0.60287
 RFO step:  Lambda=-3.51338438D-05 EMin= 8.22811402D-03
 Linear search not attempted -- first point.
 Iteration  1 RMS(Cart)=  0.00346089 RMS(Int)=  0.00000198
 Iteration  2 RMS(Cart)=  0.00000178 RMS(Int)=  0.00000078
 Iteration  3 RMS(Cart)=  0.00000000 RMS(Int)=  0.00000078
 ITry= 1 IFail=0 DXMaxC= 9.31D-03 DCOld= 1.00D+10 DXMaxT= 3.00D-01 DXLimC= 3.00D+00 Rises=F
 ClnCor:  largest displacement from symmetrization is 1.85D-13 for atom     9.
 Variable       Old X    -DE/DX   Delta X   Delta X   Delta X     New X
                                 (Linear)    (Quad)   (Total)
    R1        2.50714  -0.00377   0.00000  -0.00625  -0.00625   2.50089
    R2        2.05432  -0.00010   0.00000  -0.00030  -0.00030   2.05403
    R3        2.82647  -0.00089   0.00000  -0.00271  -0.00271   2.82376
    R4        2.04543   0.00022   0.00000   0.00061   0.00061   2.04604
    R5        2.04945   0.00029   0.00000   0.00082   0.00082   2.05026
    R6        2.06140  -0.00007   0.00000  -0.00021  -0.00021   2.06119
    R7        2.06716  -0.00052   0.00000  -0.00150  -0.00150   2.06566
    R8        2.06716  -0.00052   0.00000  -0.00150  -0.00150   2.06566
    A1        2.07344   0.00002   0.00000  -0.00016  -0.00016   2.07328
    A2        2.18491  -0.00031   0.00000  -0.00142  -0.00142   2.18349
    A3        2.02483   0.00030   0.00000   0.00158   0.00158   2.02642
    A4        2.12344  -0.00033   0.00000  -0.00204  -0.00204   2.12140
    A5        2.12044  -0.00012   0.00000  -0.00078  -0.00078   2.11966
    A6        2.03930   0.00045   0.00000   0.00283   0.00283   2.04213
    A7        1.94540   0.00003   0.00000   0.00014   0.00014   1.94554
    A8        1.93726  -0.00043   0.00000  -0.00268  -0.00268   1.93458
    A9        1.93726  -0.00043   0.00000  -0.00268  -0.00268   1.93458
   A10        1.88999   0.00020   0.00000   0.00122   0.00122   1.89121
   A11        1.88999   0.00020   0.00000   0.00122   0.00122   1.89121
   A12        1.86098   0.00047   0.00000   0.00307   0.00307   1.86405
    D1        0.00000   0.00000   0.00000   0.00000   0.00000   0.00000
    D2        3.14159   0.00000   0.00000   0.00000   0.00000   3.14159
    D3        3.14159   0.00000   0.00000   0.00000   0.00000   3.14159
    D4        0.00000   0.00000   0.00000   0.00000   0.00000   0.00000
    D5        0.00000   0.00000   0.00000   0.00000   0.00000   0.00000
    D6        2.10838  -0.00001   0.00000  -0.00019  -0.00020   2.10819
    D7       -2.10838   0.00001   0.00000   0.00019   0.00020  -2.10819
    D8        3.14159   0.00000   0.00000   0.00000   0.00000   3.14159
    D9       -1.03321  -0.00001   0.00000  -0.00019  -0.00020  -1.03340
   D10        1.03321   0.00001   0.00000   0.00019   0.00020   1.03340
         Item               Value     Threshold  Converged?
 Maximum Force            0.003765     0.000015     NO 
 RMS     Force            0.000749     0.000010     NO 
 Maximum Displacement     0.009313     0.000060     NO 
 RMS     Displacement     0.003461     0.000040     NO 
 Predicted change in Energy=-1.756704D-05
 Lowest energy point so far.  Saving SCF results.
 GradGradGradGradGradGradGradGradGradGradGradGradGradGradGradGradGradGrad

 Leave Link  103 at Fri Jul  9 19:19:58 2021, MaxMem=  4194304000 cpu:        31.8
 (Enter /home/minenky/programs//g09/l202.exe)
                          Input orientation:                          
 ---------------------------------------------------------------------
 Center     Atomic      Atomic             Coordinates (Angstroms)
 Number     Number       Type             X           Y           Z
 ---------------------------------------------------------------------
      1          6           0       -0.000046    0.472182    0.000000
      2          6           0        1.283325    0.149093    0.000000
      3          1           0        2.057926    0.905578    0.000000
      4          1           0        1.606270   -0.886682    0.000000
      5          1           0       -0.275130    1.523742    0.000000
      6          6           0       -1.131798   -0.503509    0.000000
      7          1           0       -0.771411   -1.532985    0.000000
      8          1           0       -1.767830   -0.361398    0.877571
      9          1           0       -1.767830   -0.361398   -0.877571
 ---------------------------------------------------------------------
                    Distance matrix (angstroms):
                    1          2          3          4          5
     1  C    0.000000
     2  C    1.323416   0.000000
     3  H    2.103113   1.082718   0.000000
     4  H    2.103988   1.084953   1.848294   0.000000
     5  H    1.086945   2.078087   2.413561   3.057746   0.000000
     6  C    1.494267   2.501741   3.487100   2.764749   2.200824
     7  H    2.148418   2.655434   3.735203   2.463955   3.096752
     8  H    2.142439   3.215631   4.124533   3.525706   2.559695
     9  H    2.142439   3.215631   4.124533   3.525706   2.559695
                    6          7          8          9
     6  C    0.000000
     7  H    1.090733   0.000000
     8  H    1.093098   1.770762   0.000000
     9  H    1.093098   1.770762   1.755142   0.000000
 Stoichiometry    C3H6
 Framework group  CS[SG(C3H4),X(H2)]
 Deg. of freedom    14
 Full point group                 CS      NOp   2
 RotChk:  IX=0 Diff= 9.98D-04
 Largest Abelian subgroup         CS      NOp   2
 Largest concise Abelian subgroup CS      NOp   2
                         Standard orientation:                         
 ---------------------------------------------------------------------
 Center     Atomic      Atomic             Coordinates (Angstroms)
 Number     Number       Type             X           Y           Z
 ---------------------------------------------------------------------
      1          6           0        0.000000    0.472455    0.000000
      2          6           0        1.283599    0.150272    0.000000
      3          1           0        2.057666    0.907304    0.000000
      4          1           0        1.607275   -0.885275    0.000000
      5          1           0       -0.275826    1.523821    0.000000
      6          6           0       -1.131062   -0.504035    0.000000
      7          1           0       -0.769949   -1.533256    0.000000
      8          1           0       -1.767195   -0.362373    0.877571
      9          1           0       -1.767195   -0.362373   -0.877571
 ---------------------------------------------------------------------
 Rotational constants (GHZ):     47.1316680      9.3753604      8.2144593
 Leave Link  202 at Fri Jul  9 19:19:58 2021, MaxMem=  4194304000 cpu:         0.4
 (Enter /home/minenky/programs//g09/l301.exe)
 Standard basis: def2TZVP (5D, 7F)
 Ernie: Thresh=  0.10000D-02 Tol=  0.10000D-05 Strict=F.
 There are   101 symmetry adapted cartesian basis functions of A'  symmetry.
 There are    43 symmetry adapted cartesian basis functions of A"  symmetry.
 There are    89 symmetry adapted basis functions of A'  symmetry.
 There are    40 symmetry adapted basis functions of A"  symmetry.
   129 basis functions,   201 primitive gaussians,   144 cartesian basis functions
    12 alpha electrons       12 beta electrons
       nuclear repulsion energy        70.9948563635 Hartrees.
 IExCor= 4639 DFT=T Ex+Corr=wB97XD ExCW=0 ScaHFX=  1.000000
 ScaDFX=  1.000000  1.000000  1.000000  1.000000 ScalE2=  1.000000  1.000000
 IRadAn=      5 IRanWt=     -1 IRanGd=            0 ICorTp=0 IEmpDi=121
  HFx wShort=  0.000000 wLong=  0.200000 cFull=  0.222036 cShort=  0.000000 cLong=  0.777964
  DFx wShort=  0.000000 wLong=  0.200000 cFull=  0.000000 cShort=  0.000000 cLong=  1.000000
 NAtoms=    9 NActive=    9 NUniq=    8 SFac= 1.27D+00 NAtFMM=   60 NAOKFM=F Big=F
 Integral buffers will be    131072 words long.
 Raffenetti 2 integral format.
 Two-electron integral symmetry is turned on.
 R6Disp:  Grimme-D2 Dispersion energy=       -0.0023156989 Hartrees.
 Nuclear repulsion after empirical dispersion term =       70.9925406646 Hartrees.
 Leave Link  301 at Fri Jul  9 19:19:58 2021, MaxMem=  4194304000 cpu:         0.2
 (Enter /home/minenky/programs//g09/l302.exe)
 NPDir=0 NMtPBC=     1 NCelOv=     1 NCel=       1 NClECP=     1 NCelD=      1
         NCelK=      1 NCelE2=     1 NClLst=     1 CellRange=     0.0.
 One-electron integrals computed using PRISM.
 One-electron integral symmetry used in STVInt
   2 Symmetry operations used in ECPInt.
 ECPInt:  NShTT=    1653 NPrTT=    4740 LenC2=    1652 LenP2D=    4223.
 LDataN:  DoStor=T MaxTD1= 6 Len=  172
 NBasis=   129 RedAO= T EigKep=  2.39D-04  NBF=    89    40
 NBsUse=   129 1.00D-06 EigRej= -1.00D+00 NBFU=    89    40
 Precomputing XC quadrature grid using
 IXCGrd= 4 IRadAn=           5 IRanWt=          -1 IRanGd=           0 AccXCQ= 0.00D+00.
 Generated NRdTot=       0 NPtTot=           0 NUsed=           0 NTot=          32
 NSgBfM=   144   144   144   144   144 MxSgAt=     9 MxSgA2=     9.
 Leave Link  302 at Fri Jul  9 19:20:00 2021, MaxMem=  4194304000 cpu:        25.9
 (Enter /home/minenky/programs//g09/l303.exe)
 DipDrv:  MaxL=1.
 Leave Link  303 at Fri Jul  9 19:20:00 2021, MaxMem=  4194304000 cpu:         2.5
 (Enter /home/minenky/programs//g09/l401.exe)
 Initial guess from the checkpoint file:  "m1_00_115-07-10_C3H6_wB97XD.chk"
 B after Tr=     0.000000    0.000000    0.000000
         Rot=    1.000000    0.000000    0.000000   -0.000413 Ang=  -0.05 deg.
 Guess basis will be translated and rotated to current coordinates.
 JPrj=2 DoOrth=T DoCkMO=T.
 Initial guess orbital symmetries:
       Occupied  (A') (A') (A') (A') (A') (A') (A') (A') (A") (A')
                 (A') (A")
       Virtual   (A') (A') (A') (A') (A') (A') (A') (A') (A') (A')
                 (A') (A') (A') (A') (A') (A') (A') (A') (A') (A')
                 (A') (A') (A') (A') (A') (A') (A') (A') (A') (A')
                 (A') (A') (A') (A') (A') (A') (A') (A') (A') (A')
                 (A') (A') (A') (A') (A') (A') (A') (A') (A') (A')
                 (A') (A') (A') (A') (A') (A') (A') (A') (A') (A')
                 (A') (A') (A') (A') (A') (A') (A') (A') (A') (A')
                 (A') (A') (A') (A') (A') (A') (A') (A') (A') (A")
                 (A") (A") (A") (A") (A") (A") (A") (A") (A") (A")
                 (A") (A") (A") (A") (A") (A") (A") (A") (A") (A")
                 (A") (A") (A") (A") (A") (A") (A") (A") (A") (A")
                 (A") (A") (A") (A") (A") (A") (A")
 The electronic state of the initial guess is 1-A'.
 Leave Link  401 at Fri Jul  9 19:20:01 2021, MaxMem=  4194304000 cpu:         8.6
 (Enter /home/minenky/programs//g09/l502.exe)
 Closed shell SCF:
 Using DIIS extrapolation, IDIIS=  1040.
 Integral symmetry usage will be decided dynamically.
 Keep R1 ints in memory in symmetry-blocked form, NReq=106511320.
 IVT=      213596 IEndB=      213596 NGot=  4194304000 MDV=  4176090725
 LenX=  4176090725 LenY=  4176069548
 Requested convergence on RMS density matrix=1.00D-08 within 380 cycles.
 Requested convergence on MAX density matrix=1.00D-06.
 Requested convergence on             energy=1.00D-06.
 No special actions if energy rises.
 FoFCou: FMM=F IPFlag=           0 FMFlag=           0 FMFlg1=           0
         NFxFlg=           0 DoJE=F BraDBF=F KetDBF=F FulRan=T
         wScrn=  0.000000 ICntrl=     600 IOpCl=  0 I1Cent=           0 NGrid=           0
         NMat0=    1 NMatS0=   8385 NMatT0=    0 NMatD0=    1 NMtDS0=    0 NMtDT0=    0
 Petite list used in FoFCou.

 Cycle   1  Pass 1  IDiag  1:
 E= -117.910060476848    
 DIIS: error= 2.21D-04 at cycle   1 NSaved=   1.
 NSaved= 1 IEnMin= 1 EnMin= -117.910060476848     IErMin= 1 ErrMin= 2.21D-04
 ErrMax= 2.21D-04  0.00D+00 EMaxC= 1.00D-01 BMatC= 6.00D-06 BMatP= 6.00D-06
 IDIUse=3 WtCom= 9.98D-01 WtEn= 2.21D-03
 Coeff-Com:  0.100D+01
 Coeff-En:   0.100D+01
 Coeff:      0.100D+01
 Gap=     0.886 Goal=   None    Shift=    0.000
 RMSDP=2.17D-05 MaxDP=4.29D-04              OVMax= 6.20D-04

 Cycle   2  Pass 1  IDiag  1:
 E= -117.910064526051     Delta-E=       -0.000004049203 Rises=F Damp=F
 DIIS: error= 6.29D-05 at cycle   2 NSaved=   2.
 NSaved= 2 IEnMin= 2 EnMin= -117.910064526051     IErMin= 2 ErrMin= 6.29D-05
 ErrMax= 6.29D-05  0.00D+00 EMaxC= 1.00D-01 BMatC= 5.11D-07 BMatP= 6.00D-06
 IDIUse=1 WtCom= 1.00D+00 WtEn= 0.00D+00
 Coeff-Com:  0.110D+00 0.890D+00
 Coeff:      0.110D+00 0.890D+00
 Gap=     0.425 Goal=   None    Shift=    0.000
 RMSDP=5.67D-06 MaxDP=1.40D-04 DE=-4.05D-06 OVMax= 3.18D-04

 Cycle   3  Pass 1  IDiag  1:
 E= -117.910064845140     Delta-E=       -0.000000319089 Rises=F Damp=F
 DIIS: error= 4.85D-05 at cycle   3 NSaved=   3.
 NSaved= 3 IEnMin= 3 EnMin= -117.910064845140     IErMin= 3 ErrMin= 4.85D-05
 ErrMax= 4.85D-05  0.00D+00 EMaxC= 1.00D-01 BMatC= 2.02D-07 BMatP= 5.11D-07
 IDIUse=1 WtCom= 1.00D+00 WtEn= 0.00D+00
 Coeff-Com: -0.230D-01 0.373D+00 0.650D+00
 Coeff:     -0.230D-01 0.373D+00 0.650D+00
 Gap=     0.425 Goal=   None    Shift=    0.000
 RMSDP=2.22D-06 MaxDP=6.52D-05 DE=-3.19D-07 OVMax= 1.84D-04

 Cycle   4  Pass 1  IDiag  1:
 E= -117.910065040001     Delta-E=       -0.000000194861 Rises=F Damp=F
 DIIS: error= 9.29D-06 at cycle   4 NSaved=   4.
 NSaved= 4 IEnMin= 4 EnMin= -117.910065040001     IErMin= 4 ErrMin= 9.29D-06
 ErrMax= 9.29D-06  0.00D+00 EMaxC= 1.00D-01 BMatC= 8.00D-09 BMatP= 2.02D-07
 IDIUse=1 WtCom= 1.00D+00 WtEn= 0.00D+00
 Coeff-Com: -0.111D-01 0.796D-01 0.220D+00 0.712D+00
 Coeff:     -0.111D-01 0.796D-01 0.220D+00 0.712D+00
 Gap=     0.425 Goal=   None    Shift=    0.000
 RMSDP=5.66D-07 MaxDP=1.74D-05 DE=-1.95D-07 OVMax= 5.32D-05

 Cycle   5  Pass 1  IDiag  1:
 E= -117.910065047560     Delta-E=       -0.000000007559 Rises=F Damp=F
 DIIS: error= 2.37D-06 at cycle   5 NSaved=   5.
 NSaved= 5 IEnMin= 5 EnMin= -117.910065047560     IErMin= 5 ErrMin= 2.37D-06
 ErrMax= 2.37D-06  0.00D+00 EMaxC= 1.00D-01 BMatC= 1.02D-09 BMatP= 8.00D-09
 IDIUse=1 WtCom= 1.00D+00 WtEn= 0.00D+00
 Coeff-Com: -0.365D-04-0.303D-01-0.185D-01 0.255D+00 0.794D+00
 Coeff:     -0.365D-04-0.303D-01-0.185D-01 0.255D+00 0.794D+00
 Gap=     0.425 Goal=   None    Shift=    0.000
 RMSDP=2.94D-07 MaxDP=5.04D-06 DE=-7.56D-09 OVMax= 1.11D-05

 Cycle   6  Pass 1  IDiag  1:
 E= -117.910065048716     Delta-E=       -0.000000001156 Rises=F Damp=F
 DIIS: error= 4.54D-07 at cycle   6 NSaved=   6.
 NSaved= 6 IEnMin= 6 EnMin= -117.910065048716     IErMin= 6 ErrMin= 4.54D-07
 ErrMax= 4.54D-07  0.00D+00 EMaxC= 1.00D-01 BMatC= 1.15D-11 BMatP= 1.02D-09
 IDIUse=1 WtCom= 1.00D+00 WtEn= 0.00D+00
 Coeff-Com:  0.584D-03-0.609D-02-0.119D-01-0.191D-01 0.283D-01 0.101D+01
 Coeff:      0.584D-03-0.609D-02-0.119D-01-0.191D-01 0.283D-01 0.101D+01
 Gap=     0.425 Goal=   None    Shift=    0.000
 RMSDP=9.60D-08 MaxDP=1.31D-06 DE=-1.16D-09 OVMax= 3.26D-06

 Cycle   7  Pass 1  IDiag  1:
 E= -117.910065048744     Delta-E=       -0.000000000028 Rises=F Damp=F
 DIIS: error= 1.18D-07 at cycle   7 NSaved=   7.
 NSaved= 7 IEnMin= 7 EnMin= -117.910065048744     IErMin= 7 ErrMin= 1.18D-07
 ErrMax= 1.18D-07  0.00D+00 EMaxC= 1.00D-01 BMatC= 1.11D-12 BMatP= 1.15D-11
 IDIUse=1 WtCom= 1.00D+00 WtEn= 0.00D+00
 Coeff-Com:  0.104D-03 0.436D-03-0.128D-02-0.149D-01-0.372D-01 0.177D+00
 Coeff-Com:  0.876D+00
 Coeff:      0.104D-03 0.436D-03-0.128D-02-0.149D-01-0.372D-01 0.177D+00
 Coeff:      0.876D+00
 Gap=     0.425 Goal=   None    Shift=    0.000
 RMSDP=2.34D-08 MaxDP=3.22D-07 DE=-2.83D-11 OVMax= 5.33D-07

 Cycle   8  Pass 1  IDiag  1:
 E= -117.910065048746     Delta-E=       -0.000000000002 Rises=F Damp=F
 DIIS: error= 4.03D-08 at cycle   8 NSaved=   8.
 NSaved= 8 IEnMin= 8 EnMin= -117.910065048746     IErMin= 8 ErrMin= 4.03D-08
 ErrMax= 4.03D-08  0.00D+00 EMaxC= 1.00D-01 BMatC= 1.57D-13 BMatP= 1.11D-12
 IDIUse=1 WtCom= 1.00D+00 WtEn= 0.00D+00
 Coeff-Com: -0.292D-04 0.832D-03 0.856D-03-0.281D-02-0.158D-01-0.401D-01
 Coeff-Com:  0.276D+00 0.781D+00
 Coeff:     -0.292D-04 0.832D-03 0.856D-03-0.281D-02-0.158D-01-0.401D-01
 Coeff:      0.276D+00 0.781D+00
 Gap=     0.425 Goal=   None    Shift=    0.000
 RMSDP=6.45D-09 MaxDP=9.35D-08 DE=-2.36D-12 OVMax= 1.73D-07

 SCF Done:  E(RwB97XD) =  -117.910065049     A.U. after    8 cycles
            NFock=  8  Conv=0.65D-08     -V/T= 2.0055
 KE= 1.172604789411D+02 PE=-4.147296281798D+02 EE= 1.085665435254D+02
 Leave Link  502 at Fri Jul  9 19:20:04 2021, MaxMem=  4194304000 cpu:        44.4
 (Enter /home/minenky/programs//g09/l701.exe)
 Compute integral first derivatives.
 ... and contract with generalized density number  0.
 R6Disp: Adding Grimme-D2 dispersion energy 1st derivatives to the gradient.
   2 Symmetry operations used in ECPInt.
 ECPInt:  NShTT=    1653 NPrTT=    4740 LenC2=    1652 LenP2D=    4223.
 LDataN:  DoStor=T MaxTD1= 7 Len=  274
 Leave Link  701 at Fri Jul  9 19:20:05 2021, MaxMem=  4194304000 cpu:        14.1
 (Enter /home/minenky/programs//g09/l702.exe)
 L702 exits ... SP integral derivatives will be done elsewhere.
 Leave Link  702 at Fri Jul  9 19:20:05 2021, MaxMem=  4194304000 cpu:         0.1
 (Enter /home/minenky/programs//g09/l703.exe)
 Compute integral first derivatives, UseDBF=F ICtDFT=           0.
 Integral derivatives from FoFJK, PRISM(SPDF).
 Calling FoFJK, ICntrl=      2127 FMM=F ISym2X=1 I1Cent= 0 IOpClX= 0 NMat=1 NMatS=1 NMatT=0.
 FoFJK:  IHMeth= 1 ICntrl=    2127 DoSepK=T KAlg= 0 I1Cent=   0 FoldK=F
 IRaf=         1 NMat=   1 IRICut=       1 DoRegI=T DoRafI=F ISym2E= 1.
 FoFCou: FMM=F IPFlag=           0 FMFlag=      100000 FMFlg1=         800
         NFxFlg=           0 DoJE=F BraDBF=F KetDBF=F FulRan=T
         wScrn=  0.000000 ICntrl=    2527 IOpCl=  0 I1Cent=           0 NGrid=           0
         NMat0=    1 NMatS0=      1 NMatT0=    0 NMatD0=    1 NMtDS0=    0 NMtDT0=    0
 Petite list used in FoFCou.
 Leave Link  703 at Fri Jul  9 19:20:08 2021, MaxMem=  4194304000 cpu:        33.9
 (Enter /home/minenky/programs//g09/l716.exe)
 Dipole        =-1.60390076D-01-1.48504490D-02 0.00000000D+00
 ***** Axes restored to original set *****
 -------------------------------------------------------------------
 Center     Atomic                   Forces (Hartrees/Bohr)
 Number     Number              X              Y              Z
 -------------------------------------------------------------------
      1        6          -0.000103184    0.000073052    0.000000000
      2        6           0.000437429   -0.000039153    0.000000000
      3        1           0.000031535    0.000006177    0.000000000
      4        1           0.000002578    0.000002621    0.000000000
      5        1          -0.000061306    0.000019198    0.000000000
      6        6          -0.000372389   -0.000067787    0.000000000
      7        1           0.000024996    0.000040126    0.000000000
      8        1           0.000020170   -0.000017117   -0.000002356
      9        1           0.000020170   -0.000017117    0.000002356
 -------------------------------------------------------------------
 Cartesian Forces:  Max     0.000437429 RMS     0.000115622
 Leave Link  716 at Fri Jul  9 19:20:08 2021, MaxMem=  4194304000 cpu:         0.1
 (Enter /home/minenky/programs//g09/l103.exe)

 GradGradGradGradGradGradGradGradGradGradGradGradGradGradGradGradGradGrad
 Berny optimization.
 Using GEDIIS/GDIIS optimizer.
 FormGI is forming the generalized inverse of G from B-inverse, IUseBI=4.
 Internal  Forces:  Max     0.000463564 RMS     0.000108145
 Search for a local minimum.
 Step number   2 out of a maximum of   40
 All quantities printed in internal units (Hartrees-Bohrs-Radians)
 RMS Force = .10814D-03 SwitMx=.10000D-02 MixMth= 2
 Mixed Optimization -- En-DIIS/RFO-DIIS
 Swapping is turned off.
 Update second derivatives using D2CorX and points    1    2
 DE= -1.55D-05 DEPred=-1.76D-05 R= 8.84D-01
 TightC=F SS=  1.41D+00  RLast= 9.81D-03 DXNew= 5.0454D-01 2.9432D-02
 Trust test= 8.84D-01 RLast= 9.81D-03 DXMaxT set to 3.00D-01
 ITU=  1  0
     Eigenvalues ---    0.00823   0.01743   0.03058   0.03058   0.07177
     Eigenvalues ---    0.07325   0.15641   0.16000   0.16000   0.16000
     Eigenvalues ---    0.16000   0.16173   0.22344   0.33616   0.34260
     Eigenvalues ---    0.34366   0.34715   0.35174   0.35446   0.35674
     Eigenvalues ---    0.65930
 En-DIIS/RFO-DIIS IScMMF=        0 using points:     2    1
 RFO step:  Lambda=-5.02120626D-07.
 NNeg= 0 NP= 2 Switch=  2.50D-03 Rises=F DC=  1.55D-05 SmlDif=  1.00D-05
 RMS Error=  0.1598920613D-03 NUsed= 2 EDIIS=F
 DidBck=F Rises=F RFO-DIIS coefs:    0.89467    0.10533
 Iteration  1 RMS(Cart)=  0.00051512 RMS(Int)=  0.00000010
 Iteration  2 RMS(Cart)=  0.00000008 RMS(Int)=  0.00000007
 ITry= 1 IFail=0 DXMaxC= 1.53D-03 DCOld= 1.00D+10 DXMaxT= 3.00D-01 DXLimC= 3.00D+00 Rises=F
 ClnCor:  largest displacement from symmetrization is 1.41D-10 for atom     2.
 Variable       Old X    -DE/DX   Delta X   Delta X   Delta X     New X
                                 (Linear)    (Quad)   (Total)
    R1        2.50089   0.00046   0.00066  -0.00003   0.00063   2.50152
    R2        2.05403   0.00003   0.00003   0.00005   0.00008   2.05411
    R3        2.82376   0.00027   0.00029   0.00044   0.00072   2.82448
    R4        2.04604   0.00003  -0.00006   0.00014   0.00007   2.04611
    R5        2.05026   0.00000  -0.00009   0.00009   0.00000   2.05026
    R6        2.06119  -0.00003   0.00002  -0.00010  -0.00008   2.06111
    R7        2.06566  -0.00002   0.00016  -0.00021  -0.00006   2.06560
    R8        2.06566  -0.00002   0.00016  -0.00021  -0.00006   2.06560
    A1        2.07328  -0.00003   0.00002  -0.00005  -0.00003   2.07326
    A2        2.18349   0.00017   0.00015   0.00053   0.00068   2.18416
    A3        2.02642  -0.00014  -0.00017  -0.00048  -0.00065   2.02577
    A4        2.12140   0.00002   0.00022  -0.00013   0.00009   2.12149
    A5        2.11966  -0.00001   0.00008  -0.00012  -0.00004   2.11962
    A6        2.04213  -0.00001  -0.00030   0.00025  -0.00005   2.04207
    A7        1.94554  -0.00007  -0.00001  -0.00044  -0.00046   1.94509
    A8        1.93458   0.00002   0.00028  -0.00017   0.00012   1.93469
    A9        1.93458   0.00002   0.00028  -0.00017   0.00012   1.93469
   A10        1.89121   0.00001  -0.00013   0.00012  -0.00001   1.89120
   A11        1.89121   0.00001  -0.00013   0.00012  -0.00001   1.89120
   A12        1.86405   0.00001  -0.00032   0.00060   0.00027   1.86432
    D1        0.00000   0.00000   0.00000   0.00000   0.00000   0.00000
    D2        3.14159   0.00000   0.00000   0.00000   0.00000   3.14159
    D3        3.14159   0.00000   0.00000   0.00000   0.00000   3.14159
    D4        0.00000   0.00000   0.00000   0.00000   0.00000   0.00000
    D5        0.00000   0.00000   0.00000   0.00000   0.00000   0.00000
    D6        2.10819  -0.00002   0.00002  -0.00027  -0.00024   2.10794
    D7       -2.10819   0.00002  -0.00002   0.00027   0.00024  -2.10794
    D8        3.14159   0.00000   0.00000   0.00000   0.00000   3.14159
    D9       -1.03340  -0.00002   0.00002  -0.00027  -0.00024  -1.03365
   D10        1.03340   0.00002  -0.00002   0.00027   0.00024   1.03365
         Item               Value     Threshold  Converged?
 Maximum Force            0.000464     0.000015     NO 
 RMS     Force            0.000108     0.000010     NO 
 Maximum Displacement     0.001529     0.000060     NO 
 RMS     Displacement     0.000515     0.000040     NO 
 Predicted change in Energy=-3.834844D-07
 Lowest energy point so far.  Saving SCF results.
 GradGradGradGradGradGradGradGradGradGradGradGradGradGradGradGradGradGrad

 Leave Link  103 at Fri Jul  9 19:20:09 2021, MaxMem=  4194304000 cpu:        18.5
 (Enter /home/minenky/programs//g09/l202.exe)
                          Input orientation:                          
 ---------------------------------------------------------------------
 Center     Atomic      Atomic             Coordinates (Angstroms)
 Number     Number       Type             X           Y           Z
 ---------------------------------------------------------------------
      1          6           0        0.000097    0.471969    0.000000
      2          6           0        1.283882    0.149159    0.000000
      3          1           0        2.058365    0.905822    0.000000
      4          1           0        1.607079   -0.886538    0.000000
      5          1           0       -0.275263    1.523503    0.000000
      6          6           0       -1.132332   -0.503520    0.000000
      7          1           0       -0.771899   -1.532937    0.000000
      8          1           0       -1.768225   -0.361417    0.877636
      9          1           0       -1.768225   -0.361417   -0.877636
 ---------------------------------------------------------------------
                    Distance matrix (angstroms):
                    1          2          3          4          5
     1  C    0.000000
     2  C    1.323749   0.000000
     3  H    2.103496   1.082757   0.000000
     4  H    2.104265   1.084953   1.848300   0.000000
     5  H    1.086989   2.078402   2.413990   3.058023   0.000000
     6  C    1.494649   2.502814   3.488093   2.766058   2.200770
     7  H    2.148401   2.656253   3.736032   2.465232   3.096526
     8  H    2.142834   3.216565   4.125401   3.526850   2.559708
     9  H    2.142834   3.216565   4.125401   3.526850   2.559708
                    6          7          8          9
     6  C    0.000000
     7  H    1.090693   0.000000
     8  H    1.093068   1.770698   0.000000
     9  H    1.093068   1.770698   1.755272   0.000000
 Stoichiometry    C3H6
 Framework group  CS[SG(C3H4),X(H2)]
 Deg. of freedom    14
 Full point group                 CS      NOp   2
 RotChk:  IX=0 Diff= 3.25D-04
 Largest Abelian subgroup         CS      NOp   2
 Largest concise Abelian subgroup CS      NOp   2
                         Standard orientation:                         
 ---------------------------------------------------------------------
 Center     Atomic      Atomic             Coordinates (Angstroms)
 Number     Number       Type             X           Y           Z
 ---------------------------------------------------------------------
      1          6           0        0.000000    0.472275    0.000000
      2          6           0        1.284087    0.150667    0.000000
      3          1           0        2.057861    0.908054    0.000000
      4          1           0        1.608253   -0.884727    0.000000
      5          1           0       -0.276344    1.523551    0.000000
      6          6           0       -1.131515   -0.504274    0.000000
      7          1           0       -0.770118   -1.533353    0.000000
      8          1           0       -1.767541   -0.362766    0.877636
      9          1           0       -1.767541   -0.362766   -0.877636
 ---------------------------------------------------------------------
 Rotational constants (GHZ):     47.1455910      9.3682952      8.2095188
 Leave Link  202 at Fri Jul  9 19:20:09 2021, MaxMem=  4194304000 cpu:         0.0
 (Enter /home/minenky/programs//g09/l301.exe)
 Standard basis: def2TZVP (5D, 7F)
 Ernie: Thresh=  0.10000D-02 Tol=  0.10000D-05 Strict=F.
 There are   101 symmetry adapted cartesian basis functions of A'  symmetry.
 There are    43 symmetry adapted cartesian basis functions of A"  symmetry.
 There are    89 symmetry adapted basis functions of A'  symmetry.
 There are    40 symmetry adapted basis functions of A"  symmetry.
   129 basis functions,   201 primitive gaussians,   144 cartesian basis functions
    12 alpha electrons       12 beta electrons
       nuclear repulsion energy        70.9814631428 Hartrees.
 IExCor= 4639 DFT=T Ex+Corr=wB97XD ExCW=0 ScaHFX=  1.000000
 ScaDFX=  1.000000  1.000000  1.000000  1.000000 ScalE2=  1.000000  1.000000
 IRadAn=      5 IRanWt=     -1 IRanGd=            0 ICorTp=0 IEmpDi=121
  HFx wShort=  0.000000 wLong=  0.200000 cFull=  0.222036 cShort=  0.000000 cLong=  0.777964
  DFx wShort=  0.000000 wLong=  0.200000 cFull=  0.000000 cShort=  0.000000 cLong=  1.000000
 NAtoms=    9 NActive=    9 NUniq=    8 SFac= 1.27D+00 NAtFMM=   60 NAOKFM=F Big=F
 Integral buffers will be    131072 words long.
 Raffenetti 2 integral format.
 Two-electron integral symmetry is turned on.
 R6Disp:  Grimme-D2 Dispersion energy=       -0.0023155387 Hartrees.
 Nuclear repulsion after empirical dispersion term =       70.9791476041 Hartrees.
 Leave Link  301 at Fri Jul  9 19:20:09 2021, MaxMem=  4194304000 cpu:         0.3
 (Enter /home/minenky/programs//g09/l302.exe)
 NPDir=0 NMtPBC=     1 NCelOv=     1 NCel=       1 NClECP=     1 NCelD=      1
         NCelK=      1 NCelE2=     1 NClLst=     1 CellRange=     0.0.
 One-electron integrals computed using PRISM.
 One-electron integral symmetry used in STVInt
   2 Symmetry operations used in ECPInt.
 ECPInt:  NShTT=    1653 NPrTT=    4740 LenC2=    1652 LenP2D=    4221.
 LDataN:  DoStor=T MaxTD1= 6 Len=  172
 NBasis=   129 RedAO= T EigKep=  2.40D-04  NBF=    89    40
 NBsUse=   129 1.00D-06 EigRej= -1.00D+00 NBFU=    89    40
 Precomputing XC quadrature grid using
 IXCGrd= 4 IRadAn=           5 IRanWt=          -1 IRanGd=           0 AccXCQ= 0.00D+00.
 Generated NRdTot=       0 NPtTot=           0 NUsed=           0 NTot=          32
 NSgBfM=   144   144   144   144   144 MxSgAt=     9 MxSgA2=     9.
 Leave Link  302 at Fri Jul  9 19:20:10 2021, MaxMem=  4194304000 cpu:         2.5
 (Enter /home/minenky/programs//g09/l303.exe)
 DipDrv:  MaxL=1.
 Leave Link  303 at Fri Jul  9 19:20:10 2021, MaxMem=  4194304000 cpu:         2.2
 (Enter /home/minenky/programs//g09/l401.exe)
 Initial guess from the checkpoint file:  "m1_00_115-07-10_C3H6_wB97XD.chk"
 B after Tr=     0.000000    0.000000    0.000000
         Rot=    1.000000    0.000000    0.000000   -0.000095 Ang=  -0.01 deg.
 Guess basis will be translated and rotated to current coordinates.
 JPrj=2 DoOrth=T DoCkMO=T.
 Initial guess orbital symmetries:
       Occupied  (A') (A') (A') (A') (A') (A') (A') (A') (A") (A')
                 (A') (A")
       Virtual   (A') (A') (A') (A') (A') (A') (A') (A') (A') (A')
                 (A') (A') (A') (A') (A') (A') (A') (A') (A') (A')
                 (A') (A') (A') (A') (A') (A') (A') (A') (A') (A')
                 (A') (A') (A') (A') (A') (A') (A') (A') (A') (A')
                 (A') (A') (A') (A') (A') (A') (A') (A') (A') (A')
                 (A') (A') (A') (A') (A') (A') (A') (A') (A') (A')
                 (A') (A') (A') (A') (A') (A') (A') (A') (A') (A')
                 (A') (A') (A') (A') (A') (A') (A') (A') (A') (A")
[...]
      8 -0.593683D-03  0.532252D-03  0.697799D-02  0.241948D-03 -0.113250D-03
      9  0.110061D-01  0.649120D-02 -0.250029D-01 -0.321230D-02  0.551432D-02
     10  0.140402D-01 -0.127363D-01  0.201194D-01  0.492666D-02 -0.515348D-02
     11 -0.250464D-01  0.624506D-02  0.488350D-02 -0.171435D-02 -0.360838D-03
     12  0.116361D-01 -0.306775D-02  0.441618D-02  0.508745D-02 -0.121134D-01
     13  0.103048D-01  0.415716D-02 -0.398014D-02 -0.113337D-01  0.619382D-02
     14 -0.219410D-01 -0.108941D-02 -0.436043D-03  0.624630D-02  0.591962D-02
     15 -0.327607D-02  0.345550D-02  0.164756D-01 -0.877904D-03  0.168383D-02
     16  0.269299D-02 -0.564527D-03  0.143063D-01  0.651564D-03 -0.265122D-03
     17  0.269299D-02 -0.564527D-03  0.143063D-01  0.651564D-03 -0.265122D-03
     18 -0.276412D-03 -0.115303D-02 -0.150589D-01  0.103986D-03 -0.644004D-03
     19 -0.276412D-03 -0.115303D-02 -0.150589D-01  0.103986D-03 -0.644004D-03
     20 -0.159551D-02 -0.205520D-03 -0.175847D-01 -0.641561D-03  0.460699D-04
     21  0.000000D+00  0.000000D+00  0.000000D+00  0.000000D+00  0.000000D+00
     22  0.000000D+00  0.000000D+00  0.000000D+00  0.000000D+00  0.000000D+00
     23  0.000000D+00  0.000000D+00  0.000000D+00  0.000000D+00  0.000000D+00
     24  0.000000D+00  0.000000D+00  0.000000D+00  0.000000D+00  0.000000D+00
     25  0.000000D+00  0.000000D+00  0.000000D+00  0.000000D+00  0.000000D+00
     26 -0.727242D-03  0.488980D-03  0.181330D-02 -0.167040D-04  0.140778D-03
     27  0.727242D-03 -0.488980D-03 -0.181330D-02  0.167040D-04 -0.140778D-03
     28  0.000000D+00  0.000000D+00  0.000000D+00  0.000000D+00  0.000000D+00
     29 -0.727242D-03  0.488980D-03  0.181330D-02 -0.167040D-04  0.140778D-03
     30  0.727242D-03 -0.488980D-03 -0.181330D-02  0.167040D-04 -0.140778D-03
                6             7             8             9            10 
      6  0.343130D+00
      7  0.200719D-02  0.337444D+00
      8  0.200719D-02  0.299286D-02  0.337444D+00
      9  0.578756D-03 -0.168576D-02 -0.168576D-02  0.939273D-01
     10 -0.533744D-02  0.298968D-02  0.298968D-02 -0.595627D-01  0.116629D+00
     11  0.475869D-02 -0.130392D-02 -0.130392D-02 -0.343646D-01 -0.570659D-01
     12 -0.188275D-03  0.435799D-03  0.435799D-03 -0.793447D-02  0.894153D-02
     13  0.968350D-03 -0.353067D-03 -0.353067D-03  0.935177D-02 -0.688251D-02
     14 -0.780076D-03 -0.827312D-04 -0.827312D-04 -0.141730D-02 -0.205902D-02
     15  0.259023D-02 -0.591446D-02 -0.591446D-02 -0.308523D-02 -0.118098D-01
     16 -0.605532D-02  0.331247D-02 -0.654562D-02 -0.155104D-02  0.929292D-02
     17 -0.605532D-02 -0.654562D-02  0.331247D-02 -0.155104D-02  0.929292D-02
     18  0.534349D-02  0.501749D-02 -0.946213D-03  0.208223D-02  0.111588D-03
     19  0.534349D-02 -0.946213D-03  0.501749D-02  0.208223D-02  0.111588D-03
     20 -0.845772D-03  0.570856D-02  0.570856D-02  0.240138D-02 -0.712837D-02
     21  0.000000D+00  0.499429D-03 -0.499429D-03  0.000000D+00  0.000000D+00
     22  0.000000D+00  0.361641D-03 -0.361641D-03  0.000000D+00  0.000000D+00
     23  0.000000D+00  0.103999D-02 -0.103999D-02  0.000000D+00  0.000000D+00
     24  0.000000D+00  0.902206D-03 -0.902206D-03  0.000000D+00  0.000000D+00
     25  0.000000D+00 -0.471536D-02  0.471536D-02  0.000000D+00  0.000000D+00
     26  0.439820D-02 -0.826073D-04 -0.496584D-02 -0.505023D-03 -0.149832D-02
     27 -0.439820D-02  0.496584D-02  0.826073D-04  0.505023D-03  0.149832D-02
     28  0.000000D+00 -0.418801D-02  0.418801D-02  0.000000D+00  0.000000D+00
     29  0.439820D-02  0.444740D-03 -0.549319D-02 -0.505023D-03 -0.149832D-02
     30 -0.439820D-02  0.549319D-02 -0.444740D-03  0.505023D-03  0.149832D-02
               11            12            13            14            15 
     11  0.914305D-01
     12 -0.100706D-02  0.813709D-01
     13 -0.246926D-02 -0.455638D-01  0.818076D-01
     14  0.347632D-02 -0.358071D-01 -0.362438D-01  0.720510D-01
     15  0.148950D-01 -0.622407D-03  0.754884D-03 -0.132477D-03  0.105140D+00
     16 -0.774188D-02  0.116805D-02 -0.618476D-03 -0.549576D-03 -0.219335D-01
     17 -0.774188D-02  0.116805D-02 -0.618476D-03 -0.549576D-03 -0.219335D-01
     18 -0.219381D-02 -0.431688D-03 -0.978125D-05  0.441470D-03 -0.383931D-01
     19 -0.219381D-02 -0.431688D-03 -0.978125D-05  0.441470D-03 -0.383931D-01
     20  0.472699D-02 -0.924117D-03  0.512993D-03  0.411124D-03  0.105898D-01
     21  0.000000D+00  0.000000D+00  0.000000D+00  0.000000D+00  0.000000D+00
     22  0.000000D+00  0.000000D+00  0.000000D+00  0.000000D+00  0.000000D+00
     23  0.000000D+00  0.000000D+00  0.000000D+00  0.000000D+00  0.000000D+00
     24  0.000000D+00  0.000000D+00  0.000000D+00  0.000000D+00  0.000000D+00
     25  0.000000D+00  0.000000D+00  0.000000D+00  0.000000D+00  0.000000D+00
     26  0.200334D-02 -0.170795D-03  0.756774D-04  0.951173D-04  0.742205D-02
     27 -0.200334D-02  0.170795D-03 -0.756774D-04 -0.951173D-04 -0.742205D-02
     28  0.000000D+00  0.000000D+00  0.000000D+00  0.000000D+00  0.000000D+00
     29  0.200334D-02 -0.170795D-03  0.756774D-04  0.951173D-04  0.742205D-02
     30 -0.200334D-02  0.170795D-03 -0.756774D-04 -0.951173D-04 -0.742205D-02
               16            17            18            19            20 
     16  0.101281D+00
     17 -0.169568D-01  0.101281D+00
     18 -0.376068D-01  0.101297D-01  0.554512D-01
     19  0.101297D-01 -0.376068D-01  0.749149D-02  0.554512D-01
     20 -0.376923D-01 -0.376923D-01  0.674494D-02  0.674494D-02  0.547745D-01
     21  0.229319D-02 -0.229319D-02 -0.330517D-03  0.330517D-03  0.000000D+00
     22  0.193835D-03 -0.193835D-03  0.285780D-03 -0.285780D-03  0.000000D+00
     23  0.539378D-02 -0.539378D-02 -0.131924D-02  0.131924D-02  0.000000D+00
     24  0.329442D-02 -0.329442D-02 -0.702940D-03  0.702940D-03  0.000000D+00
     25 -0.846042D-02  0.846042D-02 -0.902787D-02  0.902787D-02  0.000000D+00
     26 -0.180697D-02 -0.511924D-02  0.968100D-02 -0.522364D-03 -0.100403D-01
     27  0.511924D-02  0.180697D-02  0.522364D-03 -0.968100D-02  0.100403D-01
     28 -0.543565D-02  0.543565D-02 -0.999241D-02  0.999241D-02  0.000000D+00
     29  0.121780D-02 -0.814401D-02  0.871645D-02  0.442180D-03 -0.100403D-01
     30  0.814401D-02 -0.121780D-02 -0.442180D-03 -0.871645D-02  0.100403D-01
               21            22            23            24            25 
     21  0.191196D-01
     22  0.432901D-03  0.217125D-01
     23  0.160279D-01 -0.510486D-02  0.216663D-01
     24 -0.265871D-02  0.161747D-01  0.533467D-03  0.193669D-01
     25  0.901712D-03  0.258888D-02 -0.377134D-02 -0.208417D-02  0.142607D-01
     26  0.205009D-02  0.308432D-02 -0.175829D-02 -0.724069D-03 -0.298854D-02
     27  0.205009D-02  0.308432D-02 -0.175829D-02 -0.724069D-03 -0.298854D-02
     28 -0.211430D-02 -0.281347D-02  0.172911D-02  0.102994D-02  0.970191D-02
     29 -0.965915D-03 -0.231803D-02  0.374216D-02  0.239005D-02 -0.754732D-02
     30 -0.965915D-03 -0.231803D-02  0.374216D-02  0.239005D-02 -0.754732D-02
               26            27            28            29            30 
     26  0.130935D-01
     27 -0.384898D-02  0.130935D-01
     28 -0.670380D-02 -0.670380D-02  0.134513D-01
     29  0.937826D-02 -0.756424D-02 -0.295437D-02  0.139712D-01
     30 -0.756424D-02  0.937826D-02 -0.295437D-02 -0.297130D-02  0.139712D-01
 Leave Link  716 at Fri Jul  9 19:21:23 2021, MaxMem=  4194304000 cpu:         8.0
 (Enter /home/minenky/programs//g09/l103.exe)

 GradGradGradGradGradGradGradGradGradGradGradGradGradGradGradGradGradGrad
 Berny optimization.
 Red2BG is reusing G-inverse.
 Internal  Forces:  Max     0.000005159 RMS     0.000001520
 Search for a local minimum.
 Step number   1 out of a maximum of    2
 All quantities printed in internal units (Hartrees-Bohrs-Radians)
 Second derivative matrix not updated -- analytic derivatives used.
 ITU=  0
     Eigenvalues ---    0.00223   0.02007   0.03220   0.04050   0.05656
     Eigenvalues ---    0.05779   0.10523   0.11273   0.12200   0.12465
     Eigenvalues ---    0.14339   0.14639   0.18476   0.32336   0.33552
     Eigenvalues ---    0.34142   0.34796   0.35400   0.35908   0.36415
     Eigenvalues ---    0.65268
 Angle between quadratic step and forces=  33.27 degrees.
 Linear search not attempted -- first point.
 Iteration  1 RMS(Cart)=  0.00001330 RMS(Int)=  0.00000000
 Iteration  2 RMS(Cart)=  0.00000000 RMS(Int)=  0.00000000
 ITry= 1 IFail=0 DXMaxC= 2.82D-05 DCOld= 1.00D+10 DXMaxT= 3.00D-01 DXLimC= 3.00D+00 Rises=F
 ClnCor:  largest displacement from symmetrization is 9.28D-14 for atom     2.
 Variable       Old X    -DE/DX   Delta X   Delta X   Delta X     New X
                                 (Linear)    (Quad)   (Total)
    R1        2.50154  -0.00001   0.00000  -0.00001  -0.00001   2.50153
    R2        2.05415   0.00000   0.00000   0.00000   0.00000   2.05415
    R3        2.82462   0.00000   0.00000   0.00001   0.00001   2.82463
    R4        2.04609   0.00000   0.00000   0.00000   0.00000   2.04609
    R5        2.05026   0.00000   0.00000   0.00000   0.00000   2.05026
    R6        2.06114   0.00000   0.00000   0.00000   0.00000   2.06113
    R7        2.06555   0.00000   0.00000   0.00000   0.00000   2.06555
    R8        2.06555   0.00000   0.00000   0.00000   0.00000   2.06555
    A1        2.07330   0.00000   0.00000   0.00001   0.00001   2.07331
    A2        2.18429   0.00000   0.00000   0.00001   0.00001   2.18430
    A3        2.02560   0.00000   0.00000  -0.00002  -0.00002   2.02557
    A4        2.12141   0.00000   0.00000  -0.00001  -0.00001   2.12140
    A5        2.11962   0.00000   0.00000  -0.00001  -0.00001   2.11962
    A6        2.04215   0.00000   0.00000   0.00002   0.00002   2.04217
    A7        1.94504   0.00000   0.00000   0.00000   0.00000   1.94504
    A8        1.93454   0.00000   0.00000  -0.00002  -0.00002   1.93452
    A9        1.93454   0.00000   0.00000  -0.00002  -0.00002   1.93452
   A10        1.89126   0.00000   0.00000   0.00001   0.00001   1.89127
   A11        1.89126   0.00000   0.00000   0.00001   0.00001   1.89127
   A12        1.86457   0.00000   0.00000   0.00002   0.00002   1.86459
    D1        0.00000   0.00000   0.00000   0.00000   0.00000   0.00000
    D2        3.14159   0.00000   0.00000   0.00000   0.00000   3.14159
    D3        3.14159   0.00000   0.00000   0.00000   0.00000   3.14159
    D4        0.00000   0.00000   0.00000   0.00000   0.00000   0.00000
    D5        0.00000   0.00000   0.00000   0.00000   0.00000   0.00000
    D6        2.10789   0.00000   0.00000   0.00000   0.00000   2.10789
    D7       -2.10789   0.00000   0.00000   0.00000   0.00000  -2.10789
    D8        3.14159   0.00000   0.00000   0.00000   0.00000   3.14159
    D9       -1.03371   0.00000   0.00000   0.00000   0.00000  -1.03371
   D10        1.03371   0.00000   0.00000   0.00000   0.00000   1.03371
         Item               Value     Threshold  Converged?
 Maximum Force            0.000005     0.000015     YES
 RMS     Force            0.000002     0.000010     YES
 Maximum Displacement     0.000028     0.000060     YES
 RMS     Displacement     0.000013     0.000040     YES
 Predicted change in Energy=-1.805267D-10
 Optimization completed.
    -- Stationary point found.
                           ----------------------------
                           !   Optimized Parameters   !
                           ! (Angstroms and Degrees)  !
 --------------------------                            --------------------------
 ! Name  Definition              Value          Derivative Info.                !
 --------------------------------------------------------------------------------
 ! R1    R(1,2)                  1.3238         -DE/DX =    0.0                 !
 ! R2    R(1,5)                  1.087          -DE/DX =    0.0                 !
 ! R3    R(1,6)                  1.4947         -DE/DX =    0.0                 !
 ! R4    R(2,3)                  1.0827         -DE/DX =    0.0                 !
 ! R5    R(2,4)                  1.085          -DE/DX =    0.0                 !
 ! R6    R(6,7)                  1.0907         -DE/DX =    0.0                 !
 ! R7    R(6,8)                  1.093          -DE/DX =    0.0                 !
 ! R8    R(6,9)                  1.093          -DE/DX =    0.0                 !
 ! A1    A(2,1,5)              118.7911         -DE/DX =    0.0                 !
 ! A2    A(2,1,6)              125.1508         -DE/DX =    0.0                 !
 ! A3    A(5,1,6)              116.0581         -DE/DX =    0.0                 !
 ! A4    A(1,2,3)              121.5477         -DE/DX =    0.0                 !
 ! A5    A(1,2,4)              121.4455         -DE/DX =    0.0                 !
 ! A6    A(3,2,4)              117.0068         -DE/DX =    0.0                 !
 ! A7    A(1,6,7)              111.4425         -DE/DX =    0.0                 !
 ! A8    A(1,6,8)              110.841          -DE/DX =    0.0                 !
 ! A9    A(1,6,9)              110.841          -DE/DX =    0.0                 !
 ! A10   A(7,6,8)              108.3612         -DE/DX =    0.0                 !
 ! A11   A(7,6,9)              108.3612         -DE/DX =    0.0                 !
 ! A12   A(8,6,9)              106.8321         -DE/DX =    0.0                 !
 ! D1    D(5,1,2,3)              0.0            -DE/DX =    0.0                 !
 ! D2    D(5,1,2,4)            180.0            -DE/DX =    0.0                 !
 ! D3    D(6,1,2,3)            180.0            -DE/DX =    0.0                 !
 ! D4    D(6,1,2,4)              0.0            -DE/DX =    0.0                 !
 ! D5    D(2,1,6,7)              0.0            -DE/DX =    0.0                 !
 ! D6    D(2,1,6,8)            120.773          -DE/DX =    0.0                 !
 ! D7    D(2,1,6,9)           -120.773          -DE/DX =    0.0                 !
 ! D8    D(5,1,6,7)            180.0            -DE/DX =    0.0                 !
 ! D9    D(5,1,6,8)            -59.227          -DE/DX =    0.0                 !
 ! D10   D(5,1,6,9)             59.227          -DE/DX =    0.0                 !
 --------------------------------------------------------------------------------
 GradGradGradGradGradGradGradGradGradGradGradGradGradGradGradGradGradGrad

 Leave Link  103 at Fri Jul  9 19:21:24 2021, MaxMem=  4194304000 cpu:        11.3
 (Enter /home/minenky/programs//g09/l9999.exe)
 1\1\GINC-CN506-06-R\Freq\RwB97XD\def2TZVP\C3H6\MINENKY\09-Jul-2021\0\\
 #P Geom=AllCheck Guess=TCheck SCRF=Check GenChk RwB97XD/def2TZVP Freq\
 \The PBEPBE optimization and frequencies\\0,1\C,0.0001319457,0.4718925
 342,0.\C,1.2839442031,0.1491482163,0.\H,2.0583166847,0.9059041565,0.\H
 ,1.6071968102,-0.8865285713,0.\H,-0.2753313885,1.5234217921,0.\C,-1.13
 24289076,-0.5035609588,0.\H,-0.7720199837,-1.5330008675,0.\H,-1.768166
 182,-0.3613261508,0.8776976814\H,-1.768166182,-0.3613261508,-0.8776976
 814\\Version=AM64L-G09RevD.01\State=1-A'\HF=-117.9100655\RMSD=2.955e-0
 9\RMSF=2.463e-06\ZeroPoint=0.0801144\Thermal=0.084188\Dipole=-0.160443
 6,-0.0148327,0.\DipoleDeriv=0.3041957,0.0506033,0.,0.1207277,0.1409738
 ,0.,0.,0.,-0.2410815,-0.2026221,-0.0181191,0.,0.0185147,0.0853914,0.,0
 .,0.,-0.3369133,-0.0320908,-0.0548897,0.,-0.0945411,-0.0210834,0.,0.,0
 .,0.1607088,0.0426275,-0.0006828,0.,0.0589333,-0.0985685,0.,0.,0.,0.14
 93931,0.0083678,0.0168569,0.,0.0210513,-0.1267179,0.,0.,0.,0.1416834,-
 0.0656882,-0.0620848,0.,-0.0470644,0.027353,0.,0.,0.,0.1490501,0.00870
 5,0.0936821,0.,0.0015591,-0.1152566,0.,0.,0.,0.0712714,-0.0317475,-0.0
 12683,0.0718946,-0.0395903,0.0539541,-0.0438039,0.1231098,-0.0150494,-
 0.047056,-0.0317475,-0.012683,-0.0718946,-0.0395903,0.0539541,0.043803
 9,-0.1231098,0.0150494,-0.047056\Polar=49.8013315,-0.2483719,34.568886
 1,0.,0.,27.9602584\PG=CS [SG(C3H4),X(H2)]\NImag=0\\0.84062419,-0.09901
 486,0.62611093,0.,0.,0.15575587,-0.55004411,0.11401410,0.,0.86423894,0
 .11394391,-0.14464031,0.,-0.04756004,0.65929143,0.,0.,-0.05427755,0.,0
 .,0.11010599,-0.01844474,-0.02465612,0.,-0.19823562,-0.14023745,0.,0.2
 1136159,0.00942650,0.00848956,0.,-0.14592637,-0.20238110,0.,0.15458968
 ,0.20538729,0.,0.,0.00390192,0.,0.,-0.03483731,0.,0.,0.02392917,-0.005
 70220,0.03177761,0.,-0.08004873,0.07267817,0.,0.00834653,-0.01951548,0
 .,0.08090610,0.00065561,-0.00671858,0.,0.07761091,-0.31366877,0.,0.007
 76949,-0.01394667,0.,-0.08654482,0.33072962,0.,0.,0.00668518,0.,0.,-0.
 03648551,0.,0.,0.00223088,0.,0.,0.02400728,-0.07377024,0.06282207,0.,-
 0.00642177,0.03339085,0.,0.00082620,-0.00018088,0.,-0.00510367,0.00128
 956,0.,0.07899727,0.06735439,-0.31261774,0.,0.00025778,-0.00590909,0.,
 0.00022644,0.00135141,0.,0.00116508,0.00118989,0.,-0.07160826,0.333117
 46,0.,0.,-0.04301090,0.,0.,0.00737016,0.,0.,-0.00811264,0.,0.,0.011823
 12,0.,0.,0.02674573,-0.16461772,-0.06721146,0.,-0.02942273,-0.02379842
 ,0.,-0.00256305,0.00137738,0.,0.00157465,-0.00150044,0.,0.00766071,0.0
 0646291,0.,0.52822689,-0.07461282,-0.15748082,0.,0.00301738,0.00890043
 ,0.,0.00309614,0.00005359,0.,0.00187003,0.00172377,0.,-0.02386800,-0.0
 1659965,0.,-0.04215192,0.55596359,0.,0.,-0.07417536,0.,0.,0.00875168,0
 .,0.,0.01362319,0.,0.,-0.00857690,0.,0.,0.00303690,0.,0.,0.53910589,0.
 00948604,-0.02608197,0.,0.00179478,-0.00111800,0.,0.00025914,0.0002666
 1,0.,-0.00029241,0.00088062,0.,-0.00361935,-0.00335522,0.,-0.07997565,
 0.08841225,0.,0.08512810,0.00830200,-0.02241891,0.,0.00135559,0.002139
 95,0.,0.00007284,0.00049518,0.,-0.00112544,0.00053153,0.,-0.00349907,-
 0.00116086,0.,0.08545479,-0.28469184,0.,-0.09184078,0.31045220,0.,0.,-
 0.00078522,0.,0.,-0.00052547,0.,0.,-0.00018798,0.,0.,0.00018462,0.,0.,
 0.00175934,0.,0.,-0.04790808,0.,0.,0.04524820,-0.01876561,0.00417531,0
 .02002486,-0.00093038,-0.00364951,-0.00025253,-0.00077503,-0.00001872,
 -0.00220854,0.00015986,-0.00008046,0.00136884,0.00071542,-0.00025156,-
 0.00060910,-0.13044155,0.02211847,0.12440978,-0.00639033,0.00064003,0.
 00808013,0.14489569,-0.01302736,0.00463794,0.01930450,-0.00138468,-0.0
 0186627,-0.00045984,-0.00043051,0.00027538,-0.00131375,-0.00015258,0.0
 0007961,0.00027251,0.00082686,0.00031429,-0.00040095,0.02068358,-0.053
 93454,-0.02872644,0.01641824,-0.00267363,-0.02513456,-0.02018390,0.053
 25713,-0.00148393,0.00046295,0.00295303,-0.00074085,0.00040959,-0.0000
 5100,-0.00005557,-0.00007414,-0.00027361,-0.00005938,0.00001331,0.0000
 6566,0.00043853,0.00046767,0.00019414,0.12350644,-0.02972025,-0.216928
 66,-0.00185401,0.00015260,0.00110729,-0.13528233,0.03237341,0.23471221
 ,-0.01876561,0.00417531,-0.02002486,-0.00093038,-0.00364951,0.00025253
 ,-0.00077503,-0.00001872,0.00220854,0.00015986,-0.00008046,-0.00136884
 ,0.00071542,-0.00025156,0.00060910,-0.13044155,0.02211847,-0.12440978,
 -0.00639033,0.00064003,-0.00808013,0.01153193,-0.00274966,0.01553110,0
 .14489569,-0.01302736,0.00463794,-0.01930450,-0.00138468,-0.00186627,0
 .00045984,-0.00043051,0.00027538,0.00131375,-0.00015258,0.00007961,-0.
 00027251,0.00082686,0.00031429,0.00040095,0.02068358,-0.05393454,0.028
 72644,0.01641824,-0.00267363,0.02513456,-0.00274966,-0.00008991,-0.004
 08514,-0.02018390,0.05325713,0.00148393,-0.00046295,0.00295303,0.00074
 085,-0.00040959,-0.00005100,0.00005557,0.00007414,-0.00027361,0.000059
 38,-0.00001331,0.00006566,-0.00043853,-0.00046767,0.00019414,-0.123506
 44,0.02972025,-0.21692866,0.00185401,-0.00015260,0.00110729,-0.0155311
 0,0.00408514,-0.02177906,0.13528233,-0.03237341,0.23471221\\-0.0000090
 4,-0.00000208,0.,0.00000268,0.00000242,0.,-0.00000007,-0.00000006,0.,0
 .00000219,0.00000013,0.,0.00000030,0.00000179,0.,0.00000489,0.00000390
 ,0.,0.00000127,-0.00000184,0.,-0.00000110,-0.00000213,-0.00000073,-0.0
 0000110,-0.00000213,0.00000073\\\@


 One man practicing sportsmanship is far better than 50 preaching it.
 -- Knute K. Rockne
 Job cpu time:       0 days  0 hours 11 minutes 20.9 seconds.
 File lengths (MBytes):  RWF=     16 Int=      0 D2E=      0 Chk=      2 Scr=      1
 Normal termination of Gaussian 09 at Fri Jul  9 19:21:24 2021.
