 Entering Gaussian System, Link 0=g09
 Initial command:
 /home/minenky/programs//g09/l1.exe "/local/scratch/minenky/m1_00_74-84-00_C2H6_wB97XD/Gau-98639.inp" -scrdir="/local/scratch/minenky/m1_00_74-84-00_C2H6_wB97XD/"
 Entering Link 1 = /home/minenky/programs//g09/l1.exe PID=     98647.
  
 Copyright (c) 1988,1990,1992,1993,1995,1998,2003,2009,2013,
            Gaussian, Inc.  All Rights Reserved.
  
 This is part of the Gaussian(R) 09 program.  It is based on
 the Gaussian(R) 03 system (copyright 2003, Gaussian, Inc.),
 the Gaussian(R) 98 system (copyright 1998, Gaussian, Inc.),
 the Gaussian(R) 94 system (copyright 1995, Gaussian, Inc.),
 the Gaussian 92(TM) system (copyright 1992, Gaussian, Inc.),
 the Gaussian 90(TM) system (copyright 1990, Gaussian, Inc.),
 the Gaussian 88(TM) system (copyright 1988, Gaussian, Inc.),
 the Gaussian 86(TM) system (copyright 1986, Carnegie Mellon
 University), and the Gaussian 82(TM) system (copyright 1983,
 Carnegie Mellon University). Gaussian is a federally registered
 trademark of Gaussian, Inc.
  
 This software contains proprietary and confidential information,
 including trade secrets, belonging to Gaussian, Inc.
  
 This software is provided under written license and may be
 used, copied, transmitted, or stored only in accord with that
 written license.
  
 The following legend is applicable only to US Government
 contracts under FAR:
  
                    RESTRICTED RIGHTS LEGEND
  
 Use, reproduction and disclosure by the US Government is
 subject to restrictions as set forth in subparagraphs (a)
 and (c) of the Commercial Computer Software - Restricted
 Rights clause in FAR 52.227-19.
  
 Gaussian, Inc.
 340 Quinnipiac St., Bldg. 40, Wallingford CT 06492
  
  
 ---------------------------------------------------------------
 Warning -- This program may not be used in any manner that
 competes with the business of Gaussian, Inc. or will provide
 assistance to any competitor of Gaussian, Inc.  The licensee
 of this program is prohibited from giving any competitor of
 Gaussian, Inc. access to this program.  By using this program,
 the user acknowledges that Gaussian, Inc. is engaged in the
 business of creating and licensing software in the field of
 computational chemistry and represents and warrants to the
 licensee that it is not a competitor of Gaussian, Inc. and that
 it will not use this program in any manner prohibited above.
 ---------------------------------------------------------------
  

 Cite this work as:
 Gaussian 09, Revision D.01,
 M. J. Frisch, G. W. Trucks, H. B. Schlegel, G. E. Scuseria, 
 M. A. Robb, J. R. Cheeseman, G. Scalmani, V. Barone, B. Mennucci, 
 G. A. Petersson, H. Nakatsuji, M. Caricato, X. Li, H. P. Hratchian, 
 A. F. Izmaylov, J. Bloino, G. Zheng, J. L. Sonnenberg, M. Hada, 
 M. Ehara, K. Toyota, R. Fukuda, J. Hasegawa, M. Ishida, T. Nakajima, 
 Y. Honda, O. Kitao, H. Nakai, T. Vreven, J. A. Montgomery, Jr., 
 J. E. Peralta, F. Ogliaro, M. Bearpark, J. J. Heyd, E. Brothers, 
 K. N. Kudin, V. N. Staroverov, T. Keith, R. Kobayashi, J. Normand, 
 K. Raghavachari, A. Rendell, J. C. Burant, S. S. Iyengar, J. Tomasi, 
 M. Cossi, N. Rega, J. M. Millam, M. Klene, J. E. Knox, J. B. Cross, 
 V. Bakken, C. Adamo, J. Jaramillo, R. Gomperts, R. E. Stratmann, 
 O. Yazyev, A. J. Austin, R. Cammi, C. Pomelli, J. W. Ochterski, 
 R. L. Martin, K. Morokuma, V. G. Zakrzewski, G. A. Voth, 
 P. Salvador, J. J. Dannenberg, S. Dapprich, A. D. Daniels, 
 O. Farkas, J. B. Foresman, J. V. Ortiz, J. Cioslowski, 
 and D. J. Fox, Gaussian, Inc., Wallingford CT, 2013.
 
 ******************************************
 Gaussian 09:  AM64L-G09RevD.01 24-Apr-2013
                 9-Jul-2021 
 ******************************************
 %Mem=32000MB
 %NProcShared=16
 Will use up to   16 processors via shared memory.
 %Chk=m1_00_74-84-00_C2H6_wB97XD
 ----------------------------------------------------------------------
 #P wB97XD/def2tzvp opt=(tight) freq integral(Grid=ultrafine) # SCF(Max
 Cycle=380) 5d 7f GFPrint
 ----------------------------------------------------------------------
 1/7=10,14=-1,18=20,19=15,26=4,38=1/1,3;
 2/9=110,12=2,17=6,18=5,40=1/2;
 3/5=44,7=101,8=11,11=2,16=1,24=100,25=1,30=1,71=1,74=-58,75=-5/1,2,3;
 4//1;
 5/5=2,7=380,38=5/2;
 6/7=2,8=2,9=2,10=2,28=1/1;
 7//1,2,3,16;
 1/7=10,14=-1,18=20,19=15,26=4/3(2);
 2/9=110/2;
 99//99;
 2/9=110/2;
 3/5=44,7=101,8=11,11=2,16=1,25=1,30=1,71=1,74=-58,75=-5/1,2,3;
 4/5=5,16=3,69=1/1;
 5/5=2,7=380,38=5/2;
 7//1,2,3,16;
 1/7=10,14=-1,18=20,19=15,26=4/3(-5);
 2/9=110/2;
 6/7=2,8=2,9=2,10=2,19=2,28=1/1;
 99/9=1/99;
 Leave Link    1 at Fri Jul  9 19:19:35 2021, MaxMem=  4194304000 cpu:         1.7
 (Enter /home/minenky/programs//g09/l101.exe)
 ---------------------------------------
 The PBEPBE optimization and frequencies
 ---------------------------------------
 Symbolic Z-matrix:
 Charge =  0 Multiplicity = 1
 C                     0.        0.        0.7631 
 C                     0.        0.       -0.7631 
 H                     0.        1.01712   1.16015 
 H                    -0.88085  -0.50856   1.16015 
 H                     0.88085  -0.50856   1.16015 
 H                     0.       -1.01712  -1.16015 
 H                    -0.88085   0.50856  -1.16015 
 H                     0.88085   0.50856  -1.16015 
 
 NAtoms=      8 NQM=        8 NQMF=       0 NMMI=      0 NMMIF=      0
                NMic=       0 NMicF=      0.
                    Isotopes and Nuclear Properties:
 (Nuclear quadrupole moments (NQMom) in fm**2, nuclear magnetic moments (NMagM)
  in nuclear magnetons)

  Atom         1           2           3           4           5           6           7           8
 IAtWgt=          12          12           1           1           1           1           1           1
 AtmWgt=  12.0000000  12.0000000   1.0078250   1.0078250   1.0078250   1.0078250   1.0078250   1.0078250
 NucSpn=           0           0           1           1           1           1           1           1
 AtZEff=   0.0000000   0.0000000   0.0000000   0.0000000   0.0000000   0.0000000   0.0000000   0.0000000
 NQMom=    0.0000000   0.0000000   0.0000000   0.0000000   0.0000000   0.0000000   0.0000000   0.0000000
 NMagM=    0.0000000   0.0000000   2.7928460   2.7928460   2.7928460   2.7928460   2.7928460   2.7928460
 AtZNuc=   6.0000000   6.0000000   1.0000000   1.0000000   1.0000000   1.0000000   1.0000000   1.0000000
 Leave Link  101 at Fri Jul  9 19:19:35 2021, MaxMem=  4194304000 cpu:         1.6
 (Enter /home/minenky/programs//g09/l103.exe)

 GradGradGradGradGradGradGradGradGradGradGradGradGradGradGradGradGradGrad
 Berny optimization.
 Initialization pass.
                           ----------------------------
                           !    Initial Parameters    !
                           ! (Angstroms and Degrees)  !
 --------------------------                            --------------------------
 ! Name  Definition              Value          Derivative Info.                !
 --------------------------------------------------------------------------------
 ! R1    R(1,2)                  1.5262         estimate D2E/DX2                !
 ! R2    R(1,3)                  1.0919         estimate D2E/DX2                !
 ! R3    R(1,4)                  1.0919         estimate D2E/DX2                !
 ! R4    R(1,5)                  1.0919         estimate D2E/DX2                !
 ! R5    R(2,6)                  1.0919         estimate D2E/DX2                !
 ! R6    R(2,7)                  1.0919         estimate D2E/DX2                !
 ! R7    R(2,8)                  1.0919         estimate D2E/DX2                !
 ! A1    A(2,1,3)              111.3239         estimate D2E/DX2                !
 ! A2    A(2,1,4)              111.3239         estimate D2E/DX2                !
 ! A3    A(2,1,5)              111.3239         estimate D2E/DX2                !
 ! A4    A(3,1,4)              107.5567         estimate D2E/DX2                !
 ! A5    A(3,1,5)              107.5567         estimate D2E/DX2                !
 ! A6    A(4,1,5)              107.5567         estimate D2E/DX2                !
 ! A7    A(1,2,6)              111.3239         estimate D2E/DX2                !
 ! A8    A(1,2,7)              111.3239         estimate D2E/DX2                !
 ! A9    A(1,2,8)              111.3239         estimate D2E/DX2                !
 ! A10   A(6,2,7)              107.5567         estimate D2E/DX2                !
 ! A11   A(6,2,8)              107.5567         estimate D2E/DX2                !
 ! A12   A(7,2,8)              107.5567         estimate D2E/DX2                !
 ! D1    D(3,1,2,6)            180.0            estimate D2E/DX2                !
 ! D2    D(3,1,2,7)            -60.0            estimate D2E/DX2                !
 ! D3    D(3,1,2,8)             60.0            estimate D2E/DX2                !
 ! D4    D(4,1,2,6)            -60.0            estimate D2E/DX2                !
 ! D5    D(4,1,2,7)             60.0            estimate D2E/DX2                !
 ! D6    D(4,1,2,8)            180.0            estimate D2E/DX2                !
 ! D7    D(5,1,2,6)             60.0            estimate D2E/DX2                !
 ! D8    D(5,1,2,7)            180.0            estimate D2E/DX2                !
 ! D9    D(5,1,2,8)            -60.0            estimate D2E/DX2                !
 --------------------------------------------------------------------------------
 Trust Radius=3.00D-01 FncErr=1.00D-07 GrdErr=1.00D-06
 Number of steps in this run=     38 maximum allowed number of steps=    100.
 GradGradGradGradGradGradGradGradGradGradGradGradGradGradGradGradGradGrad

 Leave Link  103 at Fri Jul  9 19:19:36 2021, MaxMem=  4194304000 cpu:         0.1
 (Enter /home/minenky/programs//g09/l202.exe)
                          Input orientation:                          
 ---------------------------------------------------------------------
 Center     Atomic      Atomic             Coordinates (Angstroms)
 Number     Number       Type             X           Y           Z
 ---------------------------------------------------------------------
      1          6           0        0.000000    0.000000    0.763099
      2          6           0        0.000000    0.000000   -0.763099
      3          1           0        0.000000    1.017118    1.160146
      4          1           0       -0.880850   -0.508559    1.160146
      5          1           0        0.880850   -0.508559    1.160146
      6          1           0        0.000000   -1.017118   -1.160146
      7          1           0       -0.880850    0.508559   -1.160146
      8          1           0        0.880850    0.508559   -1.160146
 ---------------------------------------------------------------------
                    Distance matrix (angstroms):
                    1          2          3          4          5
     1  C    0.000000
     2  C    1.526198   0.000000
     3  H    1.091868   2.175638   0.000000
     4  H    1.091868   2.175638   1.761700   0.000000
     5  H    1.091868   2.175638   1.761700   1.761700   0.000000
     6  H    2.175638   1.091868   3.085753   2.533433   2.533433
     7  H    2.175638   1.091868   2.533433   2.533433   3.085753
     8  H    2.175638   1.091868   2.533433   3.085753   2.533433
                    6          7          8
     6  H    0.000000
     7  H    1.761700   0.000000
     8  H    1.761700   1.761700   0.000000
 Stoichiometry    C2H6
 Framework group  D3D[C3(C.C),3SGD(H2)]
 Deg. of freedom     3
 Full point group                 D3D     NOp  12
 Largest Abelian subgroup         C2H     NOp   4
 Largest concise Abelian subgroup C2H     NOp   4
                         Standard orientation:                         
 ---------------------------------------------------------------------
 Center     Atomic      Atomic             Coordinates (Angstroms)
 Number     Number       Type             X           Y           Z
 ---------------------------------------------------------------------
      1          6           0        0.000000    0.000000    0.763099
      2          6           0        0.000000    0.000000   -0.763099
      3          1           0        0.000000    1.017118    1.160146
      4          1           0       -0.880850   -0.508559    1.160146
      5          1           0        0.880850   -0.508559    1.160146
      6          1           0        0.000000   -1.017118   -1.160146
      7          1           0       -0.880850    0.508559   -1.160146
      8          1           0        0.880850    0.508559   -1.160146
 ---------------------------------------------------------------------
 Rotational constants (GHZ):     80.7863752     20.0210526     20.0210526
 Leave Link  202 at Fri Jul  9 19:19:36 2021, MaxMem=  4194304000 cpu:         0.4
 (Enter /home/minenky/programs//g09/l301.exe)
 Standard basis: def2TZVP (5D, 7F)
 ======================================================================================================
                                       Pseudopotential Parameters
 ======================================================================================================
  Center     Atomic      Valence      Angular      Power
  Number     Number     Electrons     Momentum     of R      Exponent        Coefficient   SO-Coeffient
 ======================================================================================================
    1          6
                                   No pseudopotential on this center.
    2          6
                                   No pseudopotential on this center.
    3          1
                                   No pseudopotential on this center.
    4          1
                                   No pseudopotential on this center.
    5          1
                                   No pseudopotential on this center.
    6          1
                                   No pseudopotential on this center.
    7          1
                                   No pseudopotential on this center.
    8          1
                                   No pseudopotential on this center.
 ======================================================================================================
 Ernie: Thresh=  0.10000D-02 Tol=  0.10000D-05 Strict=F.
 AO basis set (Overlap normalization):
 Atom C1       Shell     1 S   6     bf    1 -     1          0.000000000000          0.000000000000          1.442048122279
      0.1357534968D+05  0.6064550360D-03
      0.2035233368D+04  0.4697908888D-02
      0.4632256236D+03  0.2433247765D-01
      0.1312001960D+03  0.9739996831D-01
      0.4285301589D+02  0.3019558425D+00
      0.1558418577D+02  0.6623360914D+00
 Atom C1       Shell     2 S   2     bf    2 -     2          0.000000000000          0.000000000000          1.442048122279
      0.6206713851D+01  0.6559530854D+00
      0.2576489653D+01  0.3758563329D+00
 Atom C1       Shell     3 S   1     bf    3 -     3          0.000000000000          0.000000000000          1.442048122279
      0.5769633942D+00  0.1000000000D+01
 Atom C1       Shell     4 S   1     bf    4 -     4          0.000000000000          0.000000000000          1.442048122279
      0.2297283136D+00  0.1000000000D+01
 Atom C1       Shell     5 S   1     bf    5 -     5          0.000000000000          0.000000000000          1.442048122279
      0.9516444003D-01  0.1000000000D+01
 Atom C1       Shell     6 P   4     bf    6 -     8          0.000000000000          0.000000000000          1.442048122279
      0.3469723224D+02  0.1132722000D-01
      0.7958262283D+01  0.7616965920D-01
      0.2378082688D+01  0.3019225220D+00
      0.8143320818D+00  0.7278502735D+00
 Atom C1       Shell     7 P   1     bf    9 -    11          0.000000000000          0.000000000000          1.442048122279
      0.2888754725D+00  0.1000000000D+01
 Atom C1       Shell     8 P   1     bf   12 -    14          0.000000000000          0.000000000000          1.442048122279
      0.1005682367D+00  0.1000000000D+01
 Atom C1       Shell     9 D   1     bf   15 -    19          0.000000000000          0.000000000000          1.442048122279
      0.1097000000D+01  0.1000000000D+01
 Atom C1       Shell    10 D   1     bf   20 -    24          0.000000000000          0.000000000000          1.442048122279
      0.3180000000D+00  0.1000000000D+01
 Atom C1       Shell    11 F   1     bf   25 -    31          0.000000000000          0.000000000000          1.442048122279
      0.7610000000D+00  0.1000000000D+01
 Atom C2       Shell    12 S   6     bf   32 -    32          0.000000000000          0.000000000000         -1.442048122279
      0.1357534968D+05  0.6064550360D-03
      0.2035233368D+04  0.4697908888D-02
      0.4632256236D+03  0.2433247765D-01
      0.1312001960D+03  0.9739996831D-01
      0.4285301589D+02  0.3019558425D+00
      0.1558418577D+02  0.6623360914D+00
 Atom C2       Shell    13 S   2     bf   33 -    33          0.000000000000          0.000000000000         -1.442048122279
      0.6206713851D+01  0.6559530854D+00
      0.2576489653D+01  0.3758563329D+00
 Atom C2       Shell    14 S   1     bf   34 -    34          0.000000000000          0.000000000000         -1.442048122279
      0.5769633942D+00  0.1000000000D+01
 Atom C2       Shell    15 S   1     bf   35 -    35          0.000000000000          0.000000000000         -1.442048122279
      0.2297283136D+00  0.1000000000D+01
 Atom C2       Shell    16 S   1     bf   36 -    36          0.000000000000          0.000000000000         -1.442048122279
      0.9516444003D-01  0.1000000000D+01
 Atom C2       Shell    17 P   4     bf   37 -    39          0.000000000000          0.000000000000         -1.442048122279
      0.3469723224D+02  0.1132722000D-01
      0.7958262283D+01  0.7616965920D-01
      0.2378082688D+01  0.3019225220D+00
      0.8143320818D+00  0.7278502735D+00
 Atom C2       Shell    18 P   1     bf   40 -    42          0.000000000000          0.000000000000         -1.442048122279
      0.2888754725D+00  0.1000000000D+01
 Atom C2       Shell    19 P   1     bf   43 -    45          0.000000000000          0.000000000000         -1.442048122279
      0.1005682367D+00  0.1000000000D+01
 Atom C2       Shell    20 D   1     bf   46 -    50          0.000000000000          0.000000000000         -1.442048122279
      0.1097000000D+01  0.1000000000D+01
 Atom C2       Shell    21 D   1     bf   51 -    55          0.000000000000          0.000000000000         -1.442048122279
      0.3180000000D+00  0.1000000000D+01
 Atom C2       Shell    22 F   1     bf   56 -    62          0.000000000000          0.000000000000         -1.442048122279
      0.7610000000D+00  0.1000000000D+01
 Atom H3       Shell    23 S   3     bf   63 -    63          0.000000000000          1.922074464828          2.192358214163
      0.3406134100D+02  0.2543930721D-01
      0.5123574600D+01  0.1900859489D+00
      0.1164662600D+01  0.8524411301D+00
 Atom H3       Shell    24 S   1     bf   64 -    64          0.000000000000          1.922074464828          2.192358214163
      0.3272304100D+00  0.1000000000D+01
 Atom H3       Shell    25 S   1     bf   65 -    65          0.000000000000          1.922074464828          2.192358214163
      0.1030724100D+00  0.1000000000D+01
 Atom H3       Shell    26 P   1     bf   66 -    68          0.000000000000          1.922074464828          2.192358214163
      0.8000000000D+00  0.1000000000D+01
 Atom H4       Shell    27 S   3     bf   69 -    69         -1.664565314507         -0.961037232414          2.192358214163
      0.3406134100D+02  0.2543930721D-01
      0.5123574600D+01  0.1900859489D+00
      0.1164662600D+01  0.8524411301D+00
 Atom H4       Shell    28 S   1     bf   70 -    70         -1.664565314507         -0.961037232414          2.192358214163
      0.3272304100D+00  0.1000000000D+01
 Atom H4       Shell    29 S   1     bf   71 -    71         -1.664565314507         -0.961037232414          2.192358214163
      0.1030724100D+00  0.1000000000D+01
 Atom H4       Shell    30 P   1     bf   72 -    74         -1.664565314507         -0.961037232414          2.192358214163
      0.8000000000D+00  0.1000000000D+01
 Atom H5       Shell    31 S   3     bf   75 -    75          1.664565314507         -0.961037232414          2.192358214163
      0.3406134100D+02  0.2543930721D-01
      0.5123574600D+01  0.1900859489D+00
      0.1164662600D+01  0.8524411301D+00
 Atom H5       Shell    32 S   1     bf   76 -    76          1.664565314507         -0.961037232414          2.192358214163
      0.3272304100D+00  0.1000000000D+01
 Atom H5       Shell    33 S   1     bf   77 -    77          1.664565314507         -0.961037232414          2.192358214163
      0.1030724100D+00  0.1000000000D+01
 Atom H5       Shell    34 P   1     bf   78 -    80          1.664565314507         -0.961037232414          2.192358214163
      0.8000000000D+00  0.1000000000D+01
 Atom H6       Shell    35 S   3     bf   81 -    81          0.000000000000         -1.922074464828         -2.192358214163
      0.3406134100D+02  0.2543930721D-01
      0.5123574600D+01  0.1900859489D+00
      0.1164662600D+01  0.8524411301D+00
 Atom H6       Shell    36 S   1     bf   82 -    82          0.000000000000         -1.922074464828         -2.192358214163
      0.3272304100D+00  0.1000000000D+01
 Atom H6       Shell    37 S   1     bf   83 -    83          0.000000000000         -1.922074464828         -2.192358214163
      0.1030724100D+00  0.1000000000D+01
 Atom H6       Shell    38 P   1     bf   84 -    86          0.000000000000         -1.922074464828         -2.192358214163
      0.8000000000D+00  0.1000000000D+01
 Atom H7       Shell    39 S   3     bf   87 -    87         -1.664565314507          0.961037232414         -2.192358214163
      0.3406134100D+02  0.2543930721D-01
      0.5123574600D+01  0.1900859489D+00
      0.1164662600D+01  0.8524411301D+00
 Atom H7       Shell    40 S   1     bf   88 -    88         -1.664565314507          0.961037232414         -2.192358214163
      0.3272304100D+00  0.1000000000D+01
 Atom H7       Shell    41 S   1     bf   89 -    89         -1.664565314507          0.961037232414         -2.192358214163
      0.1030724100D+00  0.1000000000D+01
 Atom H7       Shell    42 P   1     bf   90 -    92         -1.664565314507          0.961037232414         -2.192358214163
      0.8000000000D+00  0.1000000000D+01
 Atom H8       Shell    43 S   3     bf   93 -    93          1.664565314507          0.961037232414         -2.192358214163
      0.3406134100D+02  0.2543930721D-01
      0.5123574600D+01  0.1900859489D+00
      0.1164662600D+01  0.8524411301D+00
 Atom H8       Shell    44 S   1     bf   94 -    94          1.664565314507          0.961037232414         -2.192358214163
      0.3272304100D+00  0.1000000000D+01
 Atom H8       Shell    45 S   1     bf   95 -    95          1.664565314507          0.961037232414         -2.192358214163
      0.1030724100D+00  0.1000000000D+01
 Atom H8       Shell    46 P   1     bf   96 -    98          1.664565314507          0.961037232414         -2.192358214163
      0.8000000000D+00  0.1000000000D+01
 There are    36 symmetry adapted cartesian basis functions of AG  symmetry.
 There are    18 symmetry adapted cartesian basis functions of BG  symmetry.
 There are    18 symmetry adapted cartesian basis functions of AU  symmetry.
 There are    36 symmetry adapted cartesian basis functions of BU  symmetry.
 There are    32 symmetry adapted basis functions of AG  symmetry.
 There are    17 symmetry adapted basis functions of BG  symmetry.
 There are    17 symmetry adapted basis functions of AU  symmetry.
 There are    32 symmetry adapted basis functions of BU  symmetry.
    98 basis functions,   150 primitive gaussians,   108 cartesian basis functions
     9 alpha electrons        9 beta electrons
       nuclear repulsion energy        42.2559964873 Hartrees.
 IExCor= 4639 DFT=T Ex+Corr=wB97XD ExCW=0 ScaHFX=  1.000000
 ScaDFX=  1.000000  1.000000  1.000000  1.000000 ScalE2=  1.000000  1.000000
 IRadAn=      5 IRanWt=     -1 IRanGd=            0 ICorTp=0 IEmpDi=121
  HFx wShort=  0.000000 wLong=  0.200000 cFull=  0.222036 cShort=  0.000000 cLong=  0.777964
  DFx wShort=  0.000000 wLong=  0.200000 cFull=  0.000000 cShort=  0.000000 cLong=  1.000000
 NAtoms=    8 NActive=    8 NUniq=    2 SFac= 4.00D+00 NAtFMM=   60 NAOKFM=F Big=F
 Integral buffers will be    131072 words long.
 Raffenetti 2 integral format.
 Two-electron integral symmetry is turned on.
 R6Disp:  Grimme-D2 Dispersion energy=       -0.0018588874 Hartrees.
 Nuclear repulsion after empirical dispersion term =       42.2541375999 Hartrees.
 Leave Link  301 at Fri Jul  9 19:19:36 2021, MaxMem=  4194304000 cpu:         1.1
 (Enter /home/minenky/programs//g09/l302.exe)
 NPDir=0 NMtPBC=     1 NCelOv=     1 NCel=       1 NClECP=     1 NCelD=      1
         NCelK=      1 NCelE2=     1 NClLst=     1 CellRange=     0.0.
 One-electron integrals computed using PRISM.
 One-electron integral symmetry used in STVInt
  12 Symmetry operations used in ECPInt.
 ECPInt:  NShTT=    1081 NPrTT=    2988 LenC2=    1081 LenP2D=    2753.
 LDataN:  DoStor=T MaxTD1= 6 Len=  172
 NBasis=    98 RedAO= T EigKep=  5.53D-04  NBF=    32    17    17    32
 NBsUse=    98 1.00D-06 EigRej= -1.00D+00 NBFU=    32    17    17    32
 Precomputing XC quadrature grid using
 IXCGrd= 4 IRadAn=           5 IRanWt=          -1 IRanGd=           0 AccXCQ= 0.00D+00.
 Generated NRdTot=       0 NPtTot=           0 NUsed=           0 NTot=          32
 NSgBfM=   108   108   108   108   108 MxSgAt=     8 MxSgA2=     8.
 Leave Link  302 at Fri Jul  9 19:19:40 2021, MaxMem=  4194304000 cpu:        53.0
 (Enter /home/minenky/programs//g09/l303.exe)
 DipDrv:  MaxL=1.
 Leave Link  303 at Fri Jul  9 19:19:40 2021, MaxMem=  4194304000 cpu:         3.3
 (Enter /home/minenky/programs//g09/l401.exe)
 ExpMin= 9.52D-02 ExpMax= 1.36D+04 ExpMxC= 4.63D+02 IAcc=3 IRadAn=         5 AccDes= 0.00D+00
 Harris functional with IExCor= 4639 and IRadAn=       5 diagonalized for initial guess.
 HarFok:  IExCor= 4639 AccDes= 0.00D+00 IRadAn=         5 IDoV= 1 UseB2=F ITyADJ=14
 ICtDFT=  3500011 ScaDFX=  1.000000  1.000000  1.000000  1.000000
 FoFCou: FMM=F IPFlag=           0 FMFlag=      100000 FMFlg1=           0
         NFxFlg=           0 DoJE=T BraDBF=F KetDBF=T FulRan=T
         wScrn=  0.000000 ICntrl=     500 IOpCl=  0 I1Cent=   200000004 NGrid=           0
         NMat0=    1 NMatS0=      1 NMatT0=    0 NMatD0=    1 NMtDS0=    0 NMtDT0=    0
 Petite list used in FoFCou.
 Harris En= -75.6293144248618    
 JPrj=0 DoOrth=F DoCkMO=F.
 Initial guess orbital symmetries:
       Occupied  (A1G) (A2U) (A1G) (A2U) (EU) (EU) (A1G) (EG) (EG)
       Virtual   (A1G) (A2U) (EU) (EU) (EG) (EG) (A2U) (A1G) (EG)
                 (EG) (EU) (EU) (A2U) (A1G) (A2U) (EU) (EU) (EG)
                 (EG) (A1G) (A2U) (EU) (EU) (EG) (EG) (A1G) (EG)
                 (EG) (EU) (EU) (A2U) (EG) (EG) (A1G) (A2U) (A1U)
                 (A2G) (EU) (EU) (A1G) (A2U) (EU) (EU) (EG) (EG)
                 (A1G) (A2U) (A1G) (EG) (EG) (EU) (EU) (EU) (EU)
                 (EG) (EG) (EU) (EU) (EG) (EG) (A1G) (A2U) (A2U)
                 (EU) (EU) (EG) (EG) (A1U) (A1G) (A2U) (EG) (EG)
                 (A2G) (EU) (EU) (EU) (EU) (A1G) (EG) (EG) (A2U)
                 (EU) (EU) (EG) (EG) (A1G) (A2U) (A1G) (A2U)
 The electronic state of the initial guess is 1-A1G.
 Leave Link  401 at Fri Jul  9 19:19:43 2021, MaxMem=  4194304000 cpu:        31.5
 (Enter /home/minenky/programs//g09/l502.exe)
 Closed shell SCF:
 Using DIIS extrapolation, IDIIS=  1040.
 Integral symmetry usage will be decided dynamically.
 Keep R1 ints in memory in symmetry-blocked form, NReq=29686040.
 IVT=      186166 IEndB=      186166 NGot=  4194304000 MDV=  4191130787
 LenX=  4191130787 LenY=  4191118682
 Requested convergence on RMS density matrix=1.00D-08 within 380 cycles.
 Requested convergence on MAX density matrix=1.00D-06.
 Requested convergence on             energy=1.00D-06.
 No special actions if energy rises.
 FoFCou: FMM=F IPFlag=           0 FMFlag=           0 FMFlg1=           0
         NFxFlg=           0 DoJE=F BraDBF=F KetDBF=F FulRan=T
         wScrn=  0.000000 ICntrl=     600 IOpCl=  0 I1Cent=           0 NGrid=           0
         NMat0=    1 NMatS0=   4851 NMatT0=    0 NMatD0=    1 NMtDS0=    0 NMtDT0=    0
 Petite list used in FoFCou.
 Integral accuracy reduced to 1.0D-05 until final iterations.

 Cycle   1  Pass 0  IDiag  1:
 E= -79.7979251537862    
 DIIS: error= 6.21D-02 at cycle   1 NSaved=   1.
 NSaved= 1 IEnMin= 1 EnMin= -79.7979251537862     IErMin= 1 ErrMin= 6.21D-02
 ErrMax= 6.21D-02  0.00D+00 EMaxC= 1.00D-01 BMatC= 1.72D-01 BMatP= 1.72D-01
 IDIUse=3 WtCom= 3.79D-01 WtEn= 6.21D-01
 Coeff-Com:  0.100D+01
 Coeff-En:   0.100D+01
 Coeff:      0.100D+01
 Gap=     0.515 Goal=   None    Shift=    0.000
 GapD=    0.515 DampG=2.000 DampE=0.500 DampFc=1.0000 IDamp=-1.
 RMSDP=1.72D-03 MaxDP=2.87D-02              OVMax= 6.09D-02

 Cycle   2  Pass 0  IDiag  1:
 E= -79.8217758892283     Delta-E=       -0.023850735442 Rises=F Damp=F
 DIIS: error= 1.62D-02 at cycle   2 NSaved=   2.
 NSaved= 2 IEnMin= 2 EnMin= -79.8217758892283     IErMin= 2 ErrMin= 1.62D-02
 ErrMax= 1.62D-02  0.00D+00 EMaxC= 1.00D-01 BMatC= 1.11D-02 BMatP= 1.72D-01
 IDIUse=3 WtCom= 8.38D-01 WtEn= 1.62D-01
 Coeff-Com:  0.121D+00 0.879D+00
 Coeff-En:   0.136D-01 0.986D+00
 Coeff:      0.103D+00 0.897D+00
 Gap=     0.558 Goal=   None    Shift=    0.000
 RMSDP=9.22D-04 MaxDP=1.87D-02 DE=-2.39D-02 OVMax= 3.89D-02

 Cycle   3  Pass 0  IDiag  1:
 E= -79.8284679314676     Delta-E=       -0.006692042239 Rises=F Damp=F
 DIIS: error= 9.90D-03 at cycle   3 NSaved=   3.
 NSaved= 3 IEnMin= 3 EnMin= -79.8284679314676     IErMin= 3 ErrMin= 9.90D-03
 ErrMax= 9.90D-03  0.00D+00 EMaxC= 1.00D-01 BMatC= 4.61D-03 BMatP= 1.11D-02
 IDIUse=3 WtCom= 9.01D-01 WtEn= 9.90D-02
 Coeff-Com:  0.244D-01 0.394D+00 0.582D+00
 Coeff-En:   0.000D+00 0.240D+00 0.760D+00
 Coeff:      0.220D-01 0.379D+00 0.599D+00
 Gap=     0.543 Goal=   None    Shift=    0.000
 RMSDP=3.69D-04 MaxDP=6.95D-03 DE=-6.69D-03 OVMax= 1.56D-02

 Cycle   4  Pass 0  IDiag  1:
 E= -79.8327644433777     Delta-E=       -0.004296511910 Rises=F Damp=F
 DIIS: error= 3.28D-04 at cycle   4 NSaved=   4.
 NSaved= 4 IEnMin= 4 EnMin= -79.8327644433777     IErMin= 4 ErrMin= 3.28D-04
 ErrMax= 3.28D-04  0.00D+00 EMaxC= 1.00D-01 BMatC= 8.14D-06 BMatP= 4.61D-03
 IDIUse=3 WtCom= 9.97D-01 WtEn= 3.28D-03
 Coeff-Com: -0.268D-02-0.446D-01-0.256D-01 0.107D+01
 Coeff-En:   0.000D+00 0.000D+00 0.000D+00 0.100D+01
 Coeff:     -0.267D-02-0.444D-01-0.255D-01 0.107D+01
 Gap=     0.543 Goal=   None    Shift=    0.000
 RMSDP=3.57D-05 MaxDP=3.83D-04 DE=-4.30D-03 OVMax= 1.44D-03

 Cycle   5  Pass 0  IDiag  1:
 E= -79.8327746869543     Delta-E=       -0.000010243577 Rises=F Damp=F
 DIIS: error= 4.90D-05 at cycle   5 NSaved=   5.
 NSaved= 5 IEnMin= 5 EnMin= -79.8327746869543     IErMin= 5 ErrMin= 4.90D-05
 ErrMax= 4.90D-05  0.00D+00 EMaxC= 1.00D-01 BMatC= 1.42D-07 BMatP= 8.14D-06
 IDIUse=1 WtCom= 1.00D+00 WtEn= 0.00D+00
 Coeff-Com: -0.110D-02-0.178D-01-0.224D-01 0.547D-01 0.987D+00
 Coeff:     -0.110D-02-0.178D-01-0.224D-01 0.547D-01 0.987D+00
 Gap=     0.543 Goal=   None    Shift=    0.000
 RMSDP=1.03D-05 MaxDP=1.04D-04 DE=-1.02D-05 OVMax= 2.21D-04

 Cycle   6  Pass 0  IDiag  1:
 E= -79.8327749462451     Delta-E=       -0.000000259291 Rises=F Damp=F
 DIIS: error= 8.55D-06 at cycle   6 NSaved=   6.
 NSaved= 6 IEnMin= 6 EnMin= -79.8327749462451     IErMin= 6 ErrMin= 8.55D-06
 ErrMax= 8.55D-06  0.00D+00 EMaxC= 1.00D-01 BMatC= 3.02D-09 BMatP= 1.42D-07
 IDIUse=1 WtCom= 1.00D+00 WtEn= 0.00D+00
 Coeff-Com:  0.973D-04 0.145D-02 0.119D-02-0.340D-01-0.131D-01 0.104D+01
 Coeff:      0.973D-04 0.145D-02 0.119D-02-0.340D-01-0.131D-01 0.104D+01
 Gap=     0.543 Goal=   None    Shift=    0.000
 RMSDP=2.97D-06 MaxDP=3.45D-05 DE=-2.59D-07 OVMax= 5.59D-05

 Initial convergence to 1.0D-05 achieved.  Increase integral accuracy.
 Cycle   7  Pass 1  IDiag  1:
 E= -79.8327607253929     Delta-E=        0.000014220852 Rises=F Damp=F
 DIIS: error= 2.10D-05 at cycle   1 NSaved=   1.
 NSaved= 1 IEnMin= 1 EnMin= -79.8327607253929     IErMin= 1 ErrMin= 2.10D-05
 ErrMax= 2.10D-05  0.00D+00 EMaxC= 1.00D-01 BMatC= 2.28D-08 BMatP= 2.28D-08
 IDIUse=1 WtCom= 1.00D+00 WtEn= 0.00D+00
 Coeff-Com:  0.100D+01
 Coeff:      0.100D+01
 Gap=     0.543 Goal=   None    Shift=    0.000
 RMSDP=2.97D-06 MaxDP=3.45D-05 DE= 1.42D-05 OVMax= 3.05D-05

 Cycle   8  Pass 1  IDiag  1:
 E= -79.8327607381510     Delta-E=       -0.000000012758 Rises=F Damp=F
 DIIS: error= 3.25D-06 at cycle   2 NSaved=   2.
 NSaved= 2 IEnMin= 2 EnMin= -79.8327607381510     IErMin= 2 ErrMin= 3.25D-06
 ErrMax= 3.25D-06  0.00D+00 EMaxC= 1.00D-01 BMatC= 4.74D-10 BMatP= 2.28D-08
 IDIUse=1 WtCom= 1.00D+00 WtEn= 0.00D+00
 Coeff-Com: -0.356D-01 0.104D+01
 Coeff:     -0.356D-01 0.104D+01
 Gap=     0.543 Goal=   None    Shift=    0.000
 RMSDP=2.54D-07 MaxDP=4.27D-06 DE=-1.28D-08 OVMax= 9.08D-06

 Cycle   9  Pass 1  IDiag  1:
 E= -79.8327607383499     Delta-E=       -0.000000000199 Rises=F Damp=F
 DIIS: error= 2.22D-06 at cycle   3 NSaved=   3.
 NSaved= 3 IEnMin= 3 EnMin= -79.8327607383499     IErMin= 3 ErrMin= 2.22D-06
 ErrMax= 2.22D-06  0.00D+00 EMaxC= 1.00D-01 BMatC= 2.38D-10 BMatP= 4.74D-10
 IDIUse=1 WtCom= 1.00D+00 WtEn= 0.00D+00
 Coeff-Com: -0.375D-01 0.439D+00 0.598D+00
 Coeff:     -0.375D-01 0.439D+00 0.598D+00
 Gap=     0.543 Goal=   None    Shift=    0.000
 RMSDP=8.26D-08 MaxDP=1.53D-06 DE=-1.99D-10 OVMax= 3.59D-06

 Cycle  10  Pass 1  IDiag  1:
 E= -79.8327607385739     Delta-E=       -0.000000000224 Rises=F Damp=F
 DIIS: error= 1.15D-07 at cycle   4 NSaved=   4.
 NSaved= 4 IEnMin= 4 EnMin= -79.8327607385739     IErMin= 4 ErrMin= 1.15D-07
 ErrMax= 1.15D-07  0.00D+00 EMaxC= 1.00D-01 BMatC= 5.90D-13 BMatP= 2.38D-10
 IDIUse=1 WtCom= 1.00D+00 WtEn= 0.00D+00
 Coeff-Com:  0.154D-02-0.324D-01-0.738D-03 0.103D+01
 Coeff:      0.154D-02-0.324D-01-0.738D-03 0.103D+01
 Gap=     0.543 Goal=   None    Shift=    0.000
 RMSDP=1.72D-08 MaxDP=2.74D-07 DE=-2.24D-10 OVMax= 4.86D-07

 Cycle  11  Pass 1  IDiag  1:
 E= -79.8327607385750     Delta-E=       -0.000000000001 Rises=F Damp=F
 DIIS: error= 2.01D-08 at cycle   5 NSaved=   5.
 NSaved= 5 IEnMin= 5 EnMin= -79.8327607385750     IErMin= 5 ErrMin= 2.01D-08
 ErrMax= 2.01D-08  0.00D+00 EMaxC= 1.00D-01 BMatC= 1.77D-14 BMatP= 5.90D-13
 IDIUse=1 WtCom= 1.00D+00 WtEn= 0.00D+00
 Coeff-Com:  0.900D-03-0.101D-01-0.162D-01-0.147D-01 0.104D+01
 Coeff:      0.900D-03-0.101D-01-0.162D-01-0.147D-01 0.104D+01
 Gap=     0.543 Goal=   None    Shift=    0.000
 RMSDP=4.28D-09 MaxDP=7.19D-08 DE=-1.11D-12 OVMax= 1.19D-07

 SCF Done:  E(RwB97XD) =  -79.8327607386     A.U. after   11 cycles
            NFock= 11  Conv=0.43D-08     -V/T= 2.0063
 KE= 7.933409918587D+01 PE=-2.687207886902D+02 EE= 6.729979116594D+01
 Leave Link  502 at Fri Jul  9 19:20:12 2021, MaxMem=  4194304000 cpu:       440.3
 (Enter /home/minenky/programs//g09/l601.exe)
 Copying SCF densities to generalized density rwf, IOpCl= 0 IROHF=0.

 **********************************************************************

            Population analysis using the SCF density.

 **********************************************************************

 Orbital symmetries:
       Occupied  (A1G) (A2U) (A1G) (A2U) (EU) (EU) (A1G) (EG) (EG)
       Virtual   (A1G) (A2U) (EU) (EU) (EG) (EG) (A2U) (A1G) (EG)
                 (EG) (EU) (EU) (A1G) (A2U) (A2U) (EU) (EU) (EG)
                 (EG) (A1G) (A2U) (EU) (EU) (EG) (EG) (A1G) (EG)
                 (EG) (EU) (EU) (A2U) (EG) (EG) (A1G) (A2U) (A1U)
                 (A2G) (EU) (EU) (A2U) (A1G) (EU) (EU) (EG) (EG)
                 (A1G) (A2U) (A1G) (EG) (EG) (EU) (EU) (EU) (EU)
                 (EG) (EG) (EU) (EU) (EG) (EG) (A1G) (A2U) (A2U)
                 (EU) (EU) (EG) (EG) (A1G) (A1U) (A2U) (EG) (EG)
                 (A2G) (EU) (EU) (EU) (EU) (A1G) (EG) (EG) (A2U)
                 (EU) (EU) (EG) (EG) (A1G) (A2U) (A1G) (A2U)
 The electronic state is 1-A1G.
 Alpha  occ. eigenvalues --  -10.26897 -10.26876  -0.85145  -0.71002  -0.52126
 Alpha  occ. eigenvalues --   -0.52126  -0.45095  -0.42422  -0.42422
 Alpha virt. eigenvalues --    0.11924   0.15824   0.18925   0.18925   0.20255
 Alpha virt. eigenvalues --    0.20255   0.26940   0.27944   0.32006   0.32006
 Alpha virt. eigenvalues --    0.32498   0.32498   0.47380   0.49848   0.50599
 Alpha virt. eigenvalues --    0.52289   0.52289   0.58162   0.58162   0.63977
 Alpha virt. eigenvalues --    0.66140   0.72352   0.72352   0.91331   0.91331
 Alpha virt. eigenvalues --    1.00921   1.11468   1.11468   1.12576   1.12576
 Alpha virt. eigenvalues --    1.18130   1.56938   1.56938   1.56981   1.60686
 Alpha virt. eigenvalues --    1.62777   1.63655   1.66191   1.66191   1.82472
 Alpha virt. eigenvalues --    1.83242   1.87728   1.87728   2.00599   2.00599
 Alpha virt. eigenvalues --    2.06991   2.21674   2.35844   2.41165   2.41165
 Alpha virt. eigenvalues --    2.43762   2.43762   2.47862   2.47862   2.62522
 Alpha virt. eigenvalues --    2.62522   2.66459   2.66459   2.72098   2.72098
 Alpha virt. eigenvalues --    2.78835   2.94920   3.03201   3.08926   3.08926
 Alpha virt. eigenvalues --    3.18091   3.18091   3.25489   3.26650   3.33886
 Alpha virt. eigenvalues --    3.43272   3.43272   3.55988   3.57649   3.57649
 Alpha virt. eigenvalues --    3.82668   3.82668   3.98652   3.99061   3.99061
 Alpha virt. eigenvalues --    4.29124   4.42487   4.42487   4.50793   4.50793
 Alpha virt. eigenvalues --    4.64942   4.82691  22.37630  22.42523
          Condensed to atoms (all electrons):
               1          2          3          4          5          6
     1  C    4.883058   0.311947   0.409101   0.409101   0.409101  -0.035007
     2  C    0.311947   4.883058  -0.035007  -0.035007  -0.035007   0.409101
     3  H    0.409101  -0.035007   0.578180  -0.027569  -0.027569   0.007073
     4  H    0.409101  -0.035007  -0.027569   0.578180  -0.027569  -0.004986
     5  H    0.409101  -0.035007  -0.027569  -0.027569   0.578180  -0.004986
     6  H   -0.035007   0.409101   0.007073  -0.004986  -0.004986   0.578180
     7  H   -0.035007   0.409101  -0.004986  -0.004986   0.007073  -0.027569
     8  H   -0.035007   0.409101  -0.004986   0.007073  -0.004986  -0.027569
               7          8
     1  C   -0.035007  -0.035007
     2  C    0.409101   0.409101
     3  H   -0.004986  -0.004986
     4  H   -0.004986   0.007073
     5  H    0.007073  -0.004986
     6  H   -0.027569  -0.027569
     7  H    0.578180  -0.027569
     8  H   -0.027569   0.578180
 Mulliken charges:
               1
     1  C   -0.317287
     2  C   -0.317287
     3  H    0.105762
     4  H    0.105762
     5  H    0.105762
     6  H    0.105762
     7  H    0.105762
     8  H    0.105762
 Sum of Mulliken charges =   0.00000
 Mulliken charges with hydrogens summed into heavy atoms:
               1
     1  C    0.000000
     2  C    0.000000
 Electronic spatial extent (au):  <R**2>=            109.5424
 Charge=              0.0000 electrons
 Dipole moment (field-independent basis, Debye):
    X=              0.0000    Y=              0.0000    Z=              0.0000  Tot=              0.0000
 Quadrupole moment (field-independent basis, Debye-Ang):
   XX=            -14.8135   YY=            -14.8135   ZZ=            -15.5440
   XY=              0.0000   XZ=              0.0000   YZ=              0.0000
 Traceless Quadrupole moment (field-independent basis, Debye-Ang):
   XX=              0.2435   YY=              0.2435   ZZ=             -0.4870
   XY=              0.0000   XZ=              0.0000   YZ=              0.0000
 Octapole moment (field-independent basis, Debye-Ang**2):
  XXX=              0.0000  YYY=              0.0000  ZZZ=              0.0000  XYY=              0.0000
  XXY=              0.0000  XXZ=              0.0000  XZZ=              0.0000  YZZ=              0.0000
  YYZ=              0.0000  XYZ=              0.0000
 Hexadecapole moment (field-independent basis, Debye-Ang**3):
 XXXX=            -29.7347 YYYY=            -29.7347 ZZZZ=            -95.8461 XXXY=              0.0000
 XXXZ=              0.0000 YYYX=              0.0000 YYYZ=              1.4711 ZZZX=              0.0000
 ZZZY=              0.0000 XXYY=             -9.9116 XXZZ=            -19.6872 YYZZ=            -19.6872
 XXYZ=             -1.4711 YYXZ=              0.0000 ZZXY=              0.0000
 N-N= 4.225413759986D+01 E-N=-2.687207889828D+02  KE= 7.933409918587D+01
 Symmetry AG   KE= 3.909835814198D+01
 Symmetry BG   KE= 2.108527410586D+00
 Symmetry AU   KE= 1.827257592659D+00
 Symmetry BU   KE= 3.629995604065D+01
 No NMR shielding tensors so no spin-rotation constants.
 Leave Link  601 at Fri Jul  9 19:20:14 2021, MaxMem=  4194304000 cpu:        15.7
 (Enter /home/minenky/programs//g09/l701.exe)
 Compute integral first derivatives.
 ... and contract with generalized density number  0.
 R6Disp: Adding Grimme-D2 dispersion energy 1st derivatives to the gradient.
  12 Symmetry operations used in ECPInt.
 ECPInt:  NShTT=    1081 NPrTT=    2988 LenC2=    1081 LenP2D=    2753.
 LDataN:  DoStor=T MaxTD1= 7 Len=  274
 Leave Link  701 at Fri Jul  9 19:20:15 2021, MaxMem=  4194304000 cpu:        15.0
 (Enter /home/minenky/programs//g09/l702.exe)
 L702 exits ... SP integral derivatives will be done elsewhere.
 Leave Link  702 at Fri Jul  9 19:20:15 2021, MaxMem=  4194304000 cpu:         0.1
 (Enter /home/minenky/programs//g09/l703.exe)
 Compute integral first derivatives, UseDBF=F ICtDFT=           0.
 Integral derivatives from FoFJK, PRISM(SPDF).
 Calling FoFJK, ICntrl=      2127 FMM=F ISym2X=1 I1Cent= 0 IOpClX= 0 NMat=1 NMatS=1 NMatT=0.
 FoFJK:  IHMeth= 1 ICntrl=    2127 DoSepK=T KAlg= 0 I1Cent=   0 FoldK=F
 IRaf=         1 NMat=   1 IRICut=       1 DoRegI=T DoRafI=F ISym2E= 1.
 FoFCou: FMM=F IPFlag=           0 FMFlag=      100000 FMFlg1=         800
         NFxFlg=           0 DoJE=F BraDBF=F KetDBF=F FulRan=T
         wScrn=  0.000000 ICntrl=    2527 IOpCl=  0 I1Cent=           0 NGrid=           0
         NMat0=    1 NMatS0=      1 NMatT0=    0 NMatD0=    1 NMtDS0=    0 NMtDT0=    0
 Petite list used in FoFCou.
 Leave Link  703 at Fri Jul  9 19:20:17 2021, MaxMem=  4194304000 cpu:        30.4
 (Enter /home/minenky/programs//g09/l716.exe)
 Dipole        = 3.33036414D-16 3.28550291D-17-2.10942375D-15
 ***** Axes restored to original set *****
 -------------------------------------------------------------------
 Center     Atomic                   Forces (Hartrees/Bohr)
 Number     Number              X              Y              Z
 -------------------------------------------------------------------
      1        6           0.000000000    0.000000000   -0.001113805
      2        6           0.000000000    0.000000000    0.001113805
      3        1           0.000000000   -0.000192975   -0.000333739
      4        1           0.000167121    0.000096487   -0.000333739
      5        1          -0.000167121    0.000096487   -0.000333739
      6        1           0.000000000    0.000192975    0.000333739
      7        1           0.000167121   -0.000096487    0.000333739
      8        1          -0.000167121   -0.000096487    0.000333739
 -------------------------------------------------------------------
 Cartesian Forces:  Max     0.001113805 RMS     0.000374880
 Leave Link  716 at Fri Jul  9 19:20:17 2021, MaxMem=  4194304000 cpu:         0.1
 (Enter /home/minenky/programs//g09/l103.exe)

 GradGradGradGradGradGradGradGradGradGradGradGradGradGradGradGradGradGrad
 Berny optimization.
 FormGI is forming the generalized inverse of G from B-inverse, IUseBI=4.
 Internal  Forces:  Max     0.002115023 RMS     0.000451596
 Search for a local minimum.
 Step number   1 out of a maximum of   38
 All quantities printed in internal units (Hartrees-Bohrs-Radians)
 RMS Force = .45160D-03 SwitMx=.10000D-02 MixMth= 2
 Mixed Optimization -- En-DIIS/RFO-DIIS
 Second derivative matrix not updated -- first step.
 ITU=  0
     Eigenvalues ---    0.00419   0.05500   0.05500   0.05500   0.05500
     Eigenvalues ---    0.16000   0.16000   0.16000   0.16000   0.16000
     Eigenvalues ---    0.16000   0.29777   0.34598   0.34598   0.34598
     Eigenvalues ---    0.34598   0.34598   0.34598
 RFO step:  Lambda=-2.09258397D-05 EMin= 4.19398122D-03
 Linear search not attempted -- first point.
 Iteration  1 RMS(Cart)=  0.00322856 RMS(Int)=  0.00000124
 Iteration  2 RMS(Cart)=  0.00000109 RMS(Int)=  0.00000066
 Iteration  3 RMS(Cart)=  0.00000000 RMS(Int)=  0.00000066
 ITry= 1 IFail=0 DXMaxC= 6.66D-03 DCOld= 1.00D+10 DXMaxT= 3.00D-01 DXLimC= 3.00D+00 Rises=F
 ClnCor:  largest displacement from symmetrization is 3.76D-09 for atom     8.
 Variable       Old X    -DE/DX   Delta X   Delta X   Delta X     New X
                                 (Linear)    (Quad)   (Total)
    R1        2.88410  -0.00212   0.00000  -0.00710  -0.00710   2.87699
    R2        2.06333  -0.00030   0.00000  -0.00087  -0.00087   2.06246
    R3        2.06333  -0.00030   0.00000  -0.00087  -0.00087   2.06246
    R4        2.06333  -0.00030   0.00000  -0.00087  -0.00087   2.06246
    R5        2.06333  -0.00030   0.00000  -0.00087  -0.00087   2.06246
    R6        2.06333  -0.00030   0.00000  -0.00087  -0.00087   2.06246
    R7        2.06333  -0.00030   0.00000  -0.00087  -0.00087   2.06246
    A1        1.94297  -0.00023   0.00000  -0.00145  -0.00145   1.94151
    A2        1.94297  -0.00023   0.00000  -0.00145  -0.00145   1.94151
    A3        1.94297  -0.00023   0.00000  -0.00145  -0.00145   1.94151
    A4        1.87722   0.00025   0.00000   0.00155   0.00155   1.87877
    A5        1.87722   0.00025   0.00000   0.00155   0.00155   1.87877
    A6        1.87722   0.00025   0.00000   0.00155   0.00155   1.87877
    A7        1.94297  -0.00023   0.00000  -0.00145  -0.00145   1.94151
    A8        1.94297  -0.00023   0.00000  -0.00145  -0.00145   1.94151
    A9        1.94297  -0.00023   0.00000  -0.00145  -0.00145   1.94151
   A10        1.87722   0.00025   0.00000   0.00155   0.00155   1.87877
   A11        1.87722   0.00025   0.00000   0.00155   0.00155   1.87877
   A12        1.87722   0.00025   0.00000   0.00155   0.00155   1.87877
    D1        3.14159   0.00000   0.00000   0.00000   0.00000  -3.14159
    D2       -1.04720   0.00000   0.00000   0.00000   0.00000  -1.04720
    D3        1.04720   0.00000   0.00000   0.00000   0.00000   1.04720
    D4       -1.04720   0.00000   0.00000   0.00000   0.00000  -1.04720
    D5        1.04720   0.00000   0.00000   0.00000   0.00000   1.04720
    D6        3.14159   0.00000   0.00000   0.00000   0.00000   3.14159
    D7        1.04720   0.00000   0.00000   0.00000   0.00000   1.04720
    D8        3.14159   0.00000   0.00000   0.00000   0.00000   3.14159
    D9       -1.04720   0.00000   0.00000   0.00000   0.00000  -1.04720
         Item               Value     Threshold  Converged?
 Maximum Force            0.002115     0.000015     NO 
 RMS     Force            0.000452     0.000010     NO 
 Maximum Displacement     0.006662     0.000060     NO 
 RMS     Displacement     0.003229     0.000040     NO 
 Predicted change in Energy=-1.046292D-05
 Lowest energy point so far.  Saving SCF results.
 GradGradGradGradGradGradGradGradGradGradGradGradGradGradGradGradGradGrad

 Leave Link  103 at Fri Jul  9 19:20:18 2021, MaxMem=  4194304000 cpu:        13.9
 (Enter /home/minenky/programs//g09/l202.exe)
                          Input orientation:                          
 ---------------------------------------------------------------------
 Center     Atomic      Atomic             Coordinates (Angstroms)
 Number     Number       Type             X           Y           Z
 ---------------------------------------------------------------------
      1          6           0        0.000000    0.000000    0.761220
      2          6           0        0.000000    0.000000   -0.761220
      3          1           0        0.000000    1.017265    1.156621
      4          1           0       -0.880977   -0.508632    1.156621
      5          1           0        0.880977   -0.508633    1.156621
      6          1           0        0.000000   -1.017265   -1.156621
      7          1           0       -0.880977    0.508633   -1.156621
      8          1           0        0.880977    0.508632   -1.156621
 ---------------------------------------------------------------------
                    Distance matrix (angstroms):
                    1          2          3          4          5
     1  C    0.000000
     2  C    1.522440   0.000000
     3  H    1.091407   2.170931   0.000000
     4  H    1.091407   2.170931   1.761955   0.000000
     5  H    1.091407   2.170931   1.761955   1.761955   0.000000
     6  H    2.170931   1.091407   3.080649   2.527036   2.527036
     7  H    2.170931   1.091407   2.527036   2.527036   3.080649
     8  H    2.170931   1.091407   2.527036   3.080649   2.527036
                    6          7          8
     6  H    0.000000
     7  H    1.761955   0.000000
     8  H    1.761955   1.761955   0.000000
 Stoichiometry    C2H6
 Framework group  D3D[C3(C.C),3SGD(H2)]
 Deg. of freedom     3
 Full point group                 D3D     NOp  12
 RotChk:  IX=0 Diff= 5.72D-16
 Largest Abelian subgroup         C2H     NOp   4
 Largest concise Abelian subgroup C2H     NOp   4
                         Standard orientation:                         
 ---------------------------------------------------------------------
 Center     Atomic      Atomic             Coordinates (Angstroms)
 Number     Number       Type             X           Y           Z
 ---------------------------------------------------------------------
      1          6           0        0.000000    0.000000    0.761220
      2          6           0        0.000000    0.000000   -0.761220
      3          1           0        0.000000    1.017265    1.156621
      4          1           0       -0.880977   -0.508632    1.156621
      5          1           0        0.880977   -0.508632    1.156621
      6          1           0        0.000000   -1.017265   -1.156621
      7          1           0       -0.880977    0.508632   -1.156621
      8          1           0        0.880977    0.508632   -1.156621
 ---------------------------------------------------------------------
 Rotational constants (GHZ):     80.7630292     20.1144694     20.1144694
 Leave Link  202 at Fri Jul  9 19:20:18 2021, MaxMem=  4194304000 cpu:         0.3
 (Enter /home/minenky/programs//g09/l301.exe)
 Standard basis: def2TZVP (5D, 7F)
 Ernie: Thresh=  0.10000D-02 Tol=  0.10000D-05 Strict=F.
 There are    36 symmetry adapted cartesian basis functions of AG  symmetry.
 There are    18 symmetry adapted cartesian basis functions of BG  symmetry.
 There are    18 symmetry adapted cartesian basis functions of AU  symmetry.
 There are    36 symmetry adapted cartesian basis functions of BU  symmetry.
 There are    32 symmetry adapted basis functions of AG  symmetry.
 There are    17 symmetry adapted basis functions of BG  symmetry.
 There are    17 symmetry adapted basis functions of AU  symmetry.
 There are    32 symmetry adapted basis functions of BU  symmetry.
    98 basis functions,   150 primitive gaussians,   108 cartesian basis functions
     9 alpha electrons        9 beta electrons
       nuclear repulsion energy        42.3169239791 Hartrees.
 IExCor= 4639 DFT=T Ex+Corr=wB97XD ExCW=0 ScaHFX=  1.000000
 ScaDFX=  1.000000  1.000000  1.000000  1.000000 ScalE2=  1.000000  1.000000
 IRadAn=      5 IRanWt=     -1 IRanGd=            0 ICorTp=0 IEmpDi=121
  HFx wShort=  0.000000 wLong=  0.200000 cFull=  0.222036 cShort=  0.000000 cLong=  0.777964
  DFx wShort=  0.000000 wLong=  0.200000 cFull=  0.000000 cShort=  0.000000 cLong=  1.000000
 NAtoms=    8 NActive=    8 NUniq=    2 SFac= 4.00D+00 NAtFMM=   60 NAOKFM=F Big=F
 Integral buffers will be    131072 words long.
 Raffenetti 2 integral format.
 Two-electron integral symmetry is turned on.
 R6Disp:  Grimme-D2 Dispersion energy=       -0.0018623191 Hartrees.
 Nuclear repulsion after empirical dispersion term =       42.3150616600 Hartrees.
 Leave Link  301 at Fri Jul  9 19:20:18 2021, MaxMem=  4194304000 cpu:         0.3
 (Enter /home/minenky/programs//g09/l302.exe)
 NPDir=0 NMtPBC=     1 NCelOv=     1 NCel=       1 NClECP=     1 NCelD=      1
         NCelK=      1 NCelE2=     1 NClLst=     1 CellRange=     0.0.
 One-electron integrals computed using PRISM.
 One-electron integral symmetry used in STVInt
  12 Symmetry operations used in ECPInt.
 ECPInt:  NShTT=    1081 NPrTT=    2988 LenC2=    1081 LenP2D=    2755.
 LDataN:  DoStor=T MaxTD1= 6 Len=  172
 NBasis=    98 RedAO= T EigKep=  5.44D-04  NBF=    32    17    17    32
 NBsUse=    98 1.00D-06 EigRej= -1.00D+00 NBFU=    32    17    17    32
 Precomputing XC quadrature grid using
 IXCGrd= 4 IRadAn=           5 IRanWt=          -1 IRanGd=           0 AccXCQ= 0.00D+00.
 Generated NRdTot=       0 NPtTot=           0 NUsed=           0 NTot=          32
 NSgBfM=   108   108   108   108   108 MxSgAt=     8 MxSgA2=     8.
 Leave Link  302 at Fri Jul  9 19:20:21 2021, MaxMem=  4194304000 cpu:        45.8
 (Enter /home/minenky/programs//g09/l303.exe)
 DipDrv:  MaxL=1.
 Leave Link  303 at Fri Jul  9 19:20:21 2021, MaxMem=  4194304000 cpu:         2.1
 (Enter /home/minenky/programs//g09/l401.exe)
 Initial guess from the checkpoint file:  "m1_00_74-84-00_C2H6_wB97XD.chk"
 B after Tr=     0.000000    0.000000    0.000000
         Rot=    1.000000    0.000000    0.000000    0.000000 Ang=   0.00 deg.
 Guess basis will be translated and rotated to current coordinates.
 JPrj=2 DoOrth=T DoCkMO=T.
 Initial guess orbital symmetries:
       Occupied  (A1G) (A2U) (A1G) (A2U) (EU) (EU) (A1G) (EG) (EG)
       Virtual   (A2U) (A2U) (A2U) (A2U) (A2U) (A2U) (A2U) (A2U)
                 (A2U) (A2U) (A2U) (A2U) (A2U) (A2U) (A2U) (A2U)
                 (A2U) (A2U) (A2U) (A2U) (A2U) (A2U) (A2U) (A2U)
                 (A2U) (A2U) (A2U) (A2U) (A2U) (A2U) (A2U) (A2U)
                 (A2U) (A2U) (A2U) (A2U) (A2U) (A2U) (A2U) (A2U)
                 (A2U) (A2U) (A2U) (A2U) (?A) (?A) (?A) (?A) (?A)
                 (?A) (?A) (?A) (?A) (?A) (?A) (?A) (?A) (?A) (?A)
                 (?A) (?A) (?A) (?A) (?A) (?A) (?A) (?A) (?A) (?A)
                 (?A) (?A) (?A) (?A) (?A) (?A) (?A) (?A) (?A) (?A)
                 (?A) (?A) (?A) (?A) (?A) (?A) (?A) (?A) (?A) (?A)
 The electronic state of the initial guess is 1-A1G.
 Leave Link  401 at Fri Jul  9 19:20:22 2021, MaxMem=  4194304000 cpu:         9.7
 (Enter /home/minenky/programs//g09/l502.exe)
 Closed shell SCF:
 Using DIIS extrapolation, IDIIS=  1040.
 Integral symmetry usage will be decided dynamically.
 Keep R1 ints in memory in symmetry-blocked form, NReq=29686040.
 IVT=      186166 IEndB=      186166 NGot=  4194304000 MDV=  4191130787
 LenX=  4191130787 LenY=  4191118682
 Requested convergence on RMS density matrix=1.00D-08 within 380 cycles.
 Requested convergence on MAX density matrix=1.00D-06.
 Requested convergence on             energy=1.00D-06.
 No special actions if energy rises.
 FoFCou: FMM=F IPFlag=           0 FMFlag=           0 FMFlg1=           0
         NFxFlg=           0 DoJE=F BraDBF=F KetDBF=F FulRan=T
         wScrn=  0.000000 ICntrl=     600 IOpCl=  0 I1Cent=           0 NGrid=           0
         NMat0=    1 NMatS0=   4851 NMatT0=    0 NMatD0=    1 NMtDS0=    0 NMtDT0=    0
 Petite list used in FoFCou.

 Cycle   1  Pass 1  IDiag  1:
 E= -79.8327666350977    
 DIIS: error= 1.79D-04 at cycle   1 NSaved=   1.
 NSaved= 1 IEnMin= 1 EnMin= -79.8327666350977     IErMin= 1 ErrMin= 1.79D-04
 ErrMax= 1.79D-04  0.00D+00 EMaxC= 1.00D-01 BMatC= 3.08D-06 BMatP= 3.08D-06
 IDIUse=3 WtCom= 9.98D-01 WtEn= 1.79D-03
 Coeff-Com:  0.100D+01
 Coeff-En:   0.100D+01
 Coeff:      0.100D+01
 Gap=     0.986 Goal=   None    Shift=    0.000
 RMSDP=1.47D-05 MaxDP=2.21D-04              OVMax= 5.91D-04

 Cycle   2  Pass 1  IDiag  1:
 E= -79.8327692850041     Delta-E=       -0.000002649906 Rises=F Damp=F
 DIIS: error= 7.03D-05 at cycle   2 NSaved=   2.
 NSaved= 2 IEnMin= 2 EnMin= -79.8327692850041     IErMin= 2 ErrMin= 7.03D-05
 ErrMax= 7.03D-05  0.00D+00 EMaxC= 1.00D-01 BMatC= 2.34D-07 BMatP= 3.08D-06
 IDIUse=1 WtCom= 1.00D+00 WtEn= 0.00D+00
 Coeff-Com:  0.838D-01 0.916D+00
 Coeff:      0.838D-01 0.916D+00
 Gap=     0.543 Goal=   None    Shift=    0.000
 RMSDP=4.99D-06 MaxDP=6.91D-05 DE=-2.65D-06 OVMax= 2.11D-04

 Cycle   3  Pass 1  IDiag  1:
 E= -79.8327694557150     Delta-E=       -0.000000170711 Rises=F Damp=F
 DIIS: error= 4.10D-05 at cycle   3 NSaved=   3.
 NSaved= 3 IEnMin= 3 EnMin= -79.8327694557150     IErMin= 3 ErrMin= 4.10D-05
 ErrMax= 4.10D-05  0.00D+00 EMaxC= 1.00D-01 BMatC= 8.38D-08 BMatP= 2.34D-07
 IDIUse=1 WtCom= 1.00D+00 WtEn= 0.00D+00
 Coeff-Com: -0.358D-01 0.359D+00 0.677D+00
 Coeff:     -0.358D-01 0.359D+00 0.677D+00
 Gap=     0.543 Goal=   None    Shift=    0.000
 RMSDP=1.58D-06 MaxDP=2.79D-05 DE=-1.71D-07 OVMax= 8.38D-05

 Cycle   4  Pass 1  IDiag  1:
 E= -79.8327695383107     Delta-E=       -0.000000082596 Rises=F Damp=F
 DIIS: error= 4.52D-06 at cycle   4 NSaved=   4.
 NSaved= 4 IEnMin= 4 EnMin= -79.8327695383107     IErMin= 4 ErrMin= 4.52D-06
 ErrMax= 4.52D-06  0.00D+00 EMaxC= 1.00D-01 BMatC= 5.60D-10 BMatP= 8.38D-08
 IDIUse=1 WtCom= 1.00D+00 WtEn= 0.00D+00
 Coeff-Com: -0.250D-02-0.267D-01 0.231D-01 0.101D+01
 Coeff:     -0.250D-02-0.267D-01 0.231D-01 0.101D+01
 Gap=     0.543 Goal=   None    Shift=    0.000
 RMSDP=4.08D-07 MaxDP=3.72D-06 DE=-8.26D-08 OVMax= 1.33D-05

 Cycle   5  Pass 1  IDiag  1:
 E= -79.8327695393322     Delta-E=       -0.000000001022 Rises=F Damp=F
 DIIS: error= 6.21D-07 at cycle   5 NSaved=   5.
 NSaved= 5 IEnMin= 5 EnMin= -79.8327695393322     IErMin= 5 ErrMin= 6.21D-07
 ErrMax= 6.21D-07  0.00D+00 EMaxC= 1.00D-01 BMatC= 2.00D-11 BMatP= 5.60D-10
 IDIUse=1 WtCom= 1.00D+00 WtEn= 0.00D+00
 Coeff-Com:  0.151D-02-0.171D-01-0.268D-01 0.565D-01 0.986D+00
 Coeff:      0.151D-02-0.171D-01-0.268D-01 0.565D-01 0.986D+00
 Gap=     0.543 Goal=   None    Shift=    0.000
 RMSDP=1.19D-07 MaxDP=1.37D-06 DE=-1.02D-09 OVMax= 2.60D-06

 Cycle   6  Pass 1  IDiag  1:
 E= -79.8327695393669     Delta-E=       -0.000000000035 Rises=F Damp=F
 DIIS: error= 7.56D-08 at cycle   6 NSaved=   6.
 NSaved= 6 IEnMin= 6 EnMin= -79.8327695393669     IErMin= 6 ErrMin= 7.56D-08
 ErrMax= 7.56D-08  0.00D+00 EMaxC= 1.00D-01 BMatC= 2.65D-13 BMatP= 2.00D-11
 IDIUse=1 WtCom= 1.00D+00 WtEn= 0.00D+00
 Coeff-Com: -0.161D-03 0.318D-02 0.283D-02-0.306D-01-0.122D+00 0.115D+01
 Coeff:     -0.161D-03 0.318D-02 0.283D-02-0.306D-01-0.122D+00 0.115D+01
 Gap=     0.543 Goal=   None    Shift=    0.000
 RMSDP=3.37D-08 MaxDP=4.97D-07 DE=-3.47D-11 OVMax= 6.13D-07

 Cycle   7  Pass 1  IDiag  1:
 E= -79.8327695393677     Delta-E=       -0.000000000001 Rises=F Damp=F
 DIIS: error= 1.02D-08 at cycle   7 NSaved=   7.
 NSaved= 7 IEnMin= 7 EnMin= -79.8327695393677     IErMin= 7 ErrMin= 1.02D-08
 ErrMax= 1.02D-08  0.00D+00 EMaxC= 1.00D-01 BMatC= 4.73D-15 BMatP= 2.65D-13
 IDIUse=1 WtCom= 1.00D+00 WtEn= 0.00D+00
 Coeff-Com:  0.116D-04-0.359D-03-0.203D-03 0.585D-02 0.375D-02-0.209D+00
 Coeff-Com:  0.120D+01
 Coeff:      0.116D-04-0.359D-03-0.203D-03 0.585D-02 0.375D-02-0.209D+00
 Coeff:      0.120D+01
 Gap=     0.543 Goal=   None    Shift=    0.000
 RMSDP=5.23D-09 MaxDP=8.20D-08 DE=-7.53D-13 OVMax= 7.58D-08

 SCF Done:  E(RwB97XD) =  -79.8327695394     A.U. after    7 cycles
            NFock=  7  Conv=0.52D-08     -V/T= 2.0062
 KE= 7.934463685858D+01 PE=-2.688507961952D+02 EE= 6.735832813726D+01
 Leave Link  502 at Fri Jul  9 19:20:40 2021, MaxMem=  4194304000 cpu:       274.0
 (Enter /home/minenky/programs//g09/l701.exe)
 Compute integral first derivatives.
 ... and contract with generalized density number  0.
 R6Disp: Adding Grimme-D2 dispersion energy 1st derivatives to the gradient.
  12 Symmetry operations used in ECPInt.
 ECPInt:  NShTT=    1081 NPrTT=    2988 LenC2=    1081 LenP2D=    2755.
 LDataN:  DoStor=T MaxTD1= 7 Len=  274
 Leave Link  701 at Fri Jul  9 19:20:42 2021, MaxMem=  4194304000 cpu:        21.1
 (Enter /home/minenky/programs//g09/l702.exe)
 L702 exits ... SP integral derivatives will be done elsewhere.
 Leave Link  702 at Fri Jul  9 19:20:42 2021, MaxMem=  4194304000 cpu:         0.1
 (Enter /home/minenky/programs//g09/l703.exe)
 Compute integral first derivatives, UseDBF=F ICtDFT=           0.
 Integral derivatives from FoFJK, PRISM(SPDF).
 Calling FoFJK, ICntrl=      2127 FMM=F ISym2X=1 I1Cent= 0 IOpClX= 0 NMat=1 NMatS=1 NMatT=0.
 FoFJK:  IHMeth= 1 ICntrl=    2127 DoSepK=T KAlg= 0 I1Cent=   0 FoldK=F
 IRaf=         1 NMat=   1 IRICut=       1 DoRegI=T DoRafI=F ISym2E= 1.
 FoFCou: FMM=F IPFlag=           0 FMFlag=      100000 FMFlg1=         800
         NFxFlg=           0 DoJE=F BraDBF=F KetDBF=F FulRan=T
         wScrn=  0.000000 ICntrl=    2527 IOpCl=  0 I1Cent=           0 NGrid=           0
         NMat0=    1 NMatS0=      1 NMatT0=    0 NMatD0=    1 NMtDS0=    0 NMtDT0=    0
 Petite list used in FoFCou.
 Leave Link  703 at Fri Jul  9 19:20:44 2021, MaxMem=  4194304000 cpu:        27.3
 (Enter /home/minenky/programs//g09/l716.exe)
 Dipole        = 3.88552648D-16-5.08972563D-16-1.22124533D-15
 ***** Axes restored to original set *****
 -------------------------------------------------------------------
 Center     Atomic                   Forces (Hartrees/Bohr)
 Number     Number              X              Y              Z
 -------------------------------------------------------------------
      1        6           0.000000000    0.000000000    0.000064936
      2        6           0.000000000    0.000000000   -0.000064936
      3        1           0.000000000   -0.000015559    0.000072493
      4        1           0.000013475    0.000007780    0.000072493
      5        1          -0.000013475    0.000007780    0.000072493
      6        1           0.000000000    0.000015559   -0.000072493
      7        1           0.000013475   -0.000007780   -0.000072493
      8        1          -0.000013475   -0.000007780   -0.000072493
 -------------------------------------------------------------------
 Cartesian Forces:  Max     0.000072493 RMS     0.000041542
 Leave Link  716 at Fri Jul  9 19:20:44 2021, MaxMem=  4194304000 cpu:         0.1
 (Enter /home/minenky/programs//g09/l103.exe)

 GradGradGradGradGradGradGradGradGradGradGradGradGradGradGradGradGradGrad
 Berny optimization.
 Using GEDIIS/GDIIS optimizer.
 FormGI is forming the generalized inverse of G from B-inverse, IUseBI=4.
 Internal  Forces:  Max     0.000282413 RMS     0.000071912
 Search for a local minimum.
 Step number   2 out of a maximum of   38
 All quantities printed in internal units (Hartrees-Bohrs-Radians)
 RMS Force = .71912D-04 SwitMx=.10000D-02 MixMth= 2
 Mixed Optimization -- En-DIIS/RFO-DIIS
 Swapping is turned off.
 Update second derivatives using D2CorX and points    1    2
 DE= -8.80D-06 DEPred=-1.05D-05 R= 8.41D-01
 TightC=F SS=  1.41D+00  RLast= 9.06D-03 DXNew= 5.0454D-01 2.7174D-02
 Trust test= 8.41D-01 RLast= 9.06D-03 DXMaxT set to 3.00D-01
 ITU=  1  0
     Eigenvalues ---    0.00419   0.05515   0.05515   0.05515   0.05515
     Eigenvalues ---    0.16000   0.16000   0.16000   0.16000   0.16000
     Eigenvalues ---    0.17172   0.32383   0.34442   0.34598   0.34598
     Eigenvalues ---    0.34598   0.34598   0.34598
 En-DIIS/RFO-DIIS IScMMF=        0 using points:     2    1
 RFO step:  Lambda=-2.82234967D-07.
 NNeg= 0 NP= 2 Switch=  2.50D-03 Rises=F DC=  8.80D-06 SmlDif=  1.00D-05
 RMS Error=  0.1418192114D-03 NUsed= 2 EDIIS=F
 DidBck=F Rises=F RFO-DIIS coefs:    0.86074    0.13926
 Iteration  1 RMS(Cart)=  0.00054315 RMS(Int)=  0.00000008
 Iteration  2 RMS(Cart)=  0.00000006 RMS(Int)=  0.00000005
 ITry= 1 IFail=0 DXMaxC= 1.12D-03 DCOld= 1.00D+10 DXMaxT= 3.00D-01 DXLimC= 3.00D+00 Rises=F
 ClnCor:  largest displacement from symmetrization is 4.58D-09 for atom     6.
 Variable       Old X    -DE/DX   Delta X   Delta X   Delta X     New X
                                 (Linear)    (Quad)   (Total)
    R1        2.87699   0.00028   0.00099  -0.00020   0.00079   2.87778
    R2        2.06246   0.00001   0.00012  -0.00010   0.00003   2.06249
    R3        2.06246   0.00001   0.00012  -0.00010   0.00003   2.06249
    R4        2.06246   0.00001   0.00012  -0.00010   0.00003   2.06249
    R5        2.06246   0.00001   0.00012  -0.00010   0.00003   2.06249
    R6        2.06246   0.00001   0.00012  -0.00010   0.00003   2.06249
    R7        2.06246   0.00001   0.00012  -0.00010   0.00003   2.06249
    A1        1.94151   0.00007   0.00020   0.00017   0.00037   1.94189
    A2        1.94151   0.00007   0.00020   0.00017   0.00037   1.94189
    A3        1.94151   0.00007   0.00020   0.00017   0.00037   1.94189
    A4        1.87877  -0.00008  -0.00022  -0.00018  -0.00040   1.87837
    A5        1.87877  -0.00008  -0.00022  -0.00018  -0.00040   1.87837
    A6        1.87877  -0.00008  -0.00022  -0.00018  -0.00040   1.87837
    A7        1.94151   0.00007   0.00020   0.00017   0.00037   1.94189
    A8        1.94151   0.00007   0.00020   0.00017   0.00037   1.94189
    A9        1.94151   0.00007   0.00020   0.00017   0.00037   1.94189
   A10        1.87877  -0.00008  -0.00022  -0.00018  -0.00040   1.87837
   A11        1.87877  -0.00008  -0.00022  -0.00018  -0.00040   1.87837
   A12        1.87877  -0.00008  -0.00022  -0.00018  -0.00040   1.87837
    D1        3.14159   0.00000   0.00000   0.00000   0.00000  -3.14159
    D2       -1.04720   0.00000   0.00000   0.00000   0.00000  -1.04720
    D3        1.04720   0.00000   0.00000   0.00000   0.00000   1.04720
    D4       -1.04720   0.00000   0.00000   0.00000   0.00000  -1.04720
    D5        1.04720   0.00000   0.00000   0.00000   0.00000   1.04720
    D6        3.14159   0.00000   0.00000   0.00000   0.00000   3.14159
    D7        1.04720   0.00000   0.00000   0.00000   0.00000   1.04720
    D8        3.14159   0.00000   0.00000   0.00000   0.00000   3.14159
    D9       -1.04720   0.00000   0.00000   0.00000   0.00000  -1.04720
         Item               Value     Threshold  Converged?
 Maximum Force            0.000282     0.000015     NO 
 RMS     Force            0.000072     0.000010     NO 
 Maximum Displacement     0.001122     0.000060     NO 
 RMS     Displacement     0.000543     0.000040     NO 
 Predicted change in Energy=-2.815779D-07
 Lowest energy point so far.  Saving SCF results.
 GradGradGradGradGradGradGradGradGradGradGradGradGradGradGradGradGradGrad

 Leave Link  103 at Fri Jul  9 19:20:45 2021, MaxMem=  4194304000 cpu:         8.8
 (Enter /home/minenky/programs//g09/l202.exe)
                          Input orientation:                          
 ---------------------------------------------------------------------
 Center     Atomic      Atomic             Coordinates (Angstroms)
 Number     Number       Type             X           Y           Z
 ---------------------------------------------------------------------
      1          6           0        0.000000    0.000000    0.761428
      2          6           0        0.000000    0.000000   -0.761428
      3          1           0        0.000000    1.017129    1.157214
      4          1           0       -0.880860   -0.508565    1.157214
      5          1           0        0.880860   -0.508565    1.157214
      6          1           0        0.000000   -1.017129   -1.157214
      7          1           0       -0.880860    0.508565   -1.157214
      8          1           0        0.880860    0.508565   -1.157214
 ---------------------------------------------------------------------
                    Distance matrix (angstroms):
                    1          2          3          4          5
     1  C    0.000000
     2  C    1.522855   0.000000
     3  H    1.091421   2.171575   0.000000
     4  H    1.091421   2.171575   1.761720   0.000000
     5  H    1.091421   2.171575   1.761720   1.761720   0.000000
     6  H    2.171575   1.091421   3.081362   2.528069   2.528069
     7  H    2.171575   1.091421   2.528069   2.528069   3.081362
     8  H    2.171575   1.091421   2.528069   3.081362   2.528069
                    6          7          8
     6  H    0.000000
     7  H    1.761720   0.000000
     8  H    1.761720   1.761720   0.000000
 Stoichiometry    C2H6
 Framework group  D3D[C3(C.C),3SGD(H2)]
 Deg. of freedom     3
 Full point group                 D3D     NOp  12
 RotChk:  IX=0 Diff= 1.27D-15
 Largest Abelian subgroup         C2H     NOp   4
 Largest concise Abelian subgroup C2H     NOp   4
                         Standard orientation:                         
 ---------------------------------------------------------------------
 Center     Atomic      Atomic             Coordinates (Angstroms)
 Number     Number       Type             X           Y           Z
 ---------------------------------------------------------------------
      1          6           0        0.000000    0.000000    0.761428
      2          6           0        0.000000    0.000000   -0.761428
      3          1           0        0.000000    1.017129    1.157214
      4          1           0       -0.880860   -0.508565    1.157214
      5          1           0        0.880860   -0.508565    1.157214
      6          1           0        0.000000   -1.017129   -1.157214
      7          1           0       -0.880860    0.508565   -1.157214
      8          1           0        0.880860    0.508565   -1.157214
 ---------------------------------------------------------------------
 Rotational constants (GHZ):     80.7845870     20.1024151     20.1024151
 Leave Link  202 at Fri Jul  9 19:20:45 2021, MaxMem=  4194304000 cpu:         0.3
 (Enter /home/minenky/programs//g09/l301.exe)
 Standard basis: def2TZVP (5D, 7F)
 Ernie: Thresh=  0.10000D-02 Tol=  0.10000D-05 Strict=F.
 There are    36 symmetry adapted cartesian basis functions of AG  symmetry.
 There are    18 symmetry adapted cartesian basis functions of BG  symmetry.
 There are    18 symmetry adapted cartesian basis functions of AU  symmetry.
 There are    36 symmetry adapted cartesian basis functions of BU  symmetry.
 There are    32 symmetry adapted basis functions of AG  symmetry.
 There are    17 symmetry adapted basis functions of BG  symmetry.
 There are    17 symmetry adapted basis functions of AU  symmetry.
 There are    32 symmetry adapted basis functions of BU  symmetry.
    98 basis functions,   150 primitive gaussians,   108 cartesian basis functions
     9 alpha electrons        9 beta electrons
       nuclear repulsion energy        42.3102978973 Hartrees.
 IExCor= 4639 DFT=T Ex+Corr=wB97XD ExCW=0 ScaHFX=  1.000000
 ScaDFX=  1.000000  1.000000  1.000000  1.000000 ScalE2=  1.000000  1.000000
 IRadAn=      5 IRanWt=     -1 IRanGd=            0 ICorTp=0 IEmpDi=121
  HFx wShort=  0.000000 wLong=  0.200000 cFull=  0.222036 cShort=  0.000000 cLong=  0.777964
  DFx wShort=  0.000000 wLong=  0.200000 cFull=  0.000000 cShort=  0.000000 cLong=  1.000000
 NAtoms=    8 NActive=    8 NUniq=    2 SFac= 4.00D+00 NAtFMM=   60 NAOKFM=F Big=F
 Integral buffers will be    131072 words long.
 Raffenetti 2 integral format.
 Two-electron integral symmetry is turned on.
 R6Disp:  Grimme-D2 Dispersion energy=       -0.0018614529 Hartrees.
 Nuclear repulsion after empirical dispersion term =       42.3084364444 Hartrees.
 Leave Link  301 at Fri Jul  9 19:20:45 2021, MaxMem=  4194304000 cpu:         0.3
 (Enter /home/minenky/programs//g09/l302.exe)
 NPDir=0 NMtPBC=     1 NCelOv=     1 NCel=       1 NClECP=     1 NCelD=      1
         NCelK=      1 NCelE2=     1 NClLst=     1 CellRange=     0.0.
 One-electron integrals computed using PRISM.
 One-electron integral symmetry used in STVInt
  12 Symmetry operations used in ECPInt.
 ECPInt:  NShTT=    1081 NPrTT=    2988 LenC2=    1081 LenP2D=    2755.
 LDataN:  DoStor=T MaxTD1= 6 Len=  172
 NBasis=    98 RedAO= T EigKep=  5.45D-04  NBF=    32    17    17    32
 NBsUse=    98 1.00D-06 EigRej= -1.00D+00 NBFU=    32    17    17    32
 Precomputing XC quadrature grid using
 IXCGrd= 4 IRadAn=           5 IRanWt=          -1 IRanGd=           0 AccXCQ= 0.00D+00.
 Generated NRdTot=       0 NPtTot=           0 NUsed=           0 NTot=          32
 NSgBfM=   108   108   108   108   108 MxSgAt=     8 MxSgA2=     8.
 Leave Link  302 at Fri Jul  9 19:20:48 2021, MaxMem=  4194304000 cpu:        44.7
 (Enter /home/minenky/programs//g09/l303.exe)
 DipDrv:  MaxL=1.
 Leave Link  303 at Fri Jul  9 19:20:48 2021, MaxMem=  4194304000 cpu:         2.5
 (Enter /home/minenky/programs//g09/l401.exe)
 Initial guess from the checkpoint file:  "m1_00_74-84-00_C2H6_wB97XD.chk"
 B after Tr=     0.000000    0.000000    0.000000
         Rot=    1.000000    0.000000    0.000000    0.000000 Ang=   0.00 deg.
 Guess basis will be translated and rotated to current coordinates.
 JPrj=2 DoOrth=T DoCkMO=T.
 Initial guess orbital symmetries:
       Occupied  (A1G) (A2U) (A1G) (A2U) (EU) (EU) (A1G) (EG) (EG)
       Virtual   (A2U) (A2U) (A2U) (A2U) (A2U) (A2U) (A2U) (A2U)
                 (A2U) (A2U) (A2U) (A2U) (A2U) (A2U) (A2U) (A2U)
                 (A2U) (A2U) (A2U) (A2U) (A2U) (A2U) (A2U) (A2U)
                 (A2U) (A2U) (A2U) (A2U) (A2U) (A2U) (A2U) (A2U)
                 (A2U) (A2U) (A2U) (A2U) (A2U) (A2U) (A2U) (A2U)
                 (A2U) (A2U) (A2U) (A2U) (?A) (?A) (?A) (?A) (?A)
                 (?A) (?A) (?A) (?A) (?A) (?A) (?A) (?A) (?A) (?A)
                 (?A) (?A) (?A) (?A) (?A) (?A) (?A) (?A) (?A) (?A)
                 (?A) (?A) (?A) (?A) (?A) (?A) (?A) (?A) (?A) (?A)
                 (?A) (?A) (?A) (?A) (?A) (?A) (?A) (?A) (?A) (?A)
 The electronic state of the initial guess is 1-A1G.
 Leave Link  401 at Fri Jul  9 19:20:49 2021, MaxMem=  4194304000 cpu:         7.7
 (Enter /home/minenky/programs//g09/l502.exe)
 Closed shell SCF:
 Using DIIS extrapolation, IDIIS=  1040.
 Integral symmetry usage will be decided dynamically.
 Keep R1 ints in memory in symmetry-blocked form, NReq=29686040.
 IVT=      186166 IEndB=      186166 NGot=  4194304000 MDV=  4191130787
 LenX=  4191130787 LenY=  4191118682
 Requested convergence on RMS density matrix=1.00D-08 within 380 cycles.
 Requested convergence on MAX density matrix=1.00D-06.
 Requested convergence on             energy=1.00D-06.
 No special actions if energy rises.
 FoFCou: FMM=F IPFlag=           0 FMFlag=           0 FMFlg1=           0
         NFxFlg=           0 DoJE=F BraDBF=F KetDBF=F FulRan=T
         wScrn=  0.000000 ICntrl=     600 IOpCl=  0 I1Cent=           0 NGrid=           0
         NMat0=    1 NMatS0=   4851 NMatT0=    0 NMatD0=    1 NMtDS0=    0 NMtDT0=    0
 Petite list used in FoFCou.

 Cycle   1  Pass 1  IDiag  1:
 E= -79.8327697676295    
 DIIS: error= 2.47D-05 at cycle   1 NSaved=   1.
 NSaved= 1 IEnMin= 1 EnMin= -79.8327697676295     IErMin= 1 ErrMin= 2.47D-05
 ErrMax= 2.47D-05  0.00D+00 EMaxC= 1.00D-01 BMatC= 6.67D-08 BMatP= 6.67D-08
 IDIUse=1 WtCom= 1.00D+00 WtEn= 0.00D+00
 Coeff-Com:  0.100D+01
 Coeff:      0.100D+01
 Gap=     0.987 Goal=   None    Shift=    0.000
 RMSDP=2.35D-06 MaxDP=3.59D-05              OVMax= 8.39D-05

 Cycle   2  Pass 1  IDiag  1:
 E= -79.8327698249402     Delta-E=       -0.000000057311 Rises=F Damp=F
 DIIS: error= 6.20D-06 at cycle   2 NSaved=   2.
 NSaved= 2 IEnMin= 2 EnMin= -79.8327698249402     IErMin= 2 ErrMin= 6.20D-06
 ErrMax= 6.20D-06  0.00D+00 EMaxC= 1.00D-01 BMatC= 2.57D-09 BMatP= 6.67D-08
 IDIUse=1 WtCom= 1.00D+00 WtEn= 0.00D+00
 Coeff-Com:  0.159D-01 0.984D+00
 Coeff:      0.159D-01 0.984D+00
 Gap=     0.543 Goal=   None    Shift=    0.000
 RMSDP=6.41D-07 MaxDP=7.37D-06 DE=-5.73D-08 OVMax= 2.30D-05

 Cycle   3  Pass 1  IDiag  1:
 E= -79.8327698270560     Delta-E=       -0.000000002116 Rises=F Damp=F
 DIIS: error= 4.07D-06 at cycle   3 NSaved=   3.
 NSaved= 3 IEnMin= 3 EnMin= -79.8327698270560     IErMin= 3 ErrMin= 4.07D-06
 ErrMax= 4.07D-06  0.00D+00 EMaxC= 1.00D-01 BMatC= 8.96D-10 BMatP= 2.57D-09
 IDIUse=1 WtCom= 1.00D+00 WtEn= 0.00D+00
 Coeff-Com: -0.311D-01 0.353D+00 0.678D+00
 Coeff:     -0.311D-01 0.353D+00 0.678D+00
 Gap=     0.543 Goal=   None    Shift=    0.000
 RMSDP=1.79D-07 MaxDP=3.10D-06 DE=-2.12D-09 OVMax= 9.20D-06

 Cycle   4  Pass 1  IDiag  1:
 E= -79.8327698279303     Delta-E=       -0.000000000874 Rises=F Damp=F
 DIIS: error= 8.50D-07 at cycle   4 NSaved=   4.
 NSaved= 4 IEnMin= 4 EnMin= -79.8327698279303     IErMin= 4 ErrMin= 8.50D-07
 ErrMax= 8.50D-07  0.00D+00 EMaxC= 1.00D-01 BMatC= 2.41D-11 BMatP= 8.96D-10
 IDIUse=1 WtCom= 1.00D+00 WtEn= 0.00D+00
 Coeff-Com: -0.481D-02-0.498D-02 0.126D+00 0.884D+00
 Coeff:     -0.481D-02-0.498D-02 0.126D+00 0.884D+00
 Gap=     0.543 Goal=   None    Shift=    0.000
 RMSDP=6.30D-08 MaxDP=6.17D-07 DE=-8.74D-10 OVMax= 2.27D-06

 Cycle   5  Pass 1  IDiag  1:
 E= -79.8327698279626     Delta-E=       -0.000000000032 Rises=F Damp=F
 DIIS: error= 1.21D-07 at cycle   5 NSaved=   5.
 NSaved= 5 IEnMin= 5 EnMin= -79.8327698279626     IErMin= 5 ErrMin= 1.21D-07
 ErrMax= 1.21D-07  0.00D+00 EMaxC= 1.00D-01 BMatC= 5.73D-13 BMatP= 2.41D-11
 IDIUse=1 WtCom= 1.00D+00 WtEn= 0.00D+00
 Coeff-Com:  0.181D-02-0.203D-01-0.328D-01 0.191D-01 0.103D+01
 Coeff:      0.181D-02-0.203D-01-0.328D-01 0.191D-01 0.103D+01
 Gap=     0.543 Goal=   None    Shift=    0.000
 RMSDP=2.16D-08 MaxDP=2.43D-07 DE=-3.23D-11 OVMax= 5.43D-07

 Cycle   6  Pass 1  IDiag  1:
 E= -79.8327698279639     Delta-E=       -0.000000000001 Rises=F Damp=F
 DIIS: error= 1.03D-08 at cycle   6 NSaved=   6.
 NSaved= 6 IEnMin= 6 EnMin= -79.8327698279639     IErMin= 6 ErrMin= 1.03D-08
 ErrMax= 1.03D-08  0.00D+00 EMaxC= 1.00D-01 BMatC= 6.50D-15 BMatP= 5.73D-13
 IDIUse=1 WtCom= 1.00D+00 WtEn= 0.00D+00
 Coeff-Com: -0.204D-03 0.354D-02 0.196D-02-0.183D-01-0.159D+00 0.117D+01
 Coeff:     -0.204D-03 0.354D-02 0.196D-02-0.183D-01-0.159D+00 0.117D+01
 Gap=     0.543 Goal=   None    Shift=    0.000
 RMSDP=5.10D-09 MaxDP=7.06D-08 DE=-1.25D-12 OVMax= 9.90D-08

 SCF Done:  E(RwB97XD) =  -79.8327698280     A.U. after    6 cycles
            NFock=  6  Conv=0.51D-08     -V/T= 2.0062
 KE= 7.934369720142D+01 PE=-2.688367683200D+02 EE= 6.735186484623D+01
 Leave Link  502 at Fri Jul  9 19:21:04 2021, MaxMem=  4194304000 cpu:       231.7
 (Enter /home/minenky/programs//g09/l701.exe)
 Compute integral first derivatives.
 ... and contract with generalized density number  0.
 R6Disp: Adding Grimme-D2 dispersion energy 1st derivatives to the gradient.
  12 Symmetry operations used in ECPInt.
 ECPInt:  NShTT=    1081 NPrTT=    2988 LenC2=    1081 LenP2D=    2755.
 LDataN:  DoStor=T MaxTD1= 7 Len=  274
 Leave Link  701 at Fri Jul  9 19:21:06 2021, MaxMem=  4194304000 cpu:        20.4
 (Enter /home/minenky/programs//g09/l702.exe)
 L702 exits ... SP integral derivatives will be done elsewhere.
 Leave Link  702 at Fri Jul  9 19:21:06 2021, MaxMem=  4194304000 cpu:         0.1
 (Enter /home/minenky/programs//g09/l703.exe)
 Compute integral first derivatives, UseDBF=F ICtDFT=           0.
 Integral derivatives from FoFJK, PRISM(SPDF).
 Calling FoFJK, ICntrl=      2127 FMM=F ISym2X=1 I1Cent= 0 IOpClX= 0 NMat=1 NMatS=1 NMatT=0.
 FoFJK:  IHMeth= 1 ICntrl=    2127 DoSepK=T KAlg= 0 I1Cent=   0 FoldK=F
 IRaf=         1 NMat=   1 IRICut=       1 DoRegI=T DoRafI=F ISym2E= 1.
 FoFCou: FMM=F IPFlag=           0 FMFlag=      100000 FMFlg1=         800
         NFxFlg=           0 DoJE=F BraDBF=F KetDBF=F FulRan=T
         wScrn=  0.000000 ICntrl=    2527 IOpCl=  0 I1Cent=           0 NGrid=           0
         NMat0=    1 NMatS0=      1 NMatT0=    0 NMatD0=    1 NMtDS0=    0 NMtDT0=    0
 Petite list used in FoFCou.
 Leave Link  703 at Fri Jul  9 19:21:08 2021, MaxMem=  4194304000 cpu:        27.6
 (Enter /home/minenky/programs//g09/l716.exe)
[...]
     22  0.362050D-03 -0.575871D-03  0.743469D-03  0.115444D-03  0.408613D-03
     23  0.109752D-02 -0.332479D-03 -0.115445D-03 -0.236897D-03  0.341872D-03
     24 -0.332479D-03 -0.706573D-02 -0.408612D-03  0.341872D-03  0.140467D-02
               16            17            18            19            20 
     16  0.466912D-01
     17  0.000000D+00  0.304315D+00
     18  0.000000D+00  0.958479D-01  0.886730D-01
     19  0.741835D-03 -0.911502D-03  0.109397D-02  0.239909D+00
     20  0.254745D-01 -0.134396D-01  0.110716D-01 -0.111555D+00  0.111097D+00
     21  0.101353D-01 -0.458840D-02  0.357281D-02  0.830067D-01 -0.479240D-01
     22  0.741835D-03  0.911502D-03 -0.109397D-02 -0.205303D-01 -0.131930D-01
     23 -0.254745D-01 -0.134396D-01  0.110716D-01  0.131930D-01  0.783256D-02
     24 -0.101353D-01 -0.458840D-02  0.357281D-02 -0.904131D-02 -0.648321D-02
               21            22            23            24 
     21  0.886730D-01
     22  0.904131D-02  0.239909D+00
     23 -0.648322D-02  0.111555D+00  0.111097D+00
     24  0.357281D-02 -0.830067D-01 -0.479240D-01  0.886730D-01
 FormGI is forming the generalized inverse of G from B-inverse, IUseBI=4.
 Force constants in internal coordinates: 
                1             2             3             4             5 
      1  0.295658D+00
      2  0.538849D-02  0.340738D+00
      3  0.538834D-02  0.251892D-02  0.340737D+00
      4  0.538834D-02  0.251892D-02  0.252027D-02  0.340737D+00
      5  0.538849D-02 -0.101403D-02  0.618610D-03  0.618610D-03  0.340738D+00
      6  0.538834D-02  0.618610D-03  0.617722D-03 -0.101464D-02  0.251892D-02
      7  0.538834D-02  0.618610D-03 -0.101464D-02  0.617722D-03  0.251892D-02
      8  0.154642D-01  0.972160D-03 -0.562012D-02 -0.562012D-02  0.390420D-02
      9  0.154558D-01 -0.561922D-02  0.974753D-03 -0.562222D-02 -0.100522D-02
     10  0.154558D-01 -0.561922D-02 -0.562222D-02  0.974753D-03 -0.100522D-02
     11 -0.164463D-01  0.528719D-02  0.528735D-02  0.348415D-03 -0.113808D-02
     12 -0.164463D-01  0.528719D-02  0.348415D-03  0.528735D-02 -0.113808D-02
     13 -0.164455D-01  0.347669D-03  0.528767D-02  0.528767D-02  0.261428D-03
     14  0.154642D-01  0.390420D-02 -0.100612D-02 -0.100612D-02  0.972160D-03
     15  0.154558D-01 -0.100522D-02 -0.100445D-02  0.390580D-02 -0.561922D-02
     16  0.154558D-01 -0.100522D-02  0.390580D-02 -0.100445D-02 -0.561922D-02
     17 -0.164463D-01 -0.113808D-02  0.261239D-03 -0.113873D-02  0.528719D-02
     18 -0.164463D-01 -0.113808D-02 -0.113873D-02  0.261239D-03  0.528719D-02
     19 -0.164455D-01  0.261428D-03 -0.113880D-02 -0.113880D-02  0.347669D-03
     20  0.000000D+00  0.000000D+00 -0.305613D-02  0.305613D-02  0.000000D+00
     21  0.156550D-05  0.511957D-03 -0.408038D-02  0.356773D-02  0.356754D-02
     22 -0.156550D-05 -0.511957D-03 -0.356773D-02  0.408038D-02 -0.356754D-02
     23  0.156550D-05  0.356754D-02  0.512752D-03 -0.408063D-02  0.511957D-03
     24  0.313100D-05  0.407949D-02 -0.511495D-03 -0.356902D-02  0.407949D-02
     25  0.000000D+00  0.305558D-02  0.114935D-05 -0.305638D-02 -0.305558D-02
     26 -0.156550D-05 -0.356754D-02  0.408063D-02 -0.512752D-03 -0.511957D-03
     27  0.000000D+00 -0.305558D-02  0.305638D-02 -0.114935D-05  0.305558D-02
     28 -0.313100D-05 -0.407949D-02  0.356902D-02  0.511495D-03 -0.407949D-02
                6             7             8             9            10 
      6  0.340737D+00
      7  0.252027D-02  0.340737D+00
      8 -0.100612D-02 -0.100612D-02  0.102796D+00
      9 -0.100445D-02  0.390580D-02 -0.204073D-01  0.102792D+00
     10  0.390580D-02 -0.100445D-02 -0.204073D-01 -0.204038D-01  0.102792D+00
     11  0.261239D-03 -0.113873D-02 -0.399710D-01 -0.399702D-01  0.140002D-01
     12 -0.113873D-02  0.261239D-03 -0.399710D-01  0.140002D-01 -0.399702D-01
     13 -0.113880D-02 -0.113880D-02  0.140010D-01 -0.399702D-01 -0.399702D-01
     14 -0.562012D-02 -0.562012D-02  0.170312D-01 -0.695021D-02 -0.695021D-02
     15  0.974753D-03 -0.562222D-02 -0.695021D-02 -0.695024D-02  0.170313D-01
     16 -0.562222D-02  0.974753D-03 -0.695021D-02  0.170313D-01 -0.695024D-02
     17  0.528735D-02  0.348415D-03 -0.385113D-02  0.437133D-02 -0.385047D-02
     18  0.348415D-03  0.528735D-02 -0.385113D-02 -0.385047D-02  0.437133D-02
     19  0.528767D-02  0.528767D-02  0.437146D-02 -0.385170D-02 -0.385170D-02
     20 -0.305613D-02  0.305613D-02  0.000000D+00 -0.296885D-02  0.296885D-02
     21  0.512752D-03 -0.408063D-02  0.191521D-02 -0.679947D-02  0.488495D-02
     22  0.408063D-02 -0.512752D-03 -0.191521D-02 -0.488495D-02  0.679947D-02
     23 -0.408038D-02  0.356773D-02  0.488506D-02  0.191430D-02 -0.679995D-02
     24 -0.511495D-03 -0.356902D-02  0.680027D-02 -0.191632D-02 -0.488385D-02
     25  0.305638D-02 -0.114935D-05  0.296985D-02 -0.179900D-05 -0.296933D-02
     26 -0.356773D-02  0.408038D-02 -0.488506D-02  0.679995D-02 -0.191430D-02
     27  0.114935D-05 -0.305638D-02 -0.296985D-02  0.296933D-02  0.179900D-05
     28  0.356902D-02  0.511495D-03 -0.680027D-02  0.488385D-02  0.191632D-02
               11            12            13            14            15 
     11  0.515681D-01
     12  0.929279D-02  0.515681D-01
     13  0.929219D-02  0.929219D-02  0.515669D-01
     14 -0.385113D-02 -0.385113D-02  0.437146D-02  0.102796D+00
     15  0.437133D-02 -0.385047D-02 -0.385170D-02 -0.204073D-01  0.102792D+00
     16 -0.385047D-02  0.437133D-02 -0.385170D-02 -0.204073D-01 -0.204038D-01
     17  0.284628D-03  0.297335D-02  0.285017D-03 -0.399710D-01 -0.399702D-01
     18  0.297335D-02  0.284628D-03  0.285017D-03 -0.399710D-01  0.140002D-01
     19  0.285017D-03  0.285017D-03  0.297473D-02  0.140010D-01 -0.399702D-01
     20 -0.644234D-02  0.644234D-02  0.000000D+00  0.000000D+00 -0.296885D-02
     21 -0.573099D-02  0.501871D-02  0.711545D-03  0.488506D-02  0.191430D-02
     22 -0.501871D-02  0.573099D-02 -0.711545D-03 -0.488506D-02  0.679995D-02
     23  0.501886D-02  0.711875D-03 -0.573011D-02  0.191521D-02 -0.679947D-02
     24  0.573021D-02 -0.711757D-03 -0.501857D-02  0.680027D-02 -0.191632D-02
     25  0.644249D-02  0.000000D+00 -0.644166D-02 -0.296985D-02  0.296933D-02
     26 -0.711875D-03 -0.501886D-02  0.573011D-02 -0.191521D-02 -0.488495D-02
     27  0.000000D+00 -0.644249D-02  0.644166D-02  0.296985D-02 -0.179900D-05
     28  0.711757D-03 -0.573021D-02  0.501857D-02 -0.680027D-02  0.488385D-02
               16            17            18            19            20 
     16  0.102792D+00
     17  0.140002D-01  0.515681D-01
     18 -0.399702D-01  0.929279D-02  0.515681D-01
     19 -0.399702D-01  0.929219D-02  0.929219D-02  0.515669D-01
     20  0.296885D-02 -0.644234D-02  0.644234D-02  0.000000D+00  0.138033D-01
     21 -0.679995D-02  0.501886D-02  0.711875D-03 -0.573011D-02  0.363814D-02
     22 -0.191430D-02 -0.711875D-03 -0.501886D-02  0.573011D-02  0.363814D-02
     23  0.488495D-02 -0.573099D-02  0.501871D-02  0.711545D-03  0.363814D-02
     24 -0.488385D-02  0.573021D-02 -0.711757D-03 -0.501857D-02 -0.652699D-02
     25  0.179900D-05  0.000000D+00 -0.644249D-02  0.644166D-02 -0.652699D-02
     26  0.679947D-02 -0.501871D-02  0.573099D-02 -0.711545D-03  0.363814D-02
     27 -0.296933D-02  0.644249D-02  0.000000D+00 -0.644166D-02 -0.652699D-02
     28  0.191632D-02  0.711757D-03 -0.573021D-02  0.501857D-02 -0.652699D-02
               21            22            23            24            25 
     21  0.145815D-01
     22  0.402683D-02  0.145815D-01
     23 -0.691670D-02 -0.730556D-02  0.145815D-01
     24  0.402665D-02 -0.691687D-02  0.402665D-02  0.145803D-01
     25 -0.652801D-02  0.363779D-02  0.363779D-02  0.363677D-02  0.138026D-01
     26 -0.730556D-02 -0.691670D-02  0.402683D-02 -0.691687D-02 -0.652801D-02
     27  0.363779D-02 -0.652801D-02 -0.652801D-02  0.363677D-02 -0.652902D-02
     28 -0.691687D-02  0.402665D-02 -0.691687D-02 -0.730675D-02  0.363677D-02
               26            27            28 
     26  0.145815D-01
     27  0.363779D-02  0.138026D-01
     28  0.402665D-02  0.363677D-02  0.145803D-01
 Leave Link  716 at Fri Jul  9 19:22:05 2021, MaxMem=  4194304000 cpu:         5.3
 (Enter /home/minenky/programs//g09/l103.exe)

 GradGradGradGradGradGradGradGradGradGradGradGradGradGradGradGradGradGrad
 Berny optimization.
 Red2BG is reusing G-inverse.
 Internal  Forces:  Max     0.000006730 RMS     0.000001546
 Search for a local minimum.
 Step number   1 out of a maximum of    2
 All quantities printed in internal units (Hartrees-Bohrs-Radians)
 Second derivative matrix not updated -- analytic derivatives used.
 ITU=  0
     Eigenvalues ---    0.00224   0.04485   0.04485   0.04671   0.04671
     Eigenvalues ---    0.12019   0.12401   0.12402   0.12404   0.17697
     Eigenvalues ---    0.17698   0.31101   0.33788   0.33788   0.34028
     Eigenvalues ---    0.34029   0.34698   0.34926
 Angle between quadratic step and forces=  22.26 degrees.
 Linear search not attempted -- first point.
 Iteration  1 RMS(Cart)=  0.00000656 RMS(Int)=  0.00000000
 Iteration  2 RMS(Cart)=  0.00000000 RMS(Int)=  0.00000001
 ITry= 1 IFail=0 DXMaxC= 1.57D-05 DCOld= 1.00D+10 DXMaxT= 3.00D-01 DXLimC= 3.00D+00 Rises=F
 ClnCor:  largest displacement from symmetrization is 8.51D-09 for atom     4.
 Variable       Old X    -DE/DX   Delta X   Delta X   Delta X     New X
                                 (Linear)    (Quad)   (Total)
    R1        2.87768  -0.00001   0.00000  -0.00003  -0.00003   2.87765
    R2        2.06250   0.00000   0.00000   0.00000   0.00000   2.06251
    R3        2.06250   0.00000   0.00000   0.00000   0.00000   2.06251
    R4        2.06250   0.00000   0.00000   0.00000   0.00000   2.06251
    R5        2.06250   0.00000   0.00000   0.00000   0.00000   2.06251
    R6        2.06250   0.00000   0.00000   0.00000   0.00000   2.06251
    R7        2.06250   0.00000   0.00000   0.00000   0.00000   2.06251
    A1        1.94194   0.00000   0.00000   0.00001   0.00001   1.94195
    A2        1.94194   0.00000   0.00000   0.00001   0.00001   1.94195
    A3        1.94194   0.00000   0.00000   0.00001   0.00001   1.94195
    A4        1.87831   0.00000   0.00000  -0.00001  -0.00001   1.87830
    A5        1.87831   0.00000   0.00000  -0.00001  -0.00001   1.87830
    A6        1.87831   0.00000   0.00000  -0.00001  -0.00001   1.87830
    A7        1.94194   0.00000   0.00000   0.00001   0.00001   1.94195
    A8        1.94194   0.00000   0.00000   0.00001   0.00001   1.94195
    A9        1.94194   0.00000   0.00000   0.00001   0.00001   1.94195
   A10        1.87831   0.00000   0.00000  -0.00001  -0.00001   1.87830
   A11        1.87831   0.00000   0.00000  -0.00001  -0.00001   1.87830
   A12        1.87831   0.00000   0.00000  -0.00001  -0.00001   1.87830
    D1       -3.14159   0.00000   0.00000   0.00000   0.00000   3.14159
    D2       -1.04720   0.00000   0.00000   0.00000   0.00000  -1.04720
    D3        1.04720   0.00000   0.00000   0.00000   0.00000   1.04720
    D4       -1.04720   0.00000   0.00000   0.00000   0.00000  -1.04720
    D5        1.04720   0.00000   0.00000   0.00000   0.00000   1.04720
    D6        3.14159   0.00000   0.00000   0.00000   0.00000   3.14159
    D7        1.04720   0.00000   0.00000   0.00000   0.00000   1.04720
    D8        3.14159   0.00000   0.00000   0.00000   0.00000   3.14159
    D9       -1.04720   0.00000   0.00000   0.00000   0.00000  -1.04720
         Item               Value     Threshold  Converged?
 Maximum Force            0.000007     0.000015     YES
 RMS     Force            0.000002     0.000010     YES
 Maximum Displacement     0.000016     0.000060     YES
 RMS     Displacement     0.000007     0.000040     YES
 Predicted change in Energy=-2.060913D-10
 Optimization completed.
    -- Stationary point found.
                           ----------------------------
                           !   Optimized Parameters   !
                           ! (Angstroms and Degrees)  !
 --------------------------                            --------------------------
 ! Name  Definition              Value          Derivative Info.                !
 --------------------------------------------------------------------------------
 ! R1    R(1,2)                  1.5228         -DE/DX =    0.0                 !
 ! R2    R(1,3)                  1.0914         -DE/DX =    0.0                 !
 ! R3    R(1,4)                  1.0914         -DE/DX =    0.0                 !
 ! R4    R(1,5)                  1.0914         -DE/DX =    0.0                 !
 ! R5    R(2,6)                  1.0914         -DE/DX =    0.0                 !
 ! R6    R(2,7)                  1.0914         -DE/DX =    0.0                 !
 ! R7    R(2,8)                  1.0914         -DE/DX =    0.0                 !
 ! A1    A(2,1,3)              111.2651         -DE/DX =    0.0                 !
 ! A2    A(2,1,4)              111.2651         -DE/DX =    0.0                 !
 ! A3    A(2,1,5)              111.2651         -DE/DX =    0.0                 !
 ! A4    A(3,1,4)              107.6193         -DE/DX =    0.0                 !
 ! A5    A(3,1,5)              107.6193         -DE/DX =    0.0                 !
 ! A6    A(4,1,5)              107.6193         -DE/DX =    0.0                 !
 ! A7    A(1,2,6)              111.2651         -DE/DX =    0.0                 !
 ! A8    A(1,2,7)              111.2651         -DE/DX =    0.0                 !
 ! A9    A(1,2,8)              111.2651         -DE/DX =    0.0                 !
 ! A10   A(6,2,7)              107.6193         -DE/DX =    0.0                 !
 ! A11   A(6,2,8)              107.6193         -DE/DX =    0.0                 !
 ! A12   A(7,2,8)              107.6193         -DE/DX =    0.0                 !
 ! D1    D(3,1,2,6)            180.0            -DE/DX =    0.0                 !
 ! D2    D(3,1,2,7)            -60.0            -DE/DX =    0.0                 !
 ! D3    D(3,1,2,8)             60.0            -DE/DX =    0.0                 !
 ! D4    D(4,1,2,6)            -60.0            -DE/DX =    0.0                 !
 ! D5    D(4,1,2,7)             60.0            -DE/DX =    0.0                 !
 ! D6    D(4,1,2,8)            180.0            -DE/DX =    0.0                 !
 ! D7    D(5,1,2,6)             60.0            -DE/DX =    0.0                 !
 ! D8    D(5,1,2,7)            180.0            -DE/DX =    0.0                 !
 ! D9    D(5,1,2,8)            -60.0            -DE/DX =    0.0                 !
 --------------------------------------------------------------------------------
 GradGradGradGradGradGradGradGradGradGradGradGradGradGradGradGradGradGrad

 Leave Link  103 at Fri Jul  9 19:22:06 2021, MaxMem=  4194304000 cpu:        19.3
 (Enter /home/minenky/programs//g09/l9999.exe)
 1\1\GINC-CN506-02-L\Freq\RwB97XD\def2TZVP\C2H6\MINENKY\09-Jul-2021\0\\
 #P Geom=AllCheck Guess=TCheck SCRF=Check GenChk RwB97XD/def2TZVP Freq\
 \The PBEPBE optimization and frequencies\\0,1\C,0.,0.,0.7614014278\C,0
 .,0.,-0.7614014278\H,0.0000000133,1.0171170094,1.1572456006\H,-0.88084
 91755,-0.5085584932,1.1572456006\H,0.8808491621,-0.5085585163,1.157245
 6006\H,-0.0000000133,-1.0171170094,-1.1572456006\H,-0.8808491621,0.508
 5585163,-1.1572456006\H,0.8808491755,0.5085584932,-1.1572456006\\Versi
 on=AM64L-G09RevD.01\State=1-A1G\HF=-79.8327698\RMSD=1.466e-09\RMSF=3.2
 57e-06\ZeroPoint=0.0750043\Thermal=0.0784818\Dipole=0.,0.,0.\DipoleDer
 iv=0.0896111,0.,0.,0.,0.08917,0.0000995,0.,-0.0000322,0.0486107,0.0896
 111,0.,0.,0.,0.08917,0.0000995,0.,-0.0000322,0.0486107,0.072091,0.,0.,
 0.,-0.1315854,-0.1004279,0.,-0.0576603,-0.0160688,-0.0807587,-0.088190
 9,0.0870276,-0.0881706,0.0211898,0.0501891,0.0500104,0.0288382,-0.0161
 699,-0.0807587,0.0881909,-0.0870276,0.0881706,0.0211898,0.0501891,-0.0
 500104,0.0288382,-0.0161699,0.072091,0.,0.,0.,-0.1315854,-0.1004279,0.
 ,-0.0576603,-0.0160688,-0.0807587,0.0881909,-0.0870276,0.0881706,0.021
 1898,0.0501891,-0.0500104,0.0288382,-0.0161699,-0.0807587,-0.0881909,0
 .0870276,-0.0881706,0.0211898,0.0501891,0.0500104,0.0288382,-0.0161699
 \Polar=25.8712431,0.,25.8723017,0.,0.00217,28.5813778\PG=D03D [C3(C1.C
 1),3SGD(H2)]\NImag=0\\0.57384314,0.,0.57387637,0.,0.00002191,0.4820404
 1,-0.08002232,0.,0.,0.57384314,0.,-0.08002660,-0.00001280,0.,0.5738763
 7,0.,-0.00001280,-0.20736624,0.,0.00002191,0.48204041,-0.04863209,0.,0
 .,-0.00045639,0.,0.,0.04669116,0.,-0.28255779,-0.08743711,0.,0.0024089
 9,0.00115929,0.,0.30431542,0.,-0.08588129,-0.07897504,0.,-0.03313220,-
 0.01258721,0.,0.09584792,0.08867303,-0.22406603,-0.10129615,0.07572714
 ,0.00169108,0.00123914,-0.00100649,0.00074183,0.00091150,-0.00109397,0
 .23990936,-0.10129993,-0.10710582,0.04372111,0.00124047,0.00025380,-0.
 00058448,-0.02547449,-0.01343962,0.01107161,0.11155457,0.11109722,0.07
 437523,0.04293877,-0.07897201,0.02869563,0.01656569,-0.01258710,-0.010
 13528,-0.00458840,0.00357281,-0.08300674,-0.04792396,0.08867303,-0.224
 06603,0.10129616,-0.07572714,0.00169108,-0.00123914,0.00100649,0.00074
 184,-0.00091150,0.00109397,-0.02053034,0.01319300,-0.00904131,0.239909
 35,0.10129993,-0.10710582,0.04372112,-0.00124047,0.00025380,-0.0005844
 8,0.02547449,-0.01343962,0.01107161,-0.01319300,0.00783256,-0.00648321
 ,-0.11155458,0.11109723,-0.07437523,0.04293877,-0.07897201,-0.02869563
 ,0.01656569,-0.01258710,0.01013528,-0.00458840,0.00357281,0.00904131,-
 0.00648322,0.00357281,0.08300674,-0.04792396,0.08867303,-0.00045639,0.
 ,0.,-0.04863209,0.,0.,0.00088849,0.,0.,0.00000819,0.00053996,0.0000917
 6,0.00000819,-0.00053996,-0.00009176,0.04669116,0.,0.00240899,0.001159
 29,0.,-0.28255779,-0.08743711,0.,0.00172461,0.00066496,0.00030907,0.00
 049838,-0.00052481,-0.00030907,0.00049838,-0.00052481,0.,0.30431542,0.
 ,-0.03313220,-0.01258721,0.,-0.08588129,-0.07897504,0.,0.00066496,-0.0
 0706573,0.00050038,0.00018293,0.00140467,-0.00050038,0.00018293,0.0014
 0467,0.,0.09584792,0.08867303,0.00169108,-0.00123914,0.00100649,-0.224
 06603,0.10129616,-0.07572714,0.00000819,-0.00030907,-0.00050038,0.0007
 4347,-0.00011544,-0.00040861,0.00151558,-0.00036205,0.00057587,0.00074
 184,-0.00091150,0.00109397,0.23990935,-0.00124047,0.00025380,-0.000584
 48,0.10129993,-0.10710582,0.04372112,-0.00053996,0.00049838,0.00018293
 ,0.00011544,-0.00023690,0.00034187,-0.00036205,0.00109752,-0.00033248,
 0.02547449,-0.01343962,0.01107161,-0.11155458,0.11109723,-0.02869563,0
 .01656569,-0.01258710,-0.07437523,0.04293877,-0.07897201,-0.00009176,-
 0.00052481,0.00140467,0.00040861,0.00034187,0.00140467,0.00057587,-0.0
 0033248,-0.00706573,0.01013528,-0.00458840,0.00357281,0.08300674,-0.04
 792396,0.08867303,0.00169108,0.00123914,-0.00100649,-0.22406603,-0.101
 29615,0.07572714,0.00000819,0.00030907,0.00050038,0.00151558,0.0003620
 5,-0.00057587,0.00074347,0.00011544,0.00040861,0.00074183,0.00091150,-
 0.00109397,-0.02053034,-0.01319300,0.00904131,0.23990936,0.00124047,0.
 00025380,-0.00058448,-0.10129993,-0.10710582,0.04372111,0.00053996,0.0
 0049838,0.00018293,0.00036205,0.00109752,-0.00033248,-0.00011544,-0.00
 023690,0.00034187,-0.02547449,-0.01343962,0.01107161,0.01319300,0.0078
 3256,-0.00648322,0.11155457,0.11109722,0.02869563,0.01656569,-0.012587
 10,0.07437523,0.04293877,-0.07897201,0.00009176,-0.00052481,0.00140467
 ,-0.00057587,-0.00033248,-0.00706573,-0.00040861,0.00034187,0.00140467
 ,-0.01013528,-0.00458840,0.00357281,-0.00904131,-0.00648321,0.00357281
 ,-0.08300674,-0.04792396,0.08867303\\0.,0.,0.00001100,0.,0.,-0.0000110
 0,0.,-0.00000027,-0.00000142,0.00000024,0.00000014,-0.00000142,-0.0000
 0024,0.00000014,-0.00000142,0.,0.00000027,0.00000142,0.00000024,-0.000
 00014,0.00000142,-0.00000024,-0.00000014,0.00000142\\\@


 MOM AND DAD WENT TO ALPHA CENTAURI AND ALL
 I GOT WAS THIS DUMB T-SHIRT.
 Job cpu time:       0 days  0 hours  8 minutes 13.7 seconds.
 File lengths (MBytes):  RWF=      7 Int=      0 D2E=      0 Chk=      2 Scr=      1
 Normal termination of Gaussian 09 at Fri Jul  9 19:22:06 2021.
