 Entering Gaussian System, Link 0=g09
 Initial command:
 /home/minenky/programs//g09/l1.exe "/local/scratch/minenky/m1_00_83-32-9-C12H10_wB97XD/Gau-223707.inp" -scrdir="/local/scratch/minenky/m1_00_83-32-9-C12H10_wB97XD/"
 Entering Link 1 = /home/minenky/programs//g09/l1.exe PID=    223712.
  
 Copyright (c) 1988,1990,1992,1993,1995,1998,2003,2009,2013,
            Gaussian, Inc.  All Rights Reserved.
  
 This is part of the Gaussian(R) 09 program.  It is based on
 the Gaussian(R) 03 system (copyright 2003, Gaussian, Inc.),
 the Gaussian(R) 98 system (copyright 1998, Gaussian, Inc.),
 the Gaussian(R) 94 system (copyright 1995, Gaussian, Inc.),
 the Gaussian 92(TM) system (copyright 1992, Gaussian, Inc.),
 the Gaussian 90(TM) system (copyright 1990, Gaussian, Inc.),
 the Gaussian 88(TM) system (copyright 1988, Gaussian, Inc.),
 the Gaussian 86(TM) system (copyright 1986, Carnegie Mellon
 University), and the Gaussian 82(TM) system (copyright 1983,
 Carnegie Mellon University). Gaussian is a federally registered
 trademark of Gaussian, Inc.
  
 This software contains proprietary and confidential information,
 including trade secrets, belonging to Gaussian, Inc.
  
 This software is provided under written license and may be
 used, copied, transmitted, or stored only in accord with that
 written license.
  
 The following legend is applicable only to US Government
 contracts under FAR:
  
                    RESTRICTED RIGHTS LEGEND
  
 Use, reproduction and disclosure by the US Government is
 subject to restrictions as set forth in subparagraphs (a)
 and (c) of the Commercial Computer Software - Restricted
 Rights clause in FAR 52.227-19.
  
 Gaussian, Inc.
 340 Quinnipiac St., Bldg. 40, Wallingford CT 06492
  
  
 ---------------------------------------------------------------
 Warning -- This program may not be used in any manner that
 competes with the business of Gaussian, Inc. or will provide
 assistance to any competitor of Gaussian, Inc.  The licensee
 of this program is prohibited from giving any competitor of
 Gaussian, Inc. access to this program.  By using this program,
 the user acknowledges that Gaussian, Inc. is engaged in the
 business of creating and licensing software in the field of
 computational chemistry and represents and warrants to the
 licensee that it is not a competitor of Gaussian, Inc. and that
 it will not use this program in any manner prohibited above.
 ---------------------------------------------------------------
  

 Cite this work as:
 Gaussian 09, Revision D.01,
 M. J. Frisch, G. W. Trucks, H. B. Schlegel, G. E. Scuseria, 
 M. A. Robb, J. R. Cheeseman, G. Scalmani, V. Barone, B. Mennucci, 
 G. A. Petersson, H. Nakatsuji, M. Caricato, X. Li, H. P. Hratchian, 
 A. F. Izmaylov, J. Bloino, G. Zheng, J. L. Sonnenberg, M. Hada, 
 M. Ehara, K. Toyota, R. Fukuda, J. Hasegawa, M. Ishida, T. Nakajima, 
 Y. Honda, O. Kitao, H. Nakai, T. Vreven, J. A. Montgomery, Jr., 
 J. E. Peralta, F. Ogliaro, M. Bearpark, J. J. Heyd, E. Brothers, 
 K. N. Kudin, V. N. Staroverov, T. Keith, R. Kobayashi, J. Normand, 
 K. Raghavachari, A. Rendell, J. C. Burant, S. S. Iyengar, J. Tomasi, 
 M. Cossi, N. Rega, J. M. Millam, M. Klene, J. E. Knox, J. B. Cross, 
 V. Bakken, C. Adamo, J. Jaramillo, R. Gomperts, R. E. Stratmann, 
 O. Yazyev, A. J. Austin, R. Cammi, C. Pomelli, J. W. Ochterski, 
 R. L. Martin, K. Morokuma, V. G. Zakrzewski, G. A. Voth, 
 P. Salvador, J. J. Dannenberg, S. Dapprich, A. D. Daniels, 
 O. Farkas, J. B. Foresman, J. V. Ortiz, J. Cioslowski, 
 and D. J. Fox, Gaussian, Inc., Wallingford CT, 2013.
 
 ******************************************
 Gaussian 09:  AM64L-G09RevD.01 24-Apr-2013
                 9-Jul-2021 
 ******************************************
 %Mem=32000MB
 %NProcShared=16
 Will use up to   16 processors via shared memory.
 %Chk=m1_00_83-32-9-C12H10_wB97XD
 ----------------------------------------------------------------------
 #P wB97XD/def2tzvp opt=(tight) freq integral(Grid=ultrafine) # SCF(Max
 Cycle=380) 5d 7f GFPrint
 ----------------------------------------------------------------------
 1/7=10,14=-1,18=20,19=15,26=4,38=1/1,3;
 2/9=110,12=2,17=6,18=5,40=1/2;
 3/5=44,7=101,8=11,11=2,16=1,24=100,25=1,30=1,71=1,74=-58,75=-5/1,2,3;
 4//1;
 5/5=2,7=380,38=5/2;
 6/7=2,8=2,9=2,10=2,28=1/1;
 7//1,2,3,16;
 1/7=10,14=-1,18=20,19=15,26=4/3(2);
 2/9=110/2;
 99//99;
 2/9=110/2;
 3/5=44,7=101,8=11,11=2,16=1,25=1,30=1,71=1,74=-58,75=-5/1,2,3;
 4/5=5,16=3,69=1/1;
 5/5=2,7=380,38=5/2;
 7//1,2,3,16;
 1/7=10,14=-1,18=20,19=15,26=4/3(-5);
 2/9=110/2;
 6/7=2,8=2,9=2,10=2,19=2,28=1/1;
 99/9=1/99;
 Leave Link    1 at Fri Jul  9 19:19:35 2021, MaxMem=  4194304000 cpu:         1.0
 (Enter /home/minenky/programs//g09/l101.exe)
 ---------------------------------------
 The PBEPBE optimization and frequencies
 ---------------------------------------
 Symbolic Z-matrix:
 Charge =  0 Multiplicity = 1
 C                     0.        0.09105   0. 
 C                    -1.17078   0.87039   0. 
 C                     1.17078   0.87039  0. 
 C                     0.       -1.31717   0. 
 C                    -0.78194   2.33391   0.00001 
 C                    -2.38639   0.23649  0. 
 C                     0.78194   2.33391  -0.00001 
 C                     2.38639   0.23649   0. 
 C                     1.27051  -1.94414   0. 
 C                    -1.27052  -1.94414  0. 
 C                    -2.41699  -1.18148  0. 
 C                     2.41699  -1.18148   0. 
 H                    -1.18072   2.8498   -0.87572 
 H                    -1.18068   2.84977   0.87579 
 H                    -3.31661   0.79119  0. 
 H                     1.18072   2.8498    0.87572 
 H                     1.18068   2.84977  -0.87579 
 H                     3.31661   0.7912    0. 
 H                     1.33644  -3.02521   0. 
 H                    -1.33644  -3.02521  0. 
 H                    -3.37932  -1.67818  -0.00001 
 H                     3.37932  -1.67818   0.00001 
 
 NAtoms=     22 NQM=       22 NQMF=       0 NMMI=      0 NMMIF=      0
                NMic=       0 NMicF=      0.
                    Isotopes and Nuclear Properties:
 (Nuclear quadrupole moments (NQMom) in fm**2, nuclear magnetic moments (NMagM)
  in nuclear magnetons)

  Atom         1           2           3           4           5           6           7           8           9          10
 IAtWgt=          12          12          12          12          12          12          12          12          12          12
 AtmWgt=  12.0000000  12.0000000  12.0000000  12.0000000  12.0000000  12.0000000  12.0000000  12.0000000  12.0000000  12.0000000
 NucSpn=           0           0           0           0           0           0           0           0           0           0
 AtZEff=   0.0000000   0.0000000   0.0000000   0.0000000   0.0000000   0.0000000   0.0000000   0.0000000   0.0000000   0.0000000
 NQMom=    0.0000000   0.0000000   0.0000000   0.0000000   0.0000000   0.0000000   0.0000000   0.0000000   0.0000000   0.0000000
 NMagM=    0.0000000   0.0000000   0.0000000   0.0000000   0.0000000   0.0000000   0.0000000   0.0000000   0.0000000   0.0000000
 AtZNuc=   6.0000000   6.0000000   6.0000000   6.0000000   6.0000000   6.0000000   6.0000000   6.0000000   6.0000000   6.0000000

  Atom        11          12          13          14          15          16          17          18          19          20
 IAtWgt=          12          12           1           1           1           1           1           1           1           1
 AtmWgt=  12.0000000  12.0000000   1.0078250   1.0078250   1.0078250   1.0078250   1.0078250   1.0078250   1.0078250   1.0078250
 NucSpn=           0           0           1           1           1           1           1           1           1           1
 AtZEff=   0.0000000   0.0000000   0.0000000   0.0000000   0.0000000   0.0000000   0.0000000   0.0000000   0.0000000   0.0000000
 NQMom=    0.0000000   0.0000000   0.0000000   0.0000000   0.0000000   0.0000000   0.0000000   0.0000000   0.0000000   0.0000000
 NMagM=    0.0000000   0.0000000   2.7928460   2.7928460   2.7928460   2.7928460   2.7928460   2.7928460   2.7928460   2.7928460
 AtZNuc=   6.0000000   6.0000000   1.0000000   1.0000000   1.0000000   1.0000000   1.0000000   1.0000000   1.0000000   1.0000000

  Atom        21          22
 IAtWgt=           1           1
 AtmWgt=   1.0078250   1.0078250
 NucSpn=           1           1
 AtZEff=   0.0000000   0.0000000
 NQMom=    0.0000000   0.0000000
 NMagM=    2.7928460   2.7928460
 AtZNuc=   1.0000000   1.0000000
 Leave Link  101 at Fri Jul  9 19:19:36 2021, MaxMem=  4194304000 cpu:         3.8
 (Enter /home/minenky/programs//g09/l103.exe)

 GradGradGradGradGradGradGradGradGradGradGradGradGradGradGradGradGradGrad
 Berny optimization.
 Initialization pass.
                           ----------------------------
                           !    Initial Parameters    !
                           ! (Angstroms and Degrees)  !
 --------------------------                            --------------------------
 ! Name  Definition              Value          Derivative Info.                !
 --------------------------------------------------------------------------------
 ! R1    R(1,2)                  1.4065         estimate D2E/DX2                !
 ! R2    R(1,3)                  1.4065         estimate D2E/DX2                !
 ! R3    R(1,4)                  1.4082         estimate D2E/DX2                !
 ! R4    R(2,5)                  1.5143         estimate D2E/DX2                !
 ! R5    R(2,6)                  1.371          estimate D2E/DX2                !
 ! R6    R(3,7)                  1.5143         estimate D2E/DX2                !
 ! R7    R(3,8)                  1.371          estimate D2E/DX2                !
 ! R8    R(4,9)                  1.4168         estimate D2E/DX2                !
 ! R9    R(4,10)                 1.4168         estimate D2E/DX2                !
 ! R10   R(5,7)                  1.5639         estimate D2E/DX2                !
 ! R11   R(5,13)                 1.0918         estimate D2E/DX2                !
 ! R12   R(5,14)                 1.0918         estimate D2E/DX2                !
 ! R13   R(6,11)                 1.4183         estimate D2E/DX2                !
 ! R14   R(6,15)                 1.0831         estimate D2E/DX2                !
 ! R15   R(7,16)                 1.0918         estimate D2E/DX2                !
 ! R16   R(7,17)                 1.0918         estimate D2E/DX2                !
 ! R17   R(8,12)                 1.4183         estimate D2E/DX2                !
 ! R18   R(8,18)                 1.0831         estimate D2E/DX2                !
 ! R19   R(9,12)                 1.377          estimate D2E/DX2                !
 ! R20   R(9,19)                 1.0831         estimate D2E/DX2                !
 ! R21   R(10,11)                1.377          estimate D2E/DX2                !
 ! R22   R(10,20)                1.0831         estimate D2E/DX2                !
 ! R23   R(11,21)                1.083          estimate D2E/DX2                !
 ! R24   R(12,22)                1.083          estimate D2E/DX2                !
 ! A1    A(2,1,3)              112.6996         estimate D2E/DX2                !
 ! A2    A(2,1,4)              123.6502         estimate D2E/DX2                !
 ! A3    A(3,1,4)              123.6502         estimate D2E/DX2                !
 ! A4    A(1,2,5)              108.771          estimate D2E/DX2                !
 ! A5    A(1,2,6)              118.8091         estimate D2E/DX2                !
 ! A6    A(5,2,6)              132.4199         estimate D2E/DX2                !
 ! A7    A(1,3,7)              108.771          estimate D2E/DX2                !
 ! A8    A(1,3,8)              118.8091         estimate D2E/DX2                !
 ! A9    A(7,3,8)              132.42           estimate D2E/DX2                !
 ! A10   A(1,4,9)              116.2654         estimate D2E/DX2                !
 ! A11   A(1,4,10)             116.2654         estimate D2E/DX2                !
 ! A12   A(9,4,10)             127.4692         estimate D2E/DX2                !
 ! A13   A(2,5,7)              104.8792         estimate D2E/DX2                !
 ! A14   A(2,5,13)             111.2759         estimate D2E/DX2                !
 ! A15   A(2,5,14)             111.2754         estimate D2E/DX2                !
 ! A16   A(7,5,13)             111.4219         estimate D2E/DX2                !
 ! A17   A(7,5,14)             111.4215         estimate D2E/DX2                !
 ! A18   A(13,5,14)            106.6626         estimate D2E/DX2                !
 ! A19   A(2,6,11)             118.777          estimate D2E/DX2                !
 ! A20   A(2,6,15)             121.6511         estimate D2E/DX2                !
 ! A21   A(11,6,15)            119.5719         estimate D2E/DX2                !
 ! A22   A(3,7,5)              104.8792         estimate D2E/DX2                !
 ! A23   A(3,7,16)             111.2759         estimate D2E/DX2                !
 ! A24   A(3,7,17)             111.2754         estimate D2E/DX2                !
 ! A25   A(5,7,16)             111.4219         estimate D2E/DX2                !
 ! A26   A(5,7,17)             111.4216         estimate D2E/DX2                !
 ! A27   A(16,7,17)            106.6626         estimate D2E/DX2                !
 ! A28   A(3,8,12)             118.777          estimate D2E/DX2                !
 ! A29   A(3,8,18)             121.6509         estimate D2E/DX2                !
 ! A30   A(12,8,18)            119.572          estimate D2E/DX2                !
 ! A31   A(4,9,12)             120.1018         estimate D2E/DX2                !
 ! A32   A(4,9,19)             119.755          estimate D2E/DX2                !
 ! A33   A(12,9,19)            120.1432         estimate D2E/DX2                !
 ! A34   A(4,10,11)            120.1018         estimate D2E/DX2                !
 ! A35   A(4,10,20)            119.7549         estimate D2E/DX2                !
 ! A36   A(11,10,20)           120.1433         estimate D2E/DX2                !
 ! A37   A(6,11,10)            122.3965         estimate D2E/DX2                !
 ! A38   A(6,11,21)            118.5365         estimate D2E/DX2                !
 ! A39   A(10,11,21)           119.067          estimate D2E/DX2                !
 ! A40   A(8,12,9)             122.3965         estimate D2E/DX2                !
 ! A41   A(8,12,22)            118.5365         estimate D2E/DX2                !
 ! A42   A(9,12,22)            119.067          estimate D2E/DX2                !
 ! D1    D(3,1,2,5)             -0.0005         estimate D2E/DX2                !
 ! D2    D(3,1,2,6)            179.9999         estimate D2E/DX2                !
 ! D3    D(4,1,2,5)            179.9995         estimate D2E/DX2                !
 ! D4    D(4,1,2,6)             -0.0001         estimate D2E/DX2                !
 ! D5    D(2,1,3,7)             -0.0005         estimate D2E/DX2                !
 ! D6    D(2,1,3,8)            179.9999         estimate D2E/DX2                !
 ! D7    D(4,1,3,7)            179.9995         estimate D2E/DX2                !
 ! D8    D(4,1,3,8)             -0.0001         estimate D2E/DX2                !
 ! D9    D(2,1,4,9)           -179.9999         estimate D2E/DX2                !
 ! D10   D(2,1,4,10)             0.0001         estimate D2E/DX2                !
 ! D11   D(3,1,4,9)              0.0001         estimate D2E/DX2                !
 ! D12   D(3,1,4,10)          -179.9999         estimate D2E/DX2                !
 ! D13   D(1,2,5,7)              0.0012         estimate D2E/DX2                !
 ! D14   D(1,2,5,13)           120.5988         estimate D2E/DX2                !
 ! D15   D(1,2,5,14)          -120.5956         estimate D2E/DX2                !
 ! D16   D(6,2,5,7)           -179.9992         estimate D2E/DX2                !
 ! D17   D(6,2,5,13)           -59.4016         estimate D2E/DX2                !
 ! D18   D(6,2,5,14)            59.404          estimate D2E/DX2                !
 ! D19   D(1,2,6,11)             0.0            estimate D2E/DX2                !
 ! D20   D(1,2,6,15)          -180.0            estimate D2E/DX2                !
 ! D21   D(5,2,6,11)          -179.9996         estimate D2E/DX2                !
 ! D22   D(5,2,6,15)             0.0005         estimate D2E/DX2                !
 ! D23   D(1,3,7,5)              0.0012         estimate D2E/DX2                !
 ! D24   D(1,3,7,16)           120.5988         estimate D2E/DX2                !
 ! D25   D(1,3,7,17)          -120.5956         estimate D2E/DX2                !
 ! D26   D(8,3,7,5)           -179.9992         estimate D2E/DX2                !
 ! D27   D(8,3,7,16)           -59.4017         estimate D2E/DX2                !
 ! D28   D(8,3,7,17)            59.404          estimate D2E/DX2                !
 ! D29   D(1,3,8,12)             0.0            estimate D2E/DX2                !
 ! D30   D(1,3,8,18)           180.0            estimate D2E/DX2                !
 ! D31   D(7,3,8,12)          -179.9996         estimate D2E/DX2                !
 ! D32   D(7,3,8,18)             0.0004         estimate D2E/DX2                !
 ! D33   D(1,4,9,12)             0.0            estimate D2E/DX2                !
 ! D34   D(1,4,9,19)           179.9999         estimate D2E/DX2                !
 ! D35   D(10,4,9,12)         -180.0            estimate D2E/DX2                !
 ! D36   D(10,4,9,19)           -0.0001         estimate D2E/DX2                !
 ! D37   D(1,4,10,11)            0.0            estimate D2E/DX2                !
 ! D38   D(1,4,10,20)          179.9999         estimate D2E/DX2                !
 ! D39   D(9,4,10,11)         -180.0            estimate D2E/DX2                !
 ! D40   D(9,4,10,20)           -0.0001         estimate D2E/DX2                !
 ! D41   D(2,5,7,3)             -0.0014         estimate D2E/DX2                !
 ! D42   D(2,5,7,16)          -120.5023         estimate D2E/DX2                !
 ! D43   D(2,5,7,17)           120.4986         estimate D2E/DX2                !
 ! D44   D(13,5,7,3)          -120.5023         estimate D2E/DX2                !
 ! D45   D(13,5,7,16)          118.9969         estimate D2E/DX2                !
 ! D46   D(13,5,7,17)           -0.0023         estimate D2E/DX2                !
 ! D47   D(14,5,7,3)           120.4986         estimate D2E/DX2                !
 ! D48   D(14,5,7,16)           -0.0022         estimate D2E/DX2                !
 ! D49   D(14,5,7,17)         -119.0014         estimate D2E/DX2                !
 ! D50   D(2,6,11,10)            0.0001         estimate D2E/DX2                !
 ! D51   D(2,6,11,21)         -179.9999         estimate D2E/DX2                !
 ! D52   D(15,6,11,10)        -179.9999         estimate D2E/DX2                !
 ! D53   D(15,6,11,21)           0.0            estimate D2E/DX2                !
 ! D54   D(3,8,12,9)             0.0001         estimate D2E/DX2                !
 ! D55   D(3,8,12,22)         -180.0            estimate D2E/DX2                !
 ! D56   D(18,8,12,9)         -179.9998         estimate D2E/DX2                !
 ! D57   D(18,8,12,22)           0.0            estimate D2E/DX2                !
 ! D58   D(4,9,12,8)            -0.0002         estimate D2E/DX2                !
 ! D59   D(4,9,12,22)          180.0            estimate D2E/DX2                !
 ! D60   D(19,9,12,8)          179.9999         estimate D2E/DX2                !
 ! D61   D(19,9,12,22)           0.0            estimate D2E/DX2                !
 ! D62   D(4,10,11,6)           -0.0002         estimate D2E/DX2                !
 ! D63   D(4,10,11,21)         179.9999         estimate D2E/DX2                !
 ! D64   D(20,10,11,6)         179.9999         estimate D2E/DX2                !
 ! D65   D(20,10,11,21)          0.0            estimate D2E/DX2                !
 --------------------------------------------------------------------------------
 Trust Radius=3.00D-01 FncErr=1.00D-07 GrdErr=1.00D-06
 Number of steps in this run=    132 maximum allowed number of steps=    132.
 GradGradGradGradGradGradGradGradGradGradGradGradGradGradGradGradGradGrad

 Leave Link  103 at Fri Jul  9 19:19:36 2021, MaxMem=  4194304000 cpu:         0.1
 (Enter /home/minenky/programs//g09/l202.exe)
                          Input orientation:                          
 ---------------------------------------------------------------------
 Center     Atomic      Atomic             Coordinates (Angstroms)
 Number     Number       Type             X           Y           Z
 ---------------------------------------------------------------------
      1          6           0        0.000000    0.091046    0.000000
      2          6           0       -1.170780    0.870390    0.000001
      3          6           0        1.170780    0.870390   -0.000001
      4          6           0        0.000000   -1.317169    0.000000
      5          6           0       -0.781935    2.333914    0.000013
      6          6           0       -2.386385    0.236488   -0.000001
      7          6           0        0.781935    2.333914   -0.000013
      8          6           0        2.386385    0.236487    0.000001
      9          6           0        1.270514   -1.944142    0.000002
     10          6           0       -1.270515   -1.944142   -0.000002
     11          6           0       -2.416986   -1.181482   -0.000004
     12          6           0        2.416986   -1.181482    0.000004
     13          1           0       -1.180719    2.849798   -0.875722
     14          1           0       -1.180683    2.849765    0.875785
     15          1           0       -3.316609    0.791194   -0.000001
     16          1           0        1.180719    2.849797    0.875722
     17          1           0        1.180684    2.849765   -0.875785
     18          1           0        3.316609    0.791195    0.000000
     19          1           0        1.336437   -3.025208    0.000003
     20          1           0       -1.336437   -3.025208   -0.000003
     21          1           0       -3.379316   -1.678182   -0.000007
     22          1           0        3.379316   -1.678182    0.000006
 ---------------------------------------------------------------------
                    Distance matrix (angstroms):
                    1          2          3          4          5
     1  C    0.000000
     2  C    1.406450   0.000000
     3  C    1.406450   2.341560   0.000000
     4  C    1.408215   2.481157   2.481157   0.000000
     5  C    2.375264   1.514299   2.440287   3.733876   0.000000
     6  C    2.390813   1.370959   3.613206   2.847575   2.640730
     7  C    2.375264   2.440287   1.514299   3.733876   1.563870
     8  C    2.390813   3.613206   1.370959   2.847574   3.799665
     9  C    2.399207   3.725789   2.816299   1.416792   4.744925
    10  C    2.399208   2.816299   3.725790   1.416793   4.305865
    11  C    2.731510   2.400668   4.133067   2.420792   3.877035
    12  C    2.731510   4.133067   2.400668   2.420792   4.753010
    13  H    3.125972   2.164497   3.196012   4.418665   1.091823
    14  H    3.125947   2.164491   3.195983   4.418637   1.091824
    15  H    3.389705   2.147290   4.488088   3.930024   2.967247
    16  H    3.125971   3.196011   2.164496   4.418664   2.210206
    17  H    3.125947   3.195983   2.164491   4.418637   2.210203
    18  H    3.389706   4.488088   2.147290   3.930025   4.379274
    19  H    3.390738   4.632690   3.899119   2.168746   5.762611
    20  H    3.390738   3.899119   4.632690   2.168746   5.387732
    21  H    3.814439   3.372366   5.215227   3.398545   4.779467
    22  H    3.814439   5.215227   3.372366   3.398545   5.780391
                    6          7          8          9         10
     6  C    0.000000
     7  C    3.799664   0.000000
     8  C    4.772770   2.640731   0.000000
     9  C    4.257706   4.305865   2.449553   0.000000
    10  C    2.449554   4.744925   4.257706   2.541029   0.000000
    11  C    1.418300   4.753010   5.008294   3.765542   1.376970
    12  C    5.008294   3.877035   1.418299   1.376971   3.765543
    13  H    3.008306   2.210207   4.507828   5.455025   4.874096
    14  H    3.008311   2.210202   4.507793   5.454989   4.874076
    15  H    1.083058   4.379275   5.729908   5.340764   3.415928
    16  H    4.507827   1.091822   3.008306   4.874095   5.455024
    17  H    4.507793   1.091824   3.008311   4.874076   5.454990
    18  H    5.729908   2.967247   1.083059   3.415929   5.340765
    19  H    4.949552   5.387732   3.426521   1.083074   2.822216
    20  H    3.426522   5.762611   4.949551   2.822215   1.083074
    21  H    2.156820   5.780391   6.075300   4.657430   2.125506
    22  H    6.075300   4.779467   2.156819   2.125507   4.657431
                   11         12         13         14         15
    11  C    0.000000
    12  C    4.833972   0.000000
    13  H    4.306560   5.473719   0.000000
    14  H    4.306554   5.473679   1.751507   0.000000
    15  H    2.168126   6.063461   3.093019   3.093040   0.000000
    16  H    5.473718   4.306559   2.940059   2.361402   5.023017
    17  H    5.473680   4.306553   2.361403   2.940077   5.022983
    18  H    6.063462   2.168127   5.023016   5.022982   6.633218
    19  H    4.181807   2.137033   6.451253   6.451217   6.017953
    20  H    2.137033   4.181807   5.941955   5.941933   4.299535
    21  H    1.082954   5.817545   5.109140   5.109139   2.470172
    22  H    5.817545   1.082954   6.485632   6.485590   7.136752
                   16         17         18         19         20
    16  H    0.000000
    17  H    1.751507   0.000000
    18  H    3.093018   3.093038   0.000000
    19  H    5.941954   5.941933   4.299536   0.000000
    20  H    6.451252   6.451217   6.017954   2.672874   0.000000
    21  H    6.485631   6.485591   7.136752   4.904366   2.447005
    22  H    5.109139   5.109139   2.470173   2.447005   4.904366
                   21         22
    21  H    0.000000
    22  H    6.758632   0.000000
 Stoichiometry    C12H10
 Framework group  C1[X(C12H10)]
 Deg. of freedom    60
 Full point group                 C1      NOp   1
 Largest Abelian subgroup         C1      NOp   1
 Largest concise Abelian subgroup C1      NOp   1
                         Standard orientation:                         
 ---------------------------------------------------------------------
 Center     Atomic      Atomic             Coordinates (Angstroms)
 Number     Number       Type             X           Y           Z
 ---------------------------------------------------------------------
      1          6           0        0.000000   -0.091046    0.000000
      2          6           0       -1.170780   -0.870390   -0.000001
      3          6           0        1.170780   -0.870390    0.000001
      4          6           0        0.000000    1.317169    0.000000
      5          6           0       -0.781935   -2.333914   -0.000013
      6          6           0       -2.386385   -0.236488    0.000001
      7          6           0        0.781935   -2.333914    0.000013
      8          6           0        2.386385   -0.236487   -0.000001
      9          6           0        1.270514    1.944142   -0.000002
     10          6           0       -1.270515    1.944142    0.000002
     11          6           0       -2.416986    1.181482    0.000004
     12          6           0        2.416986    1.181482   -0.000004
     13          1           0       -1.180719   -2.849798    0.875722
     14          1           0       -1.180683   -2.849765   -0.875785
     15          1           0       -3.316609   -0.791194    0.000001
     16          1           0        1.180719   -2.849797   -0.875722
     17          1           0        1.180684   -2.849765    0.875785
     18          1           0        3.316609   -0.791195    0.000000
     19          1           0        1.336437    3.025208   -0.000003
     20          1           0       -1.336437    3.025208    0.000003
     21          1           0       -3.379316    1.678182    0.000007
     22          1           0        3.379316    1.678182   -0.000006
 ---------------------------------------------------------------------
 Rotational constants (GHZ):      1.4175199      1.2012979      0.6554562
 Leave Link  202 at Fri Jul  9 19:19:37 2021, MaxMem=  4194304000 cpu:         1.8
 (Enter /home/minenky/programs//g09/l301.exe)
 Standard basis: def2TZVP (5D, 7F)
 ======================================================================================================
                                       Pseudopotential Parameters
 ======================================================================================================
  Center     Atomic      Valence      Angular      Power
  Number     Number     Electrons     Momentum     of R      Exponent        Coefficient   SO-Coeffient
 ======================================================================================================
    1          6
                                   No pseudopotential on this center.
    2          6
                                   No pseudopotential on this center.
    3          6
                                   No pseudopotential on this center.
    4          6
                                   No pseudopotential on this center.
    5          6
                                   No pseudopotential on this center.
    6          6
                                   No pseudopotential on this center.
    7          6
                                   No pseudopotential on this center.
    8          6
                                   No pseudopotential on this center.
    9          6
                                   No pseudopotential on this center.
   10          6
                                   No pseudopotential on this center.
   11          6
                                   No pseudopotential on this center.
   12          6
                                   No pseudopotential on this center.
   13          1
                                   No pseudopotential on this center.
   14          1
                                   No pseudopotential on this center.
   15          1
                                   No pseudopotential on this center.
   16          1
                                   No pseudopotential on this center.
   17          1
                                   No pseudopotential on this center.
   18          1
                                   No pseudopotential on this center.
   19          1
                                   No pseudopotential on this center.
   20          1
                                   No pseudopotential on this center.
   21          1
                                   No pseudopotential on this center.
   22          1
                                   No pseudopotential on this center.
 ======================================================================================================
 Ernie: Thresh=  0.10000D-02 Tol=  0.10000D-05 Strict=F.
 AO basis set (Overlap normalization):
 Atom C1       Shell     1 S   6     bf    1 -     1          0.000000128507         -0.172051867222         -0.000000046091
      0.1357534968D+05  0.6064550360D-03
      0.2035233368D+04  0.4697908888D-02
      0.4632256236D+03  0.2433247765D-01
      0.1312001960D+03  0.9739996831D-01
      0.4285301589D+02  0.3019558425D+00
      0.1558418577D+02  0.6623360914D+00
 Atom C1       Shell     2 S   2     bf    2 -     2          0.000000128507         -0.172051867222         -0.000000046091
      0.6206713851D+01  0.6559530854D+00
      0.2576489653D+01  0.3758563329D+00
 Atom C1       Shell     3 S   1     bf    3 -     3          0.000000128507         -0.172051867222         -0.000000046091
      0.5769633942D+00  0.1000000000D+01
 Atom C1       Shell     4 S   1     bf    4 -     4          0.000000128507         -0.172051867222         -0.000000046091
      0.2297283136D+00  0.1000000000D+01
 Atom C1       Shell     5 S   1     bf    5 -     5          0.000000128507         -0.172051867222         -0.000000046091
      0.9516444003D-01  0.1000000000D+01
 Atom C1       Shell     6 P   4     bf    6 -     8          0.000000128507         -0.172051867222         -0.000000046091
      0.3469723224D+02  0.1132722000D-01
      0.7958262283D+01  0.7616965920D-01
      0.2378082688D+01  0.3019225220D+00
      0.8143320818D+00  0.7278502735D+00
 Atom C1       Shell     7 P   1     bf    9 -    11          0.000000128507         -0.172051867222         -0.000000046091
      0.2888754725D+00  0.1000000000D+01
 Atom C1       Shell     8 P   1     bf   12 -    14          0.000000128507         -0.172051867222         -0.000000046091
      0.1005682367D+00  0.1000000000D+01
 Atom C1       Shell     9 D   1     bf   15 -    19          0.000000128507         -0.172051867222         -0.000000046091
      0.1097000000D+01  0.1000000000D+01
 Atom C1       Shell    10 D   1     bf   20 -    24          0.000000128507         -0.172051867222         -0.000000046091
      0.3180000000D+00  0.1000000000D+01
 Atom C1       Shell    11 F   1     bf   25 -    31          0.000000128507         -0.172051867222         -0.000000046091
      0.7610000000D+00  0.1000000000D+01
 Atom C2       Shell    12 S   6     bf   32 -    32         -2.212453319681         -1.644798761295         -0.000001935817
      0.1357534968D+05  0.6064550360D-03
      0.2035233368D+04  0.4697908888D-02
      0.4632256236D+03  0.2433247765D-01
      0.1312001960D+03  0.9739996831D-01
      0.4285301589D+02  0.3019558425D+00
      0.1558418577D+02  0.6623360914D+00
 Atom C2       Shell    13 S   2     bf   33 -    33         -2.212453319681         -1.644798761295         -0.000001935817
      0.6206713851D+01  0.6559530854D+00
      0.2576489653D+01  0.3758563329D+00
 Atom C2       Shell    14 S   1     bf   34 -    34         -2.212453319681         -1.644798761295         -0.000001935817
      0.5769633942D+00  0.1000000000D+01
 Atom C2       Shell    15 S   1     bf   35 -    35         -2.212453319681         -1.644798761295         -0.000001935817
      0.2297283136D+00  0.1000000000D+01
 Atom C2       Shell    16 S   1     bf   36 -    36         -2.212453319681         -1.644798761295         -0.000001935817
      0.9516444003D-01  0.1000000000D+01
 Atom C2       Shell    17 P   4     bf   37 -    39         -2.212453319681         -1.644798761295         -0.000001935817
      0.3469723224D+02  0.1132722000D-01
      0.7958262283D+01  0.7616965920D-01
      0.2378082688D+01  0.3019225220D+00
      0.8143320818D+00  0.7278502735D+00
 Atom C2       Shell    18 P   1     bf   40 -    42         -2.212453319681         -1.644798761295         -0.000001935817
      0.2888754725D+00  0.1000000000D+01
 Atom C2       Shell    19 P   1     bf   43 -    45         -2.212453319681         -1.644798761295         -0.000001935817
      0.1005682367D+00  0.1000000000D+01
 Atom C2       Shell    20 D   1     bf   46 -    50         -2.212453319681         -1.644798761295         -0.000001935817
      0.1097000000D+01  0.1000000000D+01
 Atom C2       Shell    21 D   1     bf   51 -    55         -2.212453319681         -1.644798761295         -0.000001935817
      0.3180000000D+00  0.1000000000D+01
 Atom C2       Shell    22 F   1     bf   56 -    62         -2.212453319681         -1.644798761295         -0.000001935817
      0.7610000000D+00  0.1000000000D+01
 Atom C3       Shell    23 S   6     bf   63 -    63          2.212453804039         -1.644798419764          0.000001843635
      0.1357534968D+05  0.6064550360D-03
      0.2035233368D+04  0.4697908888D-02
      0.4632256236D+03  0.2433247765D-01
      0.1312001960D+03  0.9739996831D-01
      0.4285301589D+02  0.3019558425D+00
      0.1558418577D+02  0.6623360914D+00
 Atom C3       Shell    24 S   2     bf   64 -    64          2.212453804039         -1.644798419764          0.000001843635
      0.6206713851D+01  0.6559530854D+00
      0.2576489653D+01  0.3758563329D+00
 Atom C3       Shell    25 S   1     bf   65 -    65          2.212453804039         -1.644798419764          0.000001843635
      0.5769633942D+00  0.1000000000D+01
 Atom C3       Shell    26 S   1     bf   66 -    66          2.212453804039         -1.644798419764          0.000001843635
      0.2297283136D+00  0.1000000000D+01
 Atom C3       Shell    27 S   1     bf   67 -    67          2.212453804039         -1.644798419764          0.000001843635
      0.9516444003D-01  0.1000000000D+01
 Atom C3       Shell    28 P   4     bf   68 -    70          2.212453804039         -1.644798419764          0.000001843635
      0.3469723224D+02  0.1132722000D-01
      0.7958262283D+01  0.7616965920D-01
      0.2378082688D+01  0.3019225220D+00
      0.8143320818D+00  0.7278502735D+00
 Atom C3       Shell    29 P   1     bf   71 -    73          2.212453804039         -1.644798419764          0.000001843635
      0.2888754725D+00  0.1000000000D+01
 Atom C3       Shell    30 P   1     bf   74 -    76          2.212453804039         -1.644798419764          0.000001843635
      0.1005682367D+00  0.1000000000D+01
 Atom C3       Shell    31 D   1     bf   77 -    81          2.212453804039         -1.644798419764          0.000001843635
      0.1097000000D+01  0.1000000000D+01
 Atom C3       Shell    32 D   1     bf   82 -    86          2.212453804039         -1.644798419764          0.000001843635
      0.3180000000D+00  0.1000000000D+01
 Atom C3       Shell    33 F   1     bf   87 -    93          2.212453804039         -1.644798419764          0.000001843635
      0.7610000000D+00  0.1000000000D+01
 Atom C4       Shell    34 S   6     bf   94 -    94         -0.000000076890          2.489088818999         -0.000000046091
      0.1357534968D+05  0.6064550360D-03
      0.2035233368D+04  0.4697908888D-02
      0.4632256236D+03  0.2433247765D-01
      0.1312001960D+03  0.9739996831D-01
      0.4285301589D+02  0.3019558425D+00
      0.1558418577D+02  0.6623360914D+00
 Atom C4       Shell    35 S   2     bf   95 -    95         -0.000000076890          2.489088818999         -0.000000046091
      0.6206713851D+01  0.6559530854D+00
      0.2576489653D+01  0.3758563329D+00
 Atom C4       Shell    36 S   1     bf   96 -    96         -0.000000076890          2.489088818999         -0.000000046091
      0.5769633942D+00  0.1000000000D+01
 Atom C4       Shell    37 S   1     bf   97 -    97         -0.000000076890          2.489088818999         -0.000000046091
      0.2297283136D+00  0.1000000000D+01
 Atom C4       Shell    38 S   1     bf   98 -    98         -0.000000076890          2.489088818999         -0.000000046091
      0.9516444003D-01  0.1000000000D+01
 Atom C4       Shell    39 P   4     bf   99 -   101         -0.000000076890          2.489088818999         -0.000000046091
      0.3469723224D+02  0.1132722000D-01
      0.7958262283D+01  0.7616965920D-01
      0.2378082688D+01  0.3019225220D+00
      0.8143320818D+00  0.7278502735D+00
 Atom C4       Shell    40 P   1     bf  102 -   104         -0.000000076890          2.489088818999         -0.000000046091
      0.2888754725D+00  0.1000000000D+01
 Atom C4       Shell    41 P   1     bf  105 -   107         -0.000000076890          2.489088818999         -0.000000046091
      0.1005682367D+00  0.1000000000D+01
 Atom C4       Shell    42 D   1     bf  108 -   112         -0.000000076890          2.489088818999         -0.000000046091
      0.1097000000D+01  0.1000000000D+01
 Atom C4       Shell    43 D   1     bf  113 -   117         -0.000000076890          2.489088818999         -0.000000046091
      0.3180000000D+00  0.1000000000D+01
 Atom C4       Shell    44 F   1     bf  118 -   124         -0.000000076890          2.489088818999         -0.000000046091
      0.7610000000D+00  0.1000000000D+01
 Atom C5       Shell    45 S   6     bf  125 -   125         -1.477642548075         -4.410458253485         -0.000024612531
      0.1357534968D+05  0.6064550360D-03
      0.2035233368D+04  0.4697908888D-02
      0.4632256236D+03  0.2433247765D-01
      0.1312001960D+03  0.9739996831D-01
      0.4285301589D+02  0.3019558425D+00
      0.1558418577D+02  0.6623360914D+00
 Atom C5       Shell    46 S   2     bf  126 -   126         -1.477642548075         -4.410458253485         -0.000024612531
      0.6206713851D+01  0.6559530854D+00
      0.2576489653D+01  0.3758563329D+00
 Atom C5       Shell    47 S   1     bf  127 -   127         -1.477642548075         -4.410458253485         -0.000024612531
      0.5769633942D+00  0.1000000000D+01
 Atom C5       Shell    48 S   1     bf  128 -   128         -1.477642548075         -4.410458253485         -0.000024612531
      0.2297283136D+00  0.1000000000D+01
 Atom C5       Shell    49 S   1     bf  129 -   129         -1.477642548075         -4.410458253485         -0.000024612531
      0.9516444003D-01  0.1000000000D+01
 Atom C5       Shell    50 P   4     bf  130 -   132         -1.477642548075         -4.410458253485         -0.000024612531
      0.3469723224D+02  0.1132722000D-01
      0.7958262283D+01  0.7616965920D-01
      0.2378082688D+01  0.3019225220D+00
      0.8143320818D+00  0.7278502735D+00
 Atom C5       Shell    51 P   1     bf  133 -   135         -1.477642548075         -4.410458253485         -0.000024612531
      0.2888754725D+00  0.1000000000D+01
 Atom C5       Shell    52 P   1     bf  136 -   138         -1.477642548075         -4.410458253485         -0.000024612531
      0.1005682367D+00  0.1000000000D+01
 Atom C5       Shell    53 D   1     bf  139 -   143         -1.477642548075         -4.410458253485         -0.000024612531
      0.1097000000D+01  0.1000000000D+01
 Atom C5       Shell    54 D   1     bf  144 -   148         -1.477642548075         -4.410458253485         -0.000024612531
      0.3180000000D+00  0.1000000000D+01
 Atom C5       Shell    55 F   1     bf  149 -   155         -1.477642548075         -4.410458253485         -0.000024612531
      0.7610000000D+00  0.1000000000D+01
 Atom C6       Shell    56 S   6     bf  156 -   156         -4.509613947906         -0.446897763510          0.000001843635
      0.1357534968D+05  0.6064550360D-03
      0.2035233368D+04  0.4697908888D-02
      0.4632256236D+03  0.2433247765D-01
      0.1312001960D+03  0.9739996831D-01
      0.4285301589D+02  0.3019558425D+00
      0.1558418577D+02  0.6623360914D+00
 Atom C6       Shell    57 S   2     bf  157 -   157         -4.509613947906         -0.446897763510          0.000001843635
      0.6206713851D+01  0.6559530854D+00
      0.2576489653D+01  0.3758563329D+00
 Atom C6       Shell    58 S   1     bf  158 -   158         -4.509613947906         -0.446897763510          0.000001843635
      0.5769633942D+00  0.1000000000D+01
 Atom C6       Shell    59 S   1     bf  159 -   159         -4.509613947906         -0.446897763510          0.000001843635
      0.2297283136D+00  0.1000000000D+01
 Atom C6       Shell    60 S   1     bf  160 -   160         -4.509613947906         -0.446897763510          0.000001843635
      0.9516444003D-01  0.1000000000D+01
 Atom C6       Shell    61 P   4     bf  161 -   163         -4.509613947906         -0.446897763510          0.000001843635
      0.3469723224D+02  0.1132722000D-01
      0.7958262283D+01  0.7616965920D-01
      0.2378082688D+01  0.3019225220D+00
      0.8143320818D+00  0.7278502735D+00
 Atom C6       Shell    62 P   1     bf  164 -   166         -4.509613947906         -0.446897763510          0.000001843635
      0.2888754725D+00  0.1000000000D+01
 Atom C6       Shell    63 P   1     bf  167 -   169         -4.509613947906         -0.446897763510          0.000001843635
      0.1005682367D+00  0.1000000000D+01
 Atom C6       Shell    64 D   1     bf  170 -   174         -4.509613947906         -0.446897763510          0.000001843635
      0.1097000000D+01  0.1000000000D+01
 Atom C6       Shell    65 D   1     bf  175 -   179         -4.509613947906         -0.446897763510          0.000001843635
      0.3180000000D+00  0.1000000000D+01
 Atom C6       Shell    66 F   1     bf  180 -   186         -4.509613947906         -0.446897763510          0.000001843635
      0.7610000000D+00  0.1000000000D+01
 Atom C7       Shell    67 S   6     bf  187 -   187          1.477643459361         -4.410458025385          0.000024520349
      0.1357534968D+05  0.6064550360D-03
      0.2035233368D+04  0.4697908888D-02
      0.4632256236D+03  0.2433247765D-01
      0.1312001960D+03  0.9739996831D-01
      0.4285301589D+02  0.3019558425D+00
      0.1558418577D+02  0.6623360914D+00
 Atom C7       Shell    68 S   2     bf  188 -   188          1.477643459361         -4.410458025385          0.000024520349
      0.6206713851D+01  0.6559530854D+00
      0.2576489653D+01  0.3758563329D+00
 Atom C7       Shell    69 S   1     bf  189 -   189          1.477643459361         -4.410458025385          0.000024520349
      0.5769633942D+00  0.1000000000D+01
 Atom C7       Shell    70 S   1     bf  190 -   190          1.477643459361         -4.410458025385          0.000024520349
      0.2297283136D+00  0.1000000000D+01
 Atom C7       Shell    71 S   1     bf  191 -   191          1.477643459361         -4.410458025385          0.000024520349
      0.9516444003D-01  0.1000000000D+01
 Atom C7       Shell    72 P   4     bf  192 -   194          1.477643459361         -4.410458025385          0.000024520349
      0.3469723224D+02  0.1132722000D-01
      0.7958262283D+01  0.7616965920D-01
      0.2378082688D+01  0.3019225220D+00
      0.8143320818D+00  0.7278502735D+00
 Atom C7       Shell    73 P   1     bf  195 -   197          1.477643459361         -4.410458025385          0.000024520349
      0.2888754725D+00  0.1000000000D+01
 Atom C7       Shell    74 P   1     bf  198 -   200          1.477643459361         -4.410458025385          0.000024520349
      0.1005682367D+00  0.1000000000D+01
 Atom C7       Shell    75 D   1     bf  201 -   205          1.477643459361         -4.410458025385          0.000024520349
      0.1097000000D+01  0.1000000000D+01
 Atom C7       Shell    76 D   1     bf  206 -   210          1.477643459361         -4.410458025385          0.000024520349
      0.3180000000D+00  0.1000000000D+01
 Atom C7       Shell    77 F   1     bf  211 -   217          1.477643459361         -4.410458025385          0.000024520349
      0.7610000000D+00  0.1000000000D+01
 Atom C8       Shell    78 S   6     bf  218 -   218          4.509614247347         -0.446895177646         -0.000001935817
      0.1357534968D+05  0.6064550360D-03
      0.2035233368D+04  0.4697908888D-02
      0.4632256236D+03  0.2433247765D-01
      0.1312001960D+03  0.9739996831D-01
      0.4285301589D+02  0.3019558425D+00
      0.1558418577D+02  0.6623360914D+00
 Atom C8       Shell    79 S   2     bf  219 -   219          4.509614247347         -0.446895177646         -0.000001935817
      0.6206713851D+01  0.6559530854D+00
      0.2576489653D+01  0.3758563329D+00
 Atom C8       Shell    80 S   1     bf  220 -   220          4.509614247347         -0.446895177646         -0.000001935817
      0.5769633942D+00  0.1000000000D+01
 Atom C8       Shell    81 S   1     bf  221 -   221          4.509614247347         -0.446895177646         -0.000001935817
      0.2297283136D+00  0.1000000000D+01
 Atom C8       Shell    82 S   1     bf  222 -   222          4.509614247347         -0.446895177646         -0.000001935817
      0.9516444003D-01  0.1000000000D+01
 Atom C8       Shell    83 P   4     bf  223 -   225          4.509614247347         -0.446895177646         -0.000001935817
      0.3469723224D+02  0.1132722000D-01
      0.7958262283D+01  0.7616965920D-01
      0.2378082688D+01  0.3019225220D+00
      0.8143320818D+00  0.7278502735D+00
 Atom C8       Shell    84 P   1     bf  226 -   228          4.509614247347         -0.446895177646         -0.000001935817
      0.2888754725D+00  0.1000000000D+01
 Atom C8       Shell    85 P   1     bf  229 -   231          4.509614247347         -0.446895177646         -0.000001935817
      0.1005682367D+00  0.1000000000D+01
 Atom C8       Shell    86 D   1     bf  232 -   236          4.509614247347         -0.446895177646         -0.000001935817
      0.1097000000D+01  0.1000000000D+01
 Atom C8       Shell    87 D   1     bf  237 -   241          4.509614247347         -0.446895177646         -0.000001935817
      0.3180000000D+00  0.1000000000D+01
 Atom C8       Shell    88 F   1     bf  242 -   248          4.509614247347         -0.446895177646         -0.000001935817
      0.7610000000D+00  0.1000000000D+01
 Atom C9       Shell    89 S   6     bf  249 -   249          2.400923339659          3.673896267026         -0.000003825543
      0.1357534968D+05  0.6064550360D-03
      0.2035233368D+04  0.4697908888D-02
      0.4632256236D+03  0.2433247765D-01
      0.1312001960D+03  0.9739996831D-01
      0.4285301589D+02  0.3019558425D+00
      0.1558418577D+02  0.6623360914D+00
 Atom C9       Shell    90 S   2     bf  250 -   250          2.400923339659          3.673896267026         -0.000003825543
      0.6206713851D+01  0.6559530854D+00
      0.2576489653D+01  0.3758563329D+00
 Atom C9       Shell    91 S   1     bf  251 -   251          2.400923339659          3.673896267026         -0.000003825543
      0.5769633942D+00  0.1000000000D+01
 Atom C9       Shell    92 S   1     bf  252 -   252          2.400923339659          3.673896267026         -0.000003825543
      0.2297283136D+00  0.1000000000D+01
 Atom C9       Shell    93 S   1     bf  253 -   253          2.400923339659          3.673896267026         -0.000003825543
      0.9516444003D-01  0.1000000000D+01
 Atom C9       Shell    94 P   4     bf  254 -   256          2.400923339659          3.673896267026         -0.000003825543
      0.3469723224D+02  0.1132722000D-01
      0.7958262283D+01  0.7616965920D-01
      0.2378082688D+01  0.3019225220D+00
      0.8143320818D+00  0.7278502735D+00
 Atom C9       Shell    95 P   1     bf  257 -   259          2.400923339659          3.673896267026         -0.000003825543
      0.2888754725D+00  0.1000000000D+01
 Atom C9       Shell    96 P   1     bf  260 -   262          2.400923339659          3.673896267026         -0.000003825543
      0.1005682367D+00  0.1000000000D+01
 Atom C9       Shell    97 D   1     bf  263 -   267          2.400923339659          3.673896267026         -0.000003825543
      0.1097000000D+01  0.1000000000D+01
 Atom C9       Shell    98 D   1     bf  268 -   272          2.400923339659          3.673896267026         -0.000003825543
      0.3180000000D+00  0.1000000000D+01
 Atom C9       Shell    99 F   1     bf  273 -   279          2.400923339659          3.673896267026         -0.000003825543
      0.7610000000D+00  0.1000000000D+01
 Atom C10      Shell   100 S   6     bf  280 -   280         -2.400925566061          3.673895896401          0.000003733361
      0.1357534968D+05  0.6064550360D-03
      0.2035233368D+04  0.4697908888D-02
      0.4632256236D+03  0.2433247765D-01
      0.1312001960D+03  0.9739996831D-01
      0.4285301589D+02  0.3019558425D+00
      0.1558418577D+02  0.6623360914D+00
 Atom C10      Shell   101 S   2     bf  281 -   281         -2.400925566061          3.673895896401          0.000003733361
      0.6206713851D+01  0.6559530854D+00
      0.2576489653D+01  0.3758563329D+00
 Atom C10      Shell   102 S   1     bf  282 -   282         -2.400925566061          3.673895896401          0.000003733361
      0.5769633942D+00  0.1000000000D+01
 Atom C10      Shell   103 S   1     bf  283 -   283         -2.400925566061          3.673895896401          0.000003733361
      0.2297283136D+00  0.1000000000D+01
 Atom C10      Shell   104 S   1     bf  284 -   284         -2.400925566061          3.673895896401          0.000003733361
      0.9516444003D-01  0.1000000000D+01
 Atom C10      Shell   105 P   4     bf  285 -   287         -2.400925566061          3.673895896401          0.000003733361
      0.3469723224D+02  0.1132722000D-01
      0.7958262283D+01  0.7616965920D-01
      0.2378082688D+01  0.3019225220D+00
      0.8143320818D+00  0.7278502735D+00
 Atom C10      Shell   106 P   1     bf  288 -   290         -2.400925566061          3.673895896401          0.000003733361
      0.2888754725D+00  0.1000000000D+01
 Atom C10      Shell   107 P   1     bf  291 -   293         -2.400925566061          3.673895896401          0.000003733361
      0.1005682367D+00  0.1000000000D+01
 Atom C10      Shell   108 D   1     bf  294 -   298         -2.400925566061          3.673895896401          0.000003733361
      0.1097000000D+01  0.1000000000D+01
 Atom C10      Shell   109 D   1     bf  299 -   303         -2.400925566061          3.673895896401          0.000003733361
      0.3180000000D+00  0.1000000000D+01
 Atom C10      Shell   110 F   1     bf  304 -   310         -2.400925566061          3.673895896401          0.000003733361
      0.7610000000D+00  0.1000000000D+01
 Atom C11      Shell   111 S   6     bf  311 -   311         -4.567441664118          2.232677196674          0.000007512814
      0.1357534968D+05  0.6064550360D-03
      0.2035233368D+04  0.4697908888D-02
      0.4632256236D+03  0.2433247765D-01
      0.1312001960D+03  0.9739996831D-01
      0.4285301589D+02  0.3019558425D+00
      0.1558418577D+02  0.6623360914D+00
 Atom C11      Shell   112 S   2     bf  312 -   312         -4.567441664118          2.232677196674          0.000007512814
      0.6206713851D+01  0.6559530854D+00
      0.2576489653D+01  0.3758563329D+00
 Atom C11      Shell   113 S   1     bf  313 -   313         -4.567441664118          2.232677196674          0.000007512814
      0.5769633942D+00  0.1000000000D+01
 Atom C11      Shell   114 S   1     bf  314 -   314         -4.567441664118          2.232677196674          0.000007512814
      0.2297283136D+00  0.1000000000D+01
 Atom C11      Shell   115 S   1     bf  315 -   315         -4.567441664118          2.232677196674          0.000007512814
      0.9516444003D-01  0.1000000000D+01
 Atom C11      Shell   116 P   4     bf  316 -   318         -4.567441664118          2.232677196674          0.000007512814
      0.3469723224D+02  0.1132722000D-01
      0.7958262283D+01  0.7616965920D-01
      0.2378082688D+01  0.3019225220D+00
      0.8143320818D+00  0.7278502735D+00
 Atom C11      Shell   117 P   1     bf  319 -   321         -4.567441664118          2.232677196674          0.000007512814
      0.2888754725D+00  0.1000000000D+01
 Atom C11      Shell   118 P   1     bf  322 -   324         -4.567441664118          2.232677196674          0.000007512814
      0.1005682367D+00  0.1000000000D+01
 Atom C11      Shell   119 D   1     bf  325 -   329         -4.567441664118          2.232677196674          0.000007512814
      0.1097000000D+01  0.1000000000D+01
 Atom C11      Shell   120 D   1     bf  330 -   334         -4.567441664118          2.232677196674          0.000007512814
      0.3180000000D+00  0.1000000000D+01
 Atom C11      Shell   121 F   1     bf  335 -   341         -4.567441664118          2.232677196674          0.000007512814
      0.7610000000D+00  0.1000000000D+01
 Atom C12      Shell   122 S   6     bf  342 -   342          4.567441549919          2.232677901739         -0.000007604995
      0.1357534968D+05  0.6064550360D-03
      0.2035233368D+04  0.4697908888D-02
      0.4632256236D+03  0.2433247765D-01
      0.1312001960D+03  0.9739996831D-01
      0.4285301589D+02  0.3019558425D+00
      0.1558418577D+02  0.6623360914D+00
 Atom C12      Shell   123 S   2     bf  343 -   343          4.567441549919          2.232677901739         -0.000007604995
      0.6206713851D+01  0.6559530854D+00
      0.2576489653D+01  0.3758563329D+00
 Atom C12      Shell   124 S   1     bf  344 -   344          4.567441549919          2.232677901739         -0.000007604995
      0.5769633942D+00  0.1000000000D+01
 Atom C12      Shell   125 S   1     bf  345 -   345          4.567441549919          2.232677901739         -0.000007604995
      0.2297283136D+00  0.1000000000D+01
 Atom C12      Shell   126 S   1     bf  346 -   346          4.567441549919          2.232677901739         -0.000007604995
      0.9516444003D-01  0.1000000000D+01
 Atom C12      Shell   127 P   4     bf  347 -   349          4.567441549919          2.232677901739         -0.000007604995
      0.3469723224D+02  0.1132722000D-01
      0.7958262283D+01  0.7616965920D-01
      0.2378082688D+01  0.3019225220D+00
      0.8143320818D+00  0.7278502735D+00
 Atom C12      Shell   128 P   1     bf  350 -   352          4.567441549919          2.232677901739         -0.000007604995
      0.2888754725D+00  0.1000000000D+01
 Atom C12      Shell   129 P   1     bf  353 -   355          4.567441549919          2.232677901739         -0.000007604995
      0.1005682367D+00  0.1000000000D+01
 Atom C12      Shell   130 D   1     bf  356 -   360          4.567441549919          2.232677901739         -0.000007604995
      0.1097000000D+01  0.1000000000D+01
 Atom C12      Shell   131 D   1     bf  361 -   365          4.567441549919          2.232677901739         -0.000007604995
      0.3180000000D+00  0.1000000000D+01
 Atom C12      Shell   132 F   1     bf  366 -   372          4.567441549919          2.232677901739         -0.000007604995
      0.7610000000D+00  0.1000000000D+01
 Atom H13      Shell   133 S   3     bf  373 -   373         -2.231235019007         -5.385337787988          1.654874702452
      0.3406134100D+02  0.2543930721D-01
      0.5123574600D+01  0.1900859489D+00
      0.1164662600D+01  0.8524411301D+00
 Atom H13      Shell   134 S   1     bf  374 -   374         -2.231235019007         -5.385337787988          1.654874702452
      0.3272304100D+00  0.1000000000D+01
 Atom H13      Shell   135 S   1     bf  375 -   375         -2.231235019007         -5.385337787988          1.654874702452
      0.1030724100D+00  0.1000000000D+01
 Atom H13      Shell   136 P   1     bf  376 -   378         -2.231235019007         -5.385337787988          1.654874702452
      0.8000000000D+00  0.1000000000D+01
 Atom H14      Shell   137 S   3     bf  379 -   379         -2.231166988871         -5.385275427020         -1.654993847380
      0.3406134100D+02  0.2543930721D-01
      0.5123574600D+01  0.1900859489D+00
      0.1164662600D+01  0.8524411301D+00
 Atom H14      Shell   138 S   1     bf  380 -   380         -2.231166988871         -5.385275427020         -1.654993847380
      0.3272304100D+00  0.1000000000D+01
 Atom H14      Shell   139 S   1     bf  381 -   381         -2.231166988871         -5.385275427020         -1.654993847380
      0.1030724100D+00  0.1000000000D+01
 Atom H14      Shell   140 P   1     bf  382 -   384         -2.231166988871         -5.385275427020         -1.654993847380
      0.8000000000D+00  0.1000000000D+01
 Atom H15      Shell   141 S   3     bf  385 -   385         -6.267482469236         -1.495140323458          0.000001843635
      0.3406134100D+02  0.2543930721D-01
      0.5123574600D+01  0.1900859489D+00
      0.1164662600D+01  0.8524411301D+00
 Atom H15      Shell   142 S   1     bf  386 -   386         -6.267482469236         -1.495140323458          0.000001843635
      0.3272304100D+00  0.1000000000D+01
 Atom H15      Shell   143 S   1     bf  387 -   387         -6.267482469236         -1.495140323458          0.000001843635
      0.1030724100D+00  0.1000000000D+01
 Atom H15      Shell   144 P   1     bf  388 -   390         -6.267482469236         -1.495140323458          0.000001843635
      0.8000000000D+00  0.1000000000D+01
 Atom H16      Shell   145 S   3     bf  391 -   391          2.231236080782         -5.385335553831         -1.654874794634
      0.3406134100D+02  0.2543930721D-01
      0.5123574600D+01  0.1900859489D+00
      0.1164662600D+01  0.8524411301D+00
 Atom H16      Shell   146 S   1     bf  392 -   392          2.231236080782         -5.385335553831         -1.654874794634
      0.3272304100D+00  0.1000000000D+01
 Atom H16      Shell   147 S   1     bf  393 -   393          2.231236080782         -5.385335553831         -1.654874794634
      0.1030724100D+00  0.1000000000D+01
 Atom H16      Shell   148 P   1     bf  394 -   396          2.231236080782         -5.385335553831         -1.654874794634
      0.8000000000D+00  0.1000000000D+01
 Atom H17      Shell   149 S   3     bf  397 -   397          2.231169940363         -5.385275082600          1.654993755198
      0.3406134100D+02  0.2543930721D-01
      0.5123574600D+01  0.1900859489D+00
      0.1164662600D+01  0.8524411301D+00
 Atom H17      Shell   150 S   1     bf  398 -   398          2.231169940363         -5.385275082600          1.654993755198
      0.3272304100D+00  0.1000000000D+01
 Atom H17      Shell   151 S   1     bf  399 -   399          2.231169940363         -5.385275082600          1.654993755198
      0.1030724100D+00  0.1000000000D+01
 Atom H17      Shell   152 P   1     bf  400 -   402          2.231169940363         -5.385275082600          1.654993755198
      0.8000000000D+00  0.1000000000D+01
 Atom H18      Shell   153 S   3     bf  403 -   403          6.267482930492         -1.495141245688         -0.000000046091
      0.3406134100D+02  0.2543930721D-01
      0.5123574600D+01  0.1900859489D+00
      0.1164662600D+01  0.8524411301D+00
 Atom H18      Shell   154 S   1     bf  404 -   404          6.267482930492         -1.495141245688         -0.000000046091
      0.3272304100D+00  0.1000000000D+01
 Atom H18      Shell   155 S   1     bf  405 -   405          6.267482930492         -1.495141245688         -0.000000046091
      0.1030724100D+00  0.1000000000D+01
 Atom H18      Shell   156 P   1     bf  406 -   408          6.267482930492         -1.495141245688         -0.000000046091
      0.8000000000D+00  0.1000000000D+01
 Atom H19      Shell   157 S   3     bf  409 -   409          2.525499597837          5.716814948215         -0.000005715269
      0.3406134100D+02  0.2543930721D-01
      0.5123574600D+01  0.1900859489D+00
      0.1164662600D+01  0.8524411301D+00
 Atom H19      Shell   158 S   1     bf  410 -   410          2.525499597837          5.716814948215         -0.000005715269
      0.3272304100D+00  0.1000000000D+01
 Atom H19      Shell   159 S   1     bf  411 -   411          2.525499597837          5.716814948215         -0.000005715269
      0.1030724100D+00  0.1000000000D+01
 Atom H19      Shell   160 P   1     bf  412 -   414          2.525499597837          5.716814948215         -0.000005715269
      0.8000000000D+00  0.1000000000D+01
 Atom H20      Shell   161 S   3     bf  415 -   415         -2.525500249873          5.716814558360          0.000005623088
      0.3406134100D+02  0.2543930721D-01
      0.5123574600D+01  0.1900859489D+00
      0.1164662600D+01  0.8524411301D+00
 Atom H20      Shell   162 S   1     bf  416 -   416         -2.525500249873          5.716814558360          0.000005623088
      0.3272304100D+00  0.1000000000D+01
 Atom H20      Shell   163 S   1     bf  417 -   417         -2.525500249873          5.716814558360          0.000005623088
      0.1030724100D+00  0.1000000000D+01
 Atom H20      Shell   164 P   1     bf  418 -   420         -2.525500249873          5.716814558360          0.000005623088
      0.8000000000D+00  0.1000000000D+01
 Atom H21      Shell   165 S   3     bf  421 -   421         -6.385981886025          3.171304026517          0.000013181992
      0.3406134100D+02  0.2543930721D-01
      0.5123574600D+01  0.1900859489D+00
      0.1164662600D+01  0.8524411301D+00
 Atom H21      Shell   166 S   1     bf  422 -   422         -6.385981886025          3.171304026517          0.000013181992
      0.3272304100D+00  0.1000000000D+01
 Atom H21      Shell   167 S   1     bf  423 -   423         -6.385981886025          3.171304026517          0.000013181992
      0.1030724100D+00  0.1000000000D+01
 Atom H21      Shell   168 P   1     bf  424 -   426         -6.385981886025          3.171304026517          0.000013181992
      0.8000000000D+00  0.1000000000D+01
 Atom H22      Shell   169 S   3     bf  427 -   427          6.385981626932          3.171305012305         -0.000011384448
      0.3406134100D+02  0.2543930721D-01
      0.5123574600D+01  0.1900859489D+00
      0.1164662600D+01  0.8524411301D+00
 Atom H22      Shell   170 S   1     bf  428 -   428          6.385981626932          3.171305012305         -0.000011384448
      0.3272304100D+00  0.1000000000D+01
 Atom H22      Shell   171 S   1     bf  429 -   429          6.385981626932          3.171305012305         -0.000011384448
      0.1030724100D+00  0.1000000000D+01
 Atom H22      Shell   172 P   1     bf  430 -   432          6.385981626932          3.171305012305         -0.000011384448
      0.8000000000D+00  0.1000000000D+01
 There are   492 symmetry adapted cartesian basis functions of A   symmetry.
 There are   432 symmetry adapted basis functions of A   symmetry.
   432 basis functions,   692 primitive gaussians,   492 cartesian basis functions
    41 alpha electrons       41 beta electrons
       nuclear repulsion energy       636.6053982730 Hartrees.
 IExCor= 4639 DFT=T Ex+Corr=wB97XD ExCW=0 ScaHFX=  1.000000
 ScaDFX=  1.000000  1.000000  1.000000  1.000000 ScalE2=  1.000000  1.000000
 IRadAn=      5 IRanWt=     -1 IRanGd=            0 ICorTp=0 IEmpDi=121
  HFx wShort=  0.000000 wLong=  0.200000 cFull=  0.222036 cShort=  0.000000 cLong=  0.777964
  DFx wShort=  0.000000 wLong=  0.200000 cFull=  0.000000 cShort=  0.000000 cLong=  1.000000
 NAtoms=   22 NActive=   22 NUniq=   22 SFac= 1.00D+00 NAtFMM=   60 NAOKFM=F Big=F
 Integral buffers will be    131072 words long.
 Raffenetti 2 integral format.
 Two-electron integral symmetry is turned on.
 R6Disp:  Grimme-D2 Dispersion energy=       -0.0134673158 Hartrees.
 Nuclear repulsion after empirical dispersion term =      636.5919309572 Hartrees.
 Leave Link  301 at Fri Jul  9 19:19:37 2021, MaxMem=  4194304000 cpu:         0.2
 (Enter /home/minenky/programs//g09/l302.exe)
 NPDir=0 NMtPBC=     1 NCelOv=     1 NCel=       1 NClECP=     1 NCelD=      1
         NCelK=      1 NCelE2=     1 NClLst=     1 CellRange=     0.0.
 One-electron integrals computed using PRISM.
   1 Symmetry operations used in ECPInt.
 ECPInt:  NShTT=   14878 NPrTT=   45444 LenC2=   14386 LenP2D=   34089.
 LDataN:  DoStor=T MaxTD1= 6 Len=  172
 NBasis=   432 RedAO= T EigKep=  4.56D-06  NBF=   432
 NBsUse=   432 1.00D-06 EigRej= -1.00D+00 NBFU=   432
 Precomputing XC quadrature grid using
 IXCGrd= 4 IRadAn=           5 IRanWt=          -1 IRanGd=           0 AccXCQ= 0.00D+00.
 Generated NRdTot=       0 NPtTot=           0 NUsed=           0 NTot=          32
 NSgBfM=   491   491   491   491   491 MxSgAt=    22 MxSgA2=    22.
 Leave Link  302 at Fri Jul  9 19:19:45 2021, MaxMem=  4194304000 cpu:        67.7
 (Enter /home/minenky/programs//g09/l303.exe)
 DipDrv:  MaxL=1.
 Leave Link  303 at Fri Jul  9 19:19:46 2021, MaxMem=  4194304000 cpu:         5.2
 (Enter /home/minenky/programs//g09/l401.exe)
 ExpMin= 9.52D-02 ExpMax= 1.36D+04 ExpMxC= 4.63D+02 IAcc=3 IRadAn=         5 AccDes= 0.00D+00
 Harris functional with IExCor= 4639 and IRadAn=       5 diagonalized for initial guess.
 HarFok:  IExCor= 4639 AccDes= 0.00D+00 IRadAn=         5 IDoV= 1 UseB2=F ITyADJ=14
 ICtDFT=  3500011 ScaDFX=  1.000000  1.000000  1.000000  1.000000
 FoFCou: FMM=F IPFlag=           0 FMFlag=      100000 FMFlg1=           0
         NFxFlg=           0 DoJE=T BraDBF=F KetDBF=T FulRan=T
         wScrn=  0.000000 ICntrl=     500 IOpCl=  0 I1Cent=   200000004 NGrid=           0
         NMat0=    1 NMatS0=      1 NMatT0=    0 NMatD0=    1 NMtDS0=    0 NMtDT0=    0
 Petite list used in FoFCou.
 Harris En= -442.006169639835    
 JPrj=0 DoOrth=F DoCkMO=F.
 Leave Link  401 at Fri Jul  9 19:20:07 2021, MaxMem=  4194304000 cpu:       121.5
 (Enter /home/minenky/programs//g09/l502.exe)
 Closed shell SCF:
 Using DIIS extrapolation, IDIIS=  1040.
 Integral symmetry usage will be decided dynamically.
 IVT=      885490 IEndB=      885490 NGot=  4194304000 MDV=  4193806227
 LenX=  4193806227 LenY=  4193563671
 Requested convergence on RMS density matrix=1.00D-08 within 380 cycles.
 Requested convergence on MAX density matrix=1.00D-06.
 Requested convergence on             energy=1.00D-06.
 No special actions if energy rises.
 Fock matrices will be formed incrementally for  20 cycles.
 Integral accuracy reduced to 1.0D-05 until final iterations.

 Cycle   1  Pass 0  IDiag  1:
 FoFJK:  IHMeth= 1 ICntrl=       0 DoSepK=T KAlg= 0 I1Cent=   0 FoldK=F
 IRaf=         1 NMat=   1 IRICut=       1 DoRegI=T DoRafI=F ISym2E= 0.
 FoFCou: FMM=F IPFlag=           0 FMFlag=      100000 FMFlg1=           0
         NFxFlg=           0 DoJE=T BraDBF=F KetDBF=F FulRan=T
         wScrn=  0.000000 ICntrl=     500 IOpCl=  0 I1Cent=           0 NGrid=           0
         NMat0=    1 NMatS0=      1 NMatT0=    0 NMatD0=    1 NMtDS0=    0 NMtDT0=    0
 Symmetry not used in FoFCou.
 E= -463.200818678876    
 DIIS: error= 4.36D-02 at cycle   1 NSaved=   1.
 NSaved= 1 IEnMin= 1 EnMin= -463.200818678876     IErMin= 1 ErrMin= 4.36D-02
 ErrMax= 4.36D-02  0.00D+00 EMaxC= 1.00D-01 BMatC= 9.85D-01 BMatP= 9.85D-01
 IDIUse=3 WtCom= 5.64D-01 WtEn= 4.36D-01
 Coeff-Com:  0.100D+01
 Coeff-En:   0.100D+01
 Coeff:      0.100D+01
 Gap=     0.300 Goal=   None    Shift=    0.000
 GapD=    0.300 DampG=1.000 DampE=0.500 DampFc=0.5000 IDamp=-1.
 Damping current iteration by 5.00D-01
 RMSDP=2.21D-03 MaxDP=9.04D-02              OVMax= 4.45D-02

 Cycle   2  Pass 0  IDiag  1:
 RMSU=  9.88D-04    CP:  9.41D-01
 E= -463.257452180304     Delta-E=       -0.056633501428 Rises=F Damp=T
 DIIS: error= 2.03D-02 at cycle   2 NSaved=   2.
 NSaved= 2 IEnMin= 2 EnMin= -463.257452180304     IErMin= 2 ErrMin= 2.03D-02
 ErrMax= 2.03D-02  0.00D+00 EMaxC= 1.00D-01 BMatC= 2.22D-01 BMatP= 9.85D-01
 IDIUse=3 WtCom= 7.97D-01 WtEn= 2.03D-01
 Coeff-Com: -0.881D+00 0.188D+01
 Coeff-En:   0.000D+00 0.100D+01
 Coeff:     -0.702D+00 0.170D+01
 Gap=     0.305 Goal=   None    Shift=    0.000
 RMSDP=1.16D-03 MaxDP=5.14D-02 DE=-5.66D-02 OVMax= 2.48D-02

 Cycle   3  Pass 0  IDiag  1:
 RMSU=  5.73D-04    CP:  8.79D-01  1.88D+00
 E= -463.309792306159     Delta-E=       -0.052340125855 Rises=F Damp=F
 DIIS: error= 2.36D-03 at cycle   3 NSaved=   3.
 NSaved= 3 IEnMin= 3 EnMin= -463.309792306159     IErMin= 3 ErrMin= 2.36D-03
 ErrMax= 2.36D-03  0.00D+00 EMaxC= 1.00D-01 BMatC= 2.45D-03 BMatP= 2.22D-01
 IDIUse=3 WtCom= 9.76D-01 WtEn= 2.36D-02
 Coeff-Com: -0.320D+00 0.685D+00 0.635D+00
 Coeff-En:   0.000D+00 0.000D+00 0.100D+01
 Coeff:     -0.312D+00 0.669D+00 0.644D+00
 Gap=     0.304 Goal=   None    Shift=    0.000
 RMSDP=1.21D-04 MaxDP=2.74D-03 DE=-5.23D-02 OVMax= 1.44D-02

 Cycle   4  Pass 0  IDiag  1:
 RMSU=  1.11D-04    CP:  8.76D-01  1.91D+00  9.48D-01
 E= -463.311951546422     Delta-E=       -0.002159240263 Rises=F Damp=F
 DIIS: error= 7.09D-04 at cycle   4 NSaved=   4.
 NSaved= 4 IEnMin= 4 EnMin= -463.311951546422     IErMin= 4 ErrMin= 7.09D-04
 ErrMax= 7.09D-04  0.00D+00 EMaxC= 1.00D-01 BMatC= 8.95D-05 BMatP= 2.45D-03
 IDIUse=3 WtCom= 9.93D-01 WtEn= 7.09D-03
 Coeff-Com: -0.844D-01 0.181D+00 0.223D+00 0.680D+00
 Coeff-En:   0.000D+00 0.000D+00 0.000D+00 0.100D+01
 Coeff:     -0.838D-01 0.180D+00 0.221D+00 0.682D+00
 Gap=     0.304 Goal=   None    Shift=    0.000
 RMSDP=6.89D-05 MaxDP=2.39D-03 DE=-2.16D-03 OVMax= 3.43D-03

 Cycle   5  Pass 0  IDiag  1:
 RMSU=  5.63D-05    CP:  8.74D-01  1.94D+00  9.44D-01  1.25D+00
 E= -463.312028269328     Delta-E=       -0.000076722907 Rises=F Damp=F
 DIIS: error= 3.76D-04 at cycle   5 NSaved=   5.
 NSaved= 5 IEnMin= 5 EnMin= -463.312028269328     IErMin= 5 ErrMin= 3.76D-04
 ErrMax= 3.76D-04  0.00D+00 EMaxC= 1.00D-01 BMatC= 1.90D-05 BMatP= 8.95D-05
 IDIUse=3 WtCom= 9.96D-01 WtEn= 3.76D-03
 Coeff-Com:  0.278D-01-0.596D-01-0.301D-01 0.314D+00 0.748D+00
 Coeff-En:   0.000D+00 0.000D+00 0.000D+00 0.866D-01 0.913D+00
 Coeff:      0.277D-01-0.593D-01-0.300D-01 0.313D+00 0.748D+00
 Gap=     0.304 Goal=   None    Shift=    0.000
 RMSDP=4.33D-05 MaxDP=1.79D-03 DE=-7.67D-05 OVMax= 2.35D-03

 Cycle   6  Pass 0  IDiag  1:
 RMSU=  2.92D-05    CP:  8.73D-01  1.95D+00  9.58D-01  1.43D+00  1.34D+00
 E= -463.312051358970     Delta-E=       -0.000023089642 Rises=F Damp=F
 DIIS: error= 7.99D-05 at cycle   6 NSaved=   6.
 NSaved= 6 IEnMin= 6 EnMin= -463.312051358970     IErMin= 6 ErrMin= 7.99D-05
 ErrMax= 7.99D-05  0.00D+00 EMaxC= 1.00D-01 BMatC= 1.09D-06 BMatP= 1.90D-05
 IDIUse=1 WtCom= 1.00D+00 WtEn= 0.00D+00
 Coeff-Com:  0.149D-01-0.319D-01-0.212D-01 0.858D-01 0.292D+00 0.660D+00
 Coeff:      0.149D-01-0.319D-01-0.212D-01 0.858D-01 0.292D+00 0.660D+00
 Gap=     0.304 Goal=   None    Shift=    0.000
 RMSDP=2.14D-05 MaxDP=6.46D-04 DE=-2.31D-05 OVMax= 4.64D-04

 Cycle   7  Pass 0  IDiag  1:
 RMSU=  1.31D-05    CP:  8.73D-01  1.95D+00  9.58D-01  1.43D+00  1.39D+00
                    CP:  1.57D+00
 E= -463.312052538601     Delta-E=       -0.000001179631 Rises=F Damp=F
 DIIS: error= 3.90D-05 at cycle   7 NSaved=   7.
 NSaved= 7 IEnMin= 7 EnMin= -463.312052538601     IErMin= 7 ErrMin= 3.90D-05
 ErrMax= 3.90D-05  0.00D+00 EMaxC= 1.00D-01 BMatC= 1.19D-07 BMatP= 1.09D-06
 IDIUse=1 WtCom= 1.00D+00 WtEn= 0.00D+00
 Coeff-Com: -0.316D-02 0.680D-02 0.335D-02-0.563D-01-0.101D+00 0.128D+00
 Coeff-Com:  0.102D+01
 Coeff:     -0.316D-02 0.680D-02 0.335D-02-0.563D-01-0.101D+00 0.128D+00
 Coeff:      0.102D+01
 Gap=     0.304 Goal=   None    Shift=    0.000
 RMSDP=2.88D-05 MaxDP=7.94D-04 DE=-1.18D-06 OVMax= 4.25D-04

 Cycle   8  Pass 0  IDiag  1:
 RMSU=  1.13D-05    CP:  8.74D-01  1.95D+00  9.60D-01  1.40D+00  1.33D+00
                    CP:  2.18D+00  2.37D+00
 E= -463.312051886669     Delta-E=        0.000000651932 Rises=F Damp=F
 DIIS: error= 1.25D-05 at cycle   8 NSaved=   8.
 NSaved= 8 IEnMin= 7 EnMin= -463.312052538601     IErMin= 8 ErrMin= 1.25D-05
 ErrMax= 1.25D-05  0.00D+00 EMaxC= 1.00D-01 BMatC= 1.94D-08 BMatP= 1.19D-07
 IDIUse=1 WtCom= 1.00D+00 WtEn= 0.00D+00
 Coeff-Com: -0.165D-02 0.353D-02 0.235D-02-0.189D-01-0.392D-01-0.296D-01
 Coeff-Com:  0.206D+00 0.877D+00
 Coeff:     -0.165D-02 0.353D-02 0.235D-02-0.189D-01-0.392D-01-0.296D-01
 Coeff:      0.206D+00 0.877D+00
 Gap=     0.304 Goal=   None    Shift=    0.000
 RMSDP=2.21D-05 MaxDP=7.78D-04 DE= 6.52D-07 OVMax= 1.12D-04

 Cycle   9  Pass 0  IDiag  1:
 RMSU=  8.41D-06    CP:  8.75D-01  1.94D+00  9.63D-01  1.39D+00  1.26D+00
                    CP:  2.33D+00  3.00D+00  2.36D+00
 E= -463.312049885712     Delta-E=        0.000002000957 Rises=F Damp=F
 DIIS: error= 1.02D-05 at cycle   9 NSaved=   9.
 NSaved= 9 IEnMin= 7 EnMin= -463.312052538601     IErMin= 9 ErrMin= 1.02D-05
 ErrMax= 1.02D-05  0.00D+00 EMaxC= 1.00D-01 BMatC= 1.21D-08 BMatP= 1.94D-08
 IDIUse=1 WtCom= 1.00D+00 WtEn= 0.00D+00
 Coeff-Com: -0.715D-03 0.153D-02 0.106D-02-0.854D-02-0.164D-01-0.124D-01
 Coeff-Com:  0.910D-01 0.330D+00 0.614D+00
 Coeff:     -0.715D-03 0.153D-02 0.106D-02-0.854D-02-0.164D-01-0.124D-01
 Coeff:      0.910D-01 0.330D+00 0.614D+00
 Gap=     0.304 Goal=   None    Shift=    0.000
 RMSDP=1.35D-05 MaxDP=4.21D-04 DE= 2.00D-06 OVMax= 3.17D-05

 Cycle  10  Pass 0  IDiag  1:
 RMSU=  4.69D-06    CP:  8.75D-01  1.94D+00  9.61D-01  1.40D+00  1.30D+00
                    CP:  2.34D+00  3.00D+00  3.00D+00  2.17D+00
 E= -463.312048075656     Delta-E=        0.000001810056 Rises=F Damp=F
 DIIS: error= 1.22D-05 at cycle  10 NSaved=  10.
 NSaved=10 IEnMin= 7 EnMin= -463.312052538601     IErMin= 9 ErrMin= 1.02D-05
 ErrMax= 1.22D-05  0.00D+00 EMaxC= 1.00D-01 BMatC= 1.47D-08 BMatP= 1.21D-08
 IDIUse=1 WtCom= 1.00D+00 WtEn= 0.00D+00
 Coeff-Com: -0.730D-03 0.157D-02 0.107D-02-0.885D-02-0.170D-01-0.115D-01
 Coeff-Com:  0.967D-01 0.324D+00 0.570D+00 0.440D-01
 Coeff:     -0.730D-03 0.157D-02 0.107D-02-0.885D-02-0.170D-01-0.115D-01
 Coeff:      0.967D-01 0.324D+00 0.570D+00 0.440D-01
 Gap=     0.304 Goal=   None    Shift=    0.000
 RMSDP=8.74D-07 MaxDP=2.37D-05 DE= 1.81D-06 OVMax= 4.38D-07

 Initial convergence to 1.0D-05 achieved.  Increase integral accuracy.
 Cycle  11  Pass 1  IDiag  1:
 E= -463.312057331338     Delta-E=       -0.000009255682 Rises=F Damp=F
 DIIS: error= 3.42D-04 at cycle   1 NSaved=   1.
 NSaved= 1 IEnMin= 1 EnMin= -463.312057331338     IErMin= 1 ErrMin= 3.42D-04
 ErrMax= 3.42D-04  0.00D+00 EMaxC= 1.00D-01 BMatC= 1.51D-05 BMatP= 1.51D-05
 IDIUse=3 WtCom= 9.97D-01 WtEn= 3.42D-03
 Coeff-Com:  0.100D+01
 Coeff-En:   0.100D+01
 Coeff:      0.100D+01
 Gap=     0.304 Goal=   None    Shift=    0.000
 RMSDP=8.74D-07 MaxDP=2.37D-05 DE=-9.26D-06 OVMax= 2.97D-04

 Cycle  12  Pass 1  IDiag  1:
 RMSU=  4.61D-04    CP:  9.94D-01
 E= -463.312061844491     Delta-E=       -0.000004513153 Rises=F Damp=F
 DIIS: error= 6.77D-06 at cycle   2 NSaved=   2.
 NSaved= 2 IEnMin= 2 EnMin= -463.312061844491     IErMin= 2 ErrMin= 6.77D-06
 ErrMax= 6.77D-06  0.00D+00 EMaxC= 1.00D-01 BMatC= 1.49D-08 BMatP= 1.51D-05
 IDIUse=1 WtCom= 1.00D+00 WtEn= 0.00D+00
 Coeff-Com: -0.198D-01 0.102D+01
 Coeff:     -0.198D-01 0.102D+01
 Gap=     0.304 Goal=   None    Shift=    0.000
 RMSDP=3.23D-05 MaxDP=1.05D-03 DE=-4.51D-06 OVMax= 3.47D-05

 Cycle  13  Pass 1  IDiag  1:
 RMSU=  8.76D-06    CP:  9.94D-01  1.07D+00
 E= -463.312061858791     Delta-E=       -0.000000014300 Rises=F Damp=F
 DIIS: error= 3.03D-06 at cycle   3 NSaved=   3.
 NSaved= 3 IEnMin= 3 EnMin= -463.312061858791     IErMin= 3 ErrMin= 3.03D-06
 ErrMax= 3.03D-06  0.00D+00 EMaxC= 1.00D-01 BMatC= 1.93D-09 BMatP= 1.49D-08
 IDIUse=1 WtCom= 1.00D+00 WtEn= 0.00D+00
 Coeff-Com: -0.472D-02 0.219D+00 0.786D+00
 Coeff:     -0.472D-02 0.219D+00 0.786D+00
 Gap=     0.304 Goal=   None    Shift=    0.000
 RMSDP=1.71D-06 MaxDP=4.90D-05 DE=-1.43D-08 OVMax= 2.67D-05

 Cycle  14  Pass 1  IDiag  1:
 RMSU=  3.44D-07    CP:  9.94D-01  1.07D+00  1.09D+00
 E= -463.312061860032     Delta-E=       -0.000000001241 Rises=F Damp=F
 DIIS: error= 2.71D-06 at cycle   4 NSaved=   4.
 NSaved= 4 IEnMin= 4 EnMin= -463.312061860032     IErMin= 4 ErrMin= 2.71D-06
 ErrMax= 2.71D-06  0.00D+00 EMaxC= 1.00D-01 BMatC= 1.05D-09 BMatP= 1.93D-09
 IDIUse=1 WtCom= 1.00D+00 WtEn= 0.00D+00
 Coeff-Com:  0.847D-03-0.575D-01 0.421D+00 0.636D+00
 Coeff:      0.847D-03-0.575D-01 0.421D+00 0.636D+00
 Gap=     0.304 Goal=   None    Shift=    0.000
 RMSDP=6.98D-07 MaxDP=2.07D-05 DE=-1.24D-09 OVMax= 1.23D-05

 Cycle  15  Pass 1  IDiag  1:
 RMSU=  1.08D-07    CP:  9.94D-01  1.07D+00  1.13D+00  1.32D+00
 E= -463.312061861150     Delta-E=       -0.000000001118 Rises=F Damp=F
 DIIS: error= 5.75D-07 at cycle   5 NSaved=   5.
 NSaved= 5 IEnMin= 5 EnMin= -463.312061861150     IErMin= 5 ErrMin= 5.75D-07
 ErrMax= 5.75D-07  0.00D+00 EMaxC= 1.00D-01 BMatC= 1.79D-11 BMatP= 1.05D-09
 IDIUse=1 WtCom= 1.00D+00 WtEn= 0.00D+00
 Coeff-Com:  0.383D-03-0.222D-01 0.792D-01 0.147D+00 0.796D+00
 Coeff:      0.383D-03-0.222D-01 0.792D-01 0.147D+00 0.796D+00
 Gap=     0.304 Goal=   None    Shift=    0.000
 RMSDP=5.21D-08 MaxDP=1.72D-06 DE=-1.12D-09 OVMax= 4.67D-06

 Cycle  16  Pass 1  IDiag  1:
 RMSU=  2.00D-08    CP:  9.94D-01  1.07D+00  1.13D+00  1.40D+00  1.12D+00
 E= -463.312061861194     Delta-E=       -0.000000000044 Rises=F Damp=F
 DIIS: error= 3.10D-07 at cycle   6 NSaved=   6.
 NSaved= 6 IEnMin= 6 EnMin= -463.312061861194     IErMin= 6 ErrMin= 3.10D-07
 ErrMax= 3.10D-07  0.00D+00 EMaxC= 1.00D-01 BMatC= 6.82D-12 BMatP= 1.79D-11
 IDIUse=1 WtCom= 1.00D+00 WtEn= 0.00D+00
 Coeff-Com: -0.588D-04 0.525D-02-0.642D-01-0.102D+00 0.309D+00 0.852D+00
 Coeff:     -0.588D-04 0.525D-02-0.642D-01-0.102D+00 0.309D+00 0.852D+00
 Gap=     0.304 Goal=   None    Shift=    0.000
 RMSDP=2.41D-08 MaxDP=9.07D-07 DE=-4.37D-11 OVMax= 2.40D-06

 Cycle  17  Pass 1  IDiag  1:
[...]
 001,-0.00000017,0.13386384,0.03928284,-0.04994282,-0.00000002,-0.06842
 250,0.00187306,0.00000006,-0.02112212,-0.00065941,0.,-0.23359662,-0.06
 442869,0.00000005,0.00058311,0.00079162,0.,0.03814796,0.07366824,0.,0.
 00121822,0.00111016,-0.00000003,0.01036992,-0.02241306,0.,-0.06364859,
 -0.01109927,0.,0.66369820,-0.03496218,-0.02078001,0.,0.00736059,0.0013
 8478,0.00000004,0.00127371,-0.00595146,0.00000002,-0.09334618,-0.16647
 185,-0.00000003,0.00067390,-0.00101432,-0.00000005,0.02343829,-0.03311
 685,-0.00000003,-0.00083087,-0.00065668,0.,0.00124756,-0.00112002,0.,0
 .01109928,0.01679384,0.,-0.03516320,0.75188082,-0.00000001,0.00000003,
 0.00761291,0.00000001,0.,-0.00355950,0.,0.,0.00589069,0.,-0.00000006,-
 0.06693687,0.,0.00000001,-0.00103023,0.,-0.00000005,0.00665037,0.,0.,-
 0.00026301,0.,0.,-0.00089147,0.,0.,0.00300415,-0.00000002,0.00000020,0
 .13386384,-0.02185024,0.01561222,0.,0.02932630,-0.03515562,-0.00000012
 ,0.01166675,0.00212508,0.,-0.06552307,-0.00278860,0.,-0.00529005,-0.00
 005050,0.00000005,-0.12702205,-0.03530831,0.00000004,-0.00065295,-0.00
 148067,0.,-0.00631690,0.01019527,0.,0.01429710,-0.00533358,0.,-0.30502
 099,0.14819545,0.00000003,0.75545441,0.03985357,-0.03204740,0.,-0.0854
 5500,-0.02577183,0.00000002,-0.02160088,-0.00389930,0.00000002,0.04068
 092,0.04572170,0.00000003,-0.00039770,0.00421042,0.00000006,0.03443171
 ,-0.28249753,-0.00000029,0.00099959,0.00098151,-0.00000006,0.00920357,
 -0.01919608,-0.00000002,-0.02898203,-0.00057125,0.,0.08160861,-0.20971
 384,-0.00000002,0.00542405,0.64723091,0.00000004,-0.00000002,-0.007108
 33,-0.00000008,-0.00000001,0.00606168,-0.00000002,0.,-0.00071112,0.000
 00003,0.00000003,0.00573230,-0.00000005,-0.00000002,0.00730588,0.00000
 007,-0.00000018,-0.06057792,0.00000002,-0.00000002,0.00039659,0.000000
 01,-0.00000002,0.00038447,-0.00000002,0.,0.00606094,-0.00000002,-0.000
 00005,-0.06133249,0.00000007,0.00000034,0.13778187,-0.02185024,-0.0156
 1222,0.,0.01166675,-0.00212508,0.,0.02932631,0.03515562,-0.00000012,-0
 .06552307,0.00278861,0.,-0.00065295,0.00148067,0.,-0.00631690,-0.01019
 527,0.,-0.00529005,0.00005050,0.00000005,-0.12702205,0.03530831,0.0000
 0004,-0.30502098,-0.14819543,0.00000002,0.01429710,0.00533358,0.,-0.00
 718866,0.01167965,0.00000001,0.75545440,-0.03985357,-0.03204740,0.,0.0
 2160088,-0.00389930,-0.00000002,0.08545500,-0.02577184,-0.00000002,-0.
 04068092,0.04572170,-0.00000003,-0.00099959,0.00098151,0.00000006,-0.0
 0920357,-0.01919608,0.00000001,0.00039770,0.00421042,-0.00000006,-0.03
 443172,-0.28249755,0.00000028,-0.08160859,-0.20971382,0.00000002,0.028
 98203,-0.00057125,0.,-0.01167965,0.01968895,0.00000002,-0.00542407,0.6
 4723092,0.00000004,0.00000001,-0.00710833,-0.00000002,0.,-0.00071112,-
 0.00000007,0.00000001,0.00606168,0.00000003,-0.00000003,0.00573230,0.0
 0000002,0.00000002,0.00039659,0.00000001,0.00000002,0.00038447,-0.0000
 0005,0.00000001,0.00730588,0.00000007,0.00000017,-0.06057791,-0.000000
 02,0.00000004,-0.06133249,-0.00000002,0.,0.00606094,0.00000001,-0.0000
 0001,0.00001647,0.00000007,-0.00000032,0.13778186,-0.00075039,-0.00046
 959,-0.00035794,0.00439180,-0.00330154,0.00912890,-0.00344797,-0.00088
 925,-0.00080523,-0.00023405,-0.00002500,-0.00016491,-0.07991514,0.0432
 5198,-0.07649556,-0.00004989,-0.00102783,-0.00026889,-0.01124949,0.013
 11165,-0.02379239,0.00015779,0.00129954,0.00041816,0.00013883,0.000090
 60,0.00000406,0.00037711,-0.00043382,0.00010553,0.00002458,0.00078513,
 -0.00035281,-0.00030530,-0.00014260,0.00026442,0.08855644,-0.00107949,
 -0.00338283,-0.00038764,0.01070235,-0.01659107,0.02556002,-0.00025842,
 -0.00118865,0.00026328,0.00073047,-0.00009973,-0.00112904,0.04530489,-
 0.10218975,0.10159195,0.00103072,0.00132364,-0.00079553,-0.00225858,0.
 00086975,-0.00179713,0.00025896,0.00007048,0.00000455,-0.00020910,-0.0
 0015947,0.00007539,-0.00047845,-0.00018517,0.00016409,0.00042090,-0.00
 069939,-0.00148304,0.00006607,0.00010691,0.00007972,-0.04733029,0.1128
 8730,0.00029210,-0.00015320,-0.00025446,0.00165296,-0.00099163,0.00282
 317,0.00085830,-0.00050588,-0.00001805,-0.00001441,-0.00017816,-0.0000
 8815,-0.07882367,0.10076954,-0.22286674,-0.00039427,-0.00008873,0.0008
 2665,0.00209086,-0.00216675,0.00179706,-0.00002381,-0.00011759,-0.0002
 2636,0.00007721,-0.00001913,0.00002634,0.00030388,-0.00006022,-0.00003
 730,-0.00002457,0.00047525,0.00007768,0.00001058,-0.00008626,-0.000022
 40,0.08340902,-0.10990421,0.23806196,-0.00075040,-0.00046953,0.0003579
 1,0.00439159,-0.00330147,-0.00912894,-0.00344774,-0.00088926,0.0008052
 8,-0.00023409,-0.00002500,0.00016491,-0.07991160,0.04324848,0.07649305
 ,-0.00004990,-0.00102788,0.00026890,-0.01124925,0.01311117,0.02379308,
 0.00015774,0.00129953,-0.00041818,0.00013885,0.00009061,-0.00000406,0.
 00037713,-0.00043382,-0.00010553,0.00002457,0.00078514,0.00035283,-0.0
 0030529,-0.00014263,-0.00026443,0.00454152,-0.00581239,-0.00942478,0.0
 8855284,-0.00107947,-0.00338271,0.00038766,0.01070169,-0.01659092,-0.0
 2556063,-0.00025840,-0.00118862,-0.00026328,0.00073043,-0.00009973,0.0
 0112906,0.04530140,-0.10218589,-0.10159063,0.00103073,0.00132360,0.000
 79551,-0.00225857,0.00086966,0.00179713,0.00025896,0.00007046,-0.00000
 454,-0.00020910,-0.00015946,-0.00007539,-0.00047846,-0.00018519,-0.000
 16409,0.00042092,-0.00069941,0.00148307,0.00006607,0.00010692,-0.00007
 972,-0.00581228,0.00809492,0.01281175,-0.04732625,0.11288327,-0.000292
 13,0.00015315,-0.00025446,-0.00165283,0.00099126,0.00282300,-0.0008581
 5,0.00050585,-0.00001809,0.00001442,0.00017813,-0.00008815,0.07882117,
 -0.10076796,-0.22287352,0.00039431,0.00008877,0.00082667,-0.00209054,0
 .00216643,0.00179666,0.00002379,0.00011757,-0.00022637,-0.00007720,0.0
 0001912,0.00002634,-0.00030387,0.00006023,-0.00003731,0.00002458,-0.00
 047527,0.00007770,-0.00001057,0.00008625,-0.00002240,0.00942408,-0.012
 81107,-0.02225179,-0.08340653,0.10990277,0.23806928,-0.00307738,-0.004
 14202,0.,-0.01907685,0.01813886,0.00000003,-0.00036452,0.00124026,0.,-
 0.00024862,-0.00063406,0.,0.00133139,0.00049991,0.,-0.26611026,0.12271
 961,0.00000026,-0.00009270,0.00012968,0.,-0.00057450,-0.00023362,0.,0.
 00035623,0.00010247,0.,0.00159150,-0.00080669,0.,0.00428901,-0.0030256
 1,0.,-0.00006087,-0.00033313,0.,-0.00022259,-0.00049208,0.00012053,-0.
 00022259,-0.00049206,-0.00012052,0.28183657,-0.00320068,-0.00119481,-0
 .00000001,-0.01302829,0.01268348,0.00000002,-0.00028728,0.00071042,0.,
 -0.00106656,-0.00035835,0.,0.00064272,0.00071917,0.,0.12212222,-0.1334
 1049,-0.00000018,0.00002098,0.00002097,0.,-0.00028198,0.00010155,0.,0.
 00042737,0.00010577,0.,-0.00171388,-0.00528717,-0.00000001,0.02846478,
 -0.01060368,-0.00000003,-0.00014289,-0.00029382,0.,0.00009615,0.000088
 33,0.00017934,0.00009614,0.00008834,-0.00017933,-0.13295927,0.13644579
 ,-0.00000001,0.,0.00989241,0.00000004,0.00000003,0.00371019,0.,0.,0.00
 013189,-0.00000001,0.,-0.00082872,0.00000002,0.,-0.00384740,0.00000023
 ,-0.00000022,-0.03643047,-0.00000001,0.,-0.00017143,0.,0.,-0.00074231,
 0.,0.,-0.00100067,0.00000001,-0.00000001,0.00584771,0.00000003,0.00000
 001,0.00128824,0.,0.,0.00010323,0.00003178,0.00099221,-0.00023828,-0.0
 0003180,-0.00099221,-0.00023830,-0.00000029,0.00000020,0.02489670,-0.0
 0075039,0.00046959,-0.00035794,-0.00344797,0.00088925,-0.00080523,0.00
 439180,0.00330153,0.00912890,-0.00023405,0.00002500,-0.00016491,-0.011
 24950,-0.01311165,-0.02379239,0.00015779,-0.00129954,0.00041816,-0.079
 91515,-0.04325198,-0.07649557,-0.00004989,0.00102783,-0.00026889,0.000
 37711,0.00043382,0.00010553,0.00013883,-0.00009060,0.00000406,-0.00030
 530,0.00014260,0.00026442,0.00002458,-0.00078513,-0.00035281,-0.003526
 78,-0.00074918,-0.00021059,0.00145612,0.00005521,-0.00009105,0.0000395
 4,0.00003672,-0.00010944,0.08855644,0.00107949,-0.00338283,0.00038764,
 0.00025842,-0.00118865,-0.00026328,-0.01070235,-0.01659107,-0.02556002
 ,-0.00073047,-0.00009973,0.00112904,0.00225858,0.00086975,0.00179713,-
 0.00025896,0.00007048,-0.00000455,-0.04530489,-0.10218973,-0.10159194,
 -0.00103072,0.00132364,0.00079553,0.00047845,-0.00018517,-0.00016409,0
 .00020910,-0.00015947,-0.00007539,-0.00006607,0.00010691,-0.00007972,-
 0.00042090,-0.00069939,0.00148304,0.00074918,0.00013038,0.00024988,-0.
 00005524,0.00102865,0.00026152,-0.00006043,-0.00000993,0.00004313,0.04
 733029,0.11288729,0.00029210,0.00015320,-0.00025446,0.00085830,0.00050
 588,-0.00001805,0.00165296,0.00099163,0.00282317,-0.00001441,0.0001781
 6,-0.00008815,0.00209086,0.00216675,0.00179706,-0.00002381,0.00011759,
 -0.00022636,-0.07882368,-0.10076953,-0.22286675,-0.00039427,0.00008873
 ,0.00082665,0.00030388,0.00006022,-0.00003730,0.00007721,0.00001913,0.
 00002634,0.00001058,0.00008626,-0.00002240,-0.00002457,-0.00047525,0.0
 0007768,-0.00021059,-0.00024988,0.00070847,0.00009106,0.00026152,0.001
 69252,-0.00000555,0.00000008,0.00001447,0.08340903,0.10990420,0.238061
 97,-0.00075040,0.00046953,0.00035791,-0.00344774,0.00088926,0.00080528
 ,0.00439159,0.00330146,-0.00912894,-0.00023409,0.00002500,0.00016491,-
 0.01124925,-0.01311117,0.02379308,0.00015774,-0.00129953,-0.00041818,-
 0.07991161,-0.04324848,0.07649305,-0.00004990,0.00102788,0.00026890,0.
 00037713,0.00043382,-0.00010553,0.00013885,-0.00009061,-0.00000406,-0.
 00030529,0.00014263,-0.00026443,0.00002457,-0.00078514,0.00035283,0.00
 145612,0.00005524,0.00009106,-0.00352694,-0.00074923,0.00021065,0.0000
 3954,0.00003671,0.00010945,0.00454152,0.00581239,-0.00942478,0.0885528
 5,0.00107947,-0.00338271,-0.00038766,0.00025840,-0.00118862,0.00026328
 ,-0.01070169,-0.01659092,0.02556063,-0.00073043,-0.00009973,-0.0011290
 6,0.00225857,0.00086966,-0.00179713,-0.00025896,0.00007046,0.00000454,
 -0.04530141,-0.10218590,0.10159063,-0.00103073,0.00132360,-0.00079551,
 0.00047846,-0.00018519,0.00016409,0.00020910,-0.00015946,0.00007539,-0
 .00006607,0.00010692,0.00007972,-0.00042092,-0.00069941,-0.00148307,-0
 .00005521,0.00102865,-0.00026152,0.00074923,0.00013042,-0.00024989,-0.
 00006042,-0.00000993,-0.00004313,0.00581228,0.00809492,-0.01281174,0.0
 4732625,0.11288327,-0.00029213,-0.00015315,-0.00025446,-0.00085815,-0.
 00050585,-0.00001809,-0.00165283,-0.00099126,0.00282300,0.00001442,-0.
 00017813,-0.00008815,-0.00209054,-0.00216643,0.00179666,0.00002379,-0.
 00011757,-0.00022637,0.07882118,0.10076796,-0.22287351,0.00039431,-0.0
 0008877,0.00082667,-0.00030387,-0.00006023,-0.00003731,-0.00007720,-0.
 00001912,0.00002634,-0.00001057,-0.00008625,-0.00002240,0.00002458,0.0
 0047527,0.00007770,-0.00009105,-0.00026152,0.00169252,0.00021065,0.000
 24989,0.00070851,0.00000555,-0.00000008,0.00001447,0.00942409,0.012811
 07,-0.02225179,-0.08340654,-0.10990277,0.23806927,-0.00307738,0.004142
 02,0.,-0.00036452,-0.00124026,0.,-0.01907685,-0.01813885,0.00000003,-0
 .00024862,0.00063406,0.,-0.00009270,-0.00012968,0.,-0.00057450,0.00023
 362,0.,0.00133139,-0.00049991,0.,-0.26611027,-0.12271960,0.00000025,0.
 00159150,0.00080669,0.,0.00035623,-0.00010247,0.,-0.00006087,0.0003331
 3,0.,0.00428900,0.00302561,0.,0.00003954,0.00006043,-0.00000555,0.0000
 3954,0.00006042,0.00000555,-0.00015263,-0.00007918,0.,-0.00022259,0.00
 049208,0.00012053,-0.00022259,0.00049206,-0.00012052,0.28183659,0.0032
 0068,-0.00119481,0.00000001,0.00028728,0.00071042,0.,0.01302830,0.0126
 8348,-0.00000002,0.00106656,-0.00035835,0.,-0.00002098,0.00002097,0.,0
 .00028198,0.00010155,0.,-0.00064272,0.00071917,0.,-0.12212222,-0.13341
 047,0.00000018,0.00171388,-0.00528717,0.00000001,-0.00042737,0.0001057
 7,0.,0.00014289,-0.00029382,0.,-0.02846478,-0.01060368,0.00000003,-0.0
 0003672,-0.00000993,-0.00000008,-0.00003671,-0.00000993,0.00000008,0.0
 0007918,0.00004464,0.,-0.00009615,0.00008833,-0.00017934,-0.00009614,0
 .00008834,0.00017933,0.13295926,0.13644577,-0.00000001,0.,0.00989241,0
 .,0.,0.00013189,0.00000004,-0.00000002,0.00371019,-0.00000001,0.,-0.00
 082872,-0.00000001,0.,-0.00017143,0.,0.,-0.00074231,0.00000002,0.,-0.0
 0384740,0.00000022,0.00000022,-0.03643047,0.00000001,0.00000001,0.0058
 4771,0.,0.,-0.00100067,0.,0.,0.00010323,0.00000002,-0.00000001,0.00128
 824,-0.00010944,-0.00004313,0.00001447,0.00010945,0.00004313,0.0000144
 7,0.,0.,0.00004312,0.00003178,-0.00099220,-0.00023828,-0.00003180,0.00
 099221,-0.00023830,-0.00000028,-0.00000020,0.02489670,-0.00511705,0.00
 177011,0.,0.00052011,0.00138017,0.,-0.00134571,0.00001706,0.,0.0035770
 6,0.02848397,-0.00000001,-0.00030168,0.00008985,0.,0.00011479,0.000147
 05,0.,0.00008687,-0.00003123,0.,-0.00393636,-0.00226328,0.,-0.06105817
 ,0.01922669,-0.00000001,0.00173953,0.00063375,0.,0.00012632,-0.0003591
 5,0.,0.00574246,-0.02792937,0.,0.00002648,0.00007403,0.00000260,0.0000
 2647,0.00007402,-0.00000260,-0.00003058,-0.00006049,0.,0.00001057,0.00
 002805,0.00001354,0.00001057,0.00002804,-0.00001354,0.00005436,-0.0013
 0258,0.,0.05920137,0.00293007,0.00061142,0.,-0.00090370,-0.00052442,0.
 ,-0.00001487,0.00058032,0.,-0.00184955,-0.01050774,0.,0.00017106,-0.00
 006655,0.,0.00021318,0.00033200,0.,0.00008727,0.00002323,0.,-0.0031624
 3,0.00052526,0.,0.01768671,-0.33809562,0.00000009,-0.00098629,0.001060
 51,0.,0.00033759,-0.00023431,0.,0.00414051,-0.01308451,0.,0.00000285,-
 0.00005262,0.00000580,0.00000285,-0.00005262,-0.00000580,0.00004323,0.
 00002113,0.,-0.00002622,-0.00000364,-0.00000469,-0.00002622,-0.0000036
 4,0.00000469,0.00016552,-0.00072318,0.,-0.01937692,0.35928971,0.000000
 01,0.00000002,0.00561921,0.,0.,0.00009860,-0.00000001,0.,-0.00098738,0
 .00000002,-0.00000002,0.00258978,0.,0.,0.00011515,0.,0.,-0.00011190,0.
 ,0.,-0.00085301,0.,0.,0.00852294,-0.00000003,0.00000009,-0.03483577,0.
 ,0.,-0.00264270,0.,0.,-0.00019814,0.,0.,0.00266096,-0.00003436,-0.0000
 6189,-0.00000585,0.00003436,0.00006189,-0.00000585,0.,0.,0.00004293,-0
 .00004560,-0.00019696,-0.00003034,0.00004559,0.00019697,-0.00003035,0.
 ,0.,0.00019800,0.,-0.00000010,0.02464973,-0.00511705,-0.00177011,0.,-0
 .00134571,-0.00001706,0.,0.00052011,-0.00138017,0.,0.00357706,-0.02848
 397,-0.00000001,0.00008687,0.00003123,0.,-0.00393636,0.00226328,0.,-0.
 00030168,-0.00008985,0.,0.00011479,-0.00014705,0.,0.00173953,-0.000633
 75,0.,-0.06105817,-0.01922670,-0.00000001,0.00574246,0.02792937,0.0000
 0001,0.00012632,0.00035915,0.,0.00001057,-0.00002805,0.00001354,0.0000
 1057,-0.00002804,-0.00001354,0.00005436,0.00130258,0.,0.00002648,-0.00
 007403,0.00000260,0.00002647,-0.00007402,-0.00000260,-0.00003058,0.000
 06049,0.,-0.00028070,0.00088882,0.,0.05920137,-0.00293007,0.00061142,0
 .,0.00001487,0.00058032,0.,0.00090370,-0.00052442,0.,0.00184955,-0.010
 50774,0.,-0.00008727,0.00002323,0.,0.00316243,0.00052526,0.,-0.0001710
 6,-0.00006655,0.,-0.00021318,0.00033200,0.,0.00098629,0.00106051,0.,-0
 .01768673,-0.33809561,-0.00000010,-0.00414051,-0.01308451,0.,-0.000337
 59,-0.00023431,0.,0.00002622,-0.00000364,0.00000469,0.00002622,-0.0000
 0364,-0.00000469,-0.00016552,-0.00072318,0.,-0.00000285,-0.00005262,-0
 .00000580,-0.00000285,-0.00005262,0.00000580,-0.00004323,0.00002113,0.
 ,-0.00088882,0.00008436,0.,0.01937694,0.35928971,0.00000001,-0.0000000
 2,0.00561921,-0.00000001,0.,-0.00098738,0.,0.,0.00009860,0.00000002,0.
 00000002,0.00258978,0.,0.,-0.00085301,0.,0.,0.00852294,0.,0.,0.0001151
 5,0.,0.,-0.00011190,0.,0.,-0.00264270,-0.00000003,-0.00000010,-0.03483
 577,0.,0.,0.00266096,0.,0.,-0.00019814,-0.00004560,0.00019696,-0.00003
 034,0.00004559,-0.00019697,-0.00003035,0.,0.,0.00019800,-0.00003436,0.
 00006189,-0.00000585,0.00003436,-0.00006189,-0.00000585,0.,0.,0.000042
 93,0.,0.,0.00015298,0.,0.00000011,0.02464973,0.00015106,0.00079742,0.,
 0.00163081,0.00027863,0.,0.00022003,-0.00002086,0.,-0.00289569,0.00400
 771,0.,0.00008509,0.00018292,0.,0.00260958,0.00215788,0.,-0.00002854,-
 0.00004341,0.,0.00000634,0.00018189,0.,-0.00034941,-0.00115723,0.,-0.0
 1909813,-0.01492618,0.,-0.28093368,-0.11397104,-0.00000009,-0.00048146
 ,0.00020826,0.,-0.00001407,-0.00003233,0.00000430,-0.00001407,-0.00003
 233,-0.00000430,0.00071804,-0.00044120,0.,-0.00000507,-0.00002431,-0.0
 0000529,-0.00000507,-0.00002431,0.00000529,-0.00002208,-0.00001534,0.,
 -0.00001426,0.00005878,0.,0.00084754,0.00038223,0.,0.29771027,0.001155
 66,-0.00053926,0.,0.00041501,-0.00630624,-0.00000002,-0.00043307,-0.00
 006150,0.,0.00369103,-0.00171336,0.,-0.00117475,0.00028768,0.,-0.02895
 172,-0.00910440,0.,0.00002483,-0.00034111,0.,0.00015771,-0.00031504,0.
 ,0.00003936,0.00072693,0.,0.01706507,0.01151569,0.,-0.11489199,-0.1189
 3694,-0.00000005,0.00037759,0.00020197,0.,0.00000278,-0.00004544,0.000
 04434,0.00000278,-0.00004544,-0.00004434,0.00044593,0.00086179,0.,-0.0
 0010802,0.00000732,0.00000722,-0.00010801,0.00000732,-0.00000722,-0.00
 000579,-0.00000005,0.,-0.00001128,-0.00001583,0.,-0.00027035,0.0008367
 5,0.,0.12250502,0.12292034,0.,0.,-0.00090934,0.,-0.00000001,0.00573970
 ,0.,0.,-0.00059997,0.,0.,0.00929925,0.,0.,0.00021495,-0.00000002,-0.00
 000002,0.00238330,0.,0.,-0.00021916,0.,0.,0.00014702,0.,0.,0.00020635,
 0.,0.,0.00337768,-0.00000009,-0.00000005,-0.03734161,0.,0.,-0.00063361
 ,0.00000478,0.00001041,-0.00000401,-0.00000478,-0.00001041,-0.00000401
 ,0.,0.,-0.00275892,-0.00006196,0.00001451,0.00001543,0.00006196,-0.000
 01451,0.00001543,0.,0.,0.00007316,0.,0.,0.00015290,0.,0.,-0.00510189,0
 .00000010,0.00000007,0.02600553,0.00015106,-0.00079742,0.,0.00022003,0
 .00002086,0.,0.00163081,-0.00027863,0.,-0.00289569,-0.00400771,0.,-0.0
 0002854,0.00004341,0.,0.00000634,-0.00018189,0.,0.00008509,-0.00018292
 ,0.,0.00260959,-0.00215788,0.,-0.01909813,0.01492619,0.,-0.00034941,0.
 00115723,0.,-0.00048146,-0.00020826,0.,-0.28093366,0.11397105,-0.00000
 008,-0.00000507,0.00002431,-0.00000529,-0.00000507,0.00002431,0.000005
 29,-0.00002208,0.00001534,0.,-0.00001407,0.00003233,0.00000430,-0.0000
 1407,0.00003233,-0.00000430,0.00071804,0.00044120,0.,0.00084754,-0.000
 38223,0.,-0.00001426,-0.00005878,0.,-0.00011724,0.00007221,0.,0.297710
 26,-0.00115566,-0.00053926,0.,0.00043307,-0.00006150,0.,-0.00041501,-0
 .00630624,0.00000002,-0.00369103,-0.00171336,0.,-0.00002483,-0.0003411
 1,0.,-0.00015771,-0.00031504,0.,0.00117475,0.00028768,0.,0.02895172,-0
 .00910440,0.,-0.01706507,0.01151569,0.,-0.00003936,0.00072693,0.,-0.00
 037759,0.00020197,0.,0.11489200,-0.11893695,0.00000005,0.00010802,0.00
 000732,-0.00000722,0.00010801,0.00000732,0.00000722,0.00000579,-0.0000
 0005,0.,-0.00000278,-0.00004544,-0.00004434,-0.00000278,-0.00004544,0.
 00004434,-0.00044593,0.00086179,0.,0.00027035,0.00083675,0.,0.00001128
 ,-0.00001583,0.,-0.00007221,0.00005881,0.,-0.12250503,0.12292035,0.,0.
 ,-0.00090934,0.,0.,-0.00059997,0.,0.00000001,0.00573970,0.,0.,0.009299
 25,0.,0.,-0.00021916,0.,0.,0.00014702,0.,0.,0.00021495,-0.00000002,0.0
 0000002,0.00238330,0.,0.,0.00337768,0.,0.,0.00020635,0.,0.,-0.00063361
 ,-0.00000008,0.00000005,-0.03734161,-0.00006196,-0.00001451,0.00001543
 ,0.00006196,0.00001451,0.00001543,0.,0.,0.00007316,0.00000478,-0.00001
 041,-0.00000401,-0.00000478,0.00001041,-0.00000401,0.,0.,-0.00275892,0
 .,0.,-0.00510189,0.,0.,0.00015290,0.,0.,-0.00005817,0.00000009,-0.0000
 0006,0.02600553\\0.,-0.00000115,0.,-0.00000050,0.00000016,0.00000001,0
 .00000049,0.00000016,-0.00000001,0.,0.00000085,0.,0.00000140,0.0000000
 7,-0.00000007,-0.00000044,0.00000062,0.,-0.00000140,0.00000007,0.00000
 007,0.00000044,0.00000062,0.,0.00000062,-0.00000022,0.,-0.00000062,-0.
 00000022,0.,0.00000024,-0.00000011,0.,-0.00000024,-0.00000010,0.,-0.00
 000025,0.,-0.00000002,-0.00000024,-0.00000003,0.00000006,0.00000023,-0
 .00000019,0.,0.00000025,0.,0.00000002,0.00000024,-0.00000003,-0.000000
 06,-0.00000024,-0.00000019,0.,0.00000013,0.00000004,0.,-0.00000013,0.0
 0000004,0.,0.00000010,-0.00000019,0.,-0.00000010,-0.00000019,0.\\\@


 IN THE UNIVERSE THE DIFFICULT THINGS ARE DONE AS IF THEY WERE EASY.

                                                          -- LAO-TSU
 Job cpu time:       0 days 10 hours 12 minutes  0.0 seconds.
 File lengths (MBytes):  RWF=    330 Int=      0 D2E=      0 Chk=     15 Scr=      1
 Normal termination of Gaussian 09 at Fri Jul  9 20:37:27 2021.
