 Entering Gaussian System, Link 0=g09
 Initial command:
 /home/minenky/programs//g09/l1.exe "/local/scratch/minenky/m1_00_313-97-3-C32H18_wB97XD/Gau-43854.inp" -scrdir="/local/scratch/minenky/m1_00_313-97-3-C32H18_wB97XD/"
 Entering Link 1 = /home/minenky/programs//g09/l1.exe PID=     43855.
  
 Copyright (c) 1988,1990,1992,1993,1995,1998,2003,2009,2013,
            Gaussian, Inc.  All Rights Reserved.
  
 This is part of the Gaussian(R) 09 program.  It is based on
 the Gaussian(R) 03 system (copyright 2003, Gaussian, Inc.),
 the Gaussian(R) 98 system (copyright 1998, Gaussian, Inc.),
 the Gaussian(R) 94 system (copyright 1995, Gaussian, Inc.),
 the Gaussian 92(TM) system (copyright 1992, Gaussian, Inc.),
 the Gaussian 90(TM) system (copyright 1990, Gaussian, Inc.),
 the Gaussian 88(TM) system (copyright 1988, Gaussian, Inc.),
 the Gaussian 86(TM) system (copyright 1986, Carnegie Mellon
 University), and the Gaussian 82(TM) system (copyright 1983,
 Carnegie Mellon University). Gaussian is a federally registered
 trademark of Gaussian, Inc.
  
 This software contains proprietary and confidential information,
 including trade secrets, belonging to Gaussian, Inc.
  
 This software is provided under written license and may be
 used, copied, transmitted, or stored only in accord with that
 written license.
  
 The following legend is applicable only to US Government
 contracts under FAR:
  
                    RESTRICTED RIGHTS LEGEND
  
 Use, reproduction and disclosure by the US Government is
 subject to restrictions as set forth in subparagraphs (a)
 and (c) of the Commercial Computer Software - Restricted
 Rights clause in FAR 52.227-19.
  
 Gaussian, Inc.
 340 Quinnipiac St., Bldg. 40, Wallingford CT 06492
  
  
 ---------------------------------------------------------------
 Warning -- This program may not be used in any manner that
 competes with the business of Gaussian, Inc. or will provide
 assistance to any competitor of Gaussian, Inc.  The licensee
 of this program is prohibited from giving any competitor of
 Gaussian, Inc. access to this program.  By using this program,
 the user acknowledges that Gaussian, Inc. is engaged in the
 business of creating and licensing software in the field of
 computational chemistry and represents and warrants to the
 licensee that it is not a competitor of Gaussian, Inc. and that
 it will not use this program in any manner prohibited above.
 ---------------------------------------------------------------
  

 Cite this work as:
 Gaussian 09, Revision D.01,
 M. J. Frisch, G. W. Trucks, H. B. Schlegel, G. E. Scuseria, 
 M. A. Robb, J. R. Cheeseman, G. Scalmani, V. Barone, B. Mennucci, 
 G. A. Petersson, H. Nakatsuji, M. Caricato, X. Li, H. P. Hratchian, 
 A. F. Izmaylov, J. Bloino, G. Zheng, J. L. Sonnenberg, M. Hada, 
 M. Ehara, K. Toyota, R. Fukuda, J. Hasegawa, M. Ishida, T. Nakajima, 
 Y. Honda, O. Kitao, H. Nakai, T. Vreven, J. A. Montgomery, Jr., 
 J. E. Peralta, F. Ogliaro, M. Bearpark, J. J. Heyd, E. Brothers, 
 K. N. Kudin, V. N. Staroverov, T. Keith, R. Kobayashi, J. Normand, 
 K. Raghavachari, A. Rendell, J. C. Burant, S. S. Iyengar, J. Tomasi, 
 M. Cossi, N. Rega, J. M. Millam, M. Klene, J. E. Knox, J. B. Cross, 
 V. Bakken, C. Adamo, J. Jaramillo, R. Gomperts, R. E. Stratmann, 
 O. Yazyev, A. J. Austin, R. Cammi, C. Pomelli, J. W. Ochterski, 
 R. L. Martin, K. Morokuma, V. G. Zakrzewski, G. A. Voth, 
 P. Salvador, J. J. Dannenberg, S. Dapprich, A. D. Daniels, 
 O. Farkas, J. B. Foresman, J. V. Ortiz, J. Cioslowski, 
 and D. J. Fox, Gaussian, Inc., Wallingford CT, 2013.
 
 ******************************************
 Gaussian 09:  AM64L-G09RevD.01 24-Apr-2013
                30-Jul-2019 
 ******************************************
 %Mem=32000MB
 %NProcShared=16
 Will use up to   16 processors via shared memory.
 %Chk=m1_00_313-97-3-C32H18_wB97XD
 ----------------------------------------------------------------------
 #P wB97XD/def2tzvp opt=(tight) freq integral(Grid=ultrafine) # SCF(Max
 Cycle=380) 5d 7f GFPrint
 ----------------------------------------------------------------------
 1/7=10,14=-1,18=20,19=15,26=4,38=1/1,3;
 2/9=110,12=2,17=6,18=5,40=1/2;
 3/5=44,7=101,8=11,11=2,16=1,24=100,25=1,30=1,71=1,74=-58,75=-5/1,2,3;
 4//1;
 5/5=2,7=380,38=5/2;
 6/7=2,8=2,9=2,10=2,28=1/1;
 7//1,2,3,16;
 1/7=10,14=-1,18=20,19=15,26=4/3(2);
 2/9=110/2;
 99//99;
 2/9=110/2;
 3/5=44,7=101,8=11,11=2,16=1,25=1,30=1,71=1,74=-58,75=-5/1,2,3;
 4/5=5,16=3,69=1/1;
 5/5=2,7=380,38=5/2;
 7//1,2,3,16;
 1/7=10,14=-1,18=20,19=15,26=4/3(-5);
 2/9=110/2;
 6/7=2,8=2,9=2,10=2,19=2,28=1/1;
 99/9=1/99;
 Leave Link    1 at Tue Jul 30 09:34:56 2019, MaxMem=  4194304000 cpu:         1.4
 (Enter /home/minenky/programs//g09/l101.exe)
 ---------------------------------------
 The PBEPBE optimization and frequencies
 ---------------------------------------
 Symbolic Z-matrix:
 Charge =  0 Multiplicity = 1
 C                     0.98357   7.30478  -0.1347 
 C                    -0.41252   7.39579  -0.07184 
 C                    -1.18227   6.25832  -0.01796 
 C                     1.57998   6.07151  -0.14368 
 C                     0.8085    4.89419  -0.0898 
 C                    -0.5989    4.97994  -0.02694 
 C                     1.43496   3.6157   -0.09878 
 C                     0.71884   2.46064  -0.0449 
 C                    -0.73188  -0.00275   0.0449 
 C                    -1.38185  -1.18226  -0.02694 
 C                    -0.71884  -2.46064  -0.0449 
 C                    -1.43496  -3.6157   -0.09878 
 C                     0.5989   -4.97994  -0.02694 
 C                    -0.8085   -4.8942   -0.0898 
 C                    -1.57997  -6.07152  -0.14368 
 C                    -0.98356  -7.30478  -0.1347 
 C                     0.41252  -7.39579  -0.07184 
 C                     1.18227  -6.25832  -0.01796 
 C                    -0.71884   2.50393   0.01796 
 C                    -1.38047   3.75155   0.03592 
 C                    -2.78091   3.76106   0.10776 
 C                    -3.48975   2.5844    0.18859 
 C                    -2.83217   1.36127   0.17961 
 C                    -1.44868   1.29217   0.08082 
 C                     1.38185   1.18225  -0.02694 
 C                     0.73187   0.00275   0.0449 
 C                     1.44867  -1.29217   0.08082 
 C                     0.71884  -2.50393   0.01796 
 C                     1.38047  -3.75154   0.03592 
 C                     2.78091  -3.76105   0.10776 
 C                     3.48975  -2.58439   0.18859 
 C                     2.83216  -1.36127   0.17961 
 H                     1.5865    8.20379  -0.17961 
 H                    -0.89042   8.36712  -0.06286 
 H                    -2.2577    6.36549   0.02694 
 H                     2.66024   5.98522  -0.19757 
 H                     2.51872   3.57345  -0.14368 
 H                    -2.46288  -1.21733  -0.07184 
 H                    -2.51872  -3.57345  -0.14368 
 H                    -2.66023  -5.98522  -0.19757 
 H                    -1.5865   -8.20379  -0.17961 
 H                     0.89042  -8.36712  -0.06286 
 H                     2.25771  -6.36549   0.02694 
 H                    -3.32275   4.69564   0.12572 
 H                    -4.57207   2.60776   0.26043 
 H                    -3.42962   0.46114   0.25145 
 H                     2.46288   1.21732  -0.07184 
 H                     3.32275  -4.69564   0.12572 
 H                     4.57207  -2.60775   0.26043 
 H                     3.42961  -0.46113   0.25145 
 
 NAtoms=     50 NQM=       50 NQMF=       0 NMMI=      0 NMMIF=      0
                NMic=       0 NMicF=      0.
                    Isotopes and Nuclear Properties:
 (Nuclear quadrupole moments (NQMom) in fm**2, nuclear magnetic moments (NMagM)
  in nuclear magnetons)

  Atom         1           2           3           4           5           6           7           8           9          10
 IAtWgt=          12          12          12          12          12          12          12          12          12          12
 AtmWgt=  12.0000000  12.0000000  12.0000000  12.0000000  12.0000000  12.0000000  12.0000000  12.0000000  12.0000000  12.0000000
 NucSpn=           0           0           0           0           0           0           0           0           0           0
 AtZEff=   0.0000000   0.0000000   0.0000000   0.0000000   0.0000000   0.0000000   0.0000000   0.0000000   0.0000000   0.0000000
 NQMom=    0.0000000   0.0000000   0.0000000   0.0000000   0.0000000   0.0000000   0.0000000   0.0000000   0.0000000   0.0000000
 NMagM=    0.0000000   0.0000000   0.0000000   0.0000000   0.0000000   0.0000000   0.0000000   0.0000000   0.0000000   0.0000000
 AtZNuc=   6.0000000   6.0000000   6.0000000   6.0000000   6.0000000   6.0000000   6.0000000   6.0000000   6.0000000   6.0000000

  Atom        11          12          13          14          15          16          17          18          19          20
 IAtWgt=          12          12          12          12          12          12          12          12          12          12
 AtmWgt=  12.0000000  12.0000000  12.0000000  12.0000000  12.0000000  12.0000000  12.0000000  12.0000000  12.0000000  12.0000000
 NucSpn=           0           0           0           0           0           0           0           0           0           0
 AtZEff=   0.0000000   0.0000000   0.0000000   0.0000000   0.0000000   0.0000000   0.0000000   0.0000000   0.0000000   0.0000000
 NQMom=    0.0000000   0.0000000   0.0000000   0.0000000   0.0000000   0.0000000   0.0000000   0.0000000   0.0000000   0.0000000
 NMagM=    0.0000000   0.0000000   0.0000000   0.0000000   0.0000000   0.0000000   0.0000000   0.0000000   0.0000000   0.0000000
 AtZNuc=   6.0000000   6.0000000   6.0000000   6.0000000   6.0000000   6.0000000   6.0000000   6.0000000   6.0000000   6.0000000

  Atom        21          22          23          24          25          26          27          28          29          30
 IAtWgt=          12          12          12          12          12          12          12          12          12          12
 AtmWgt=  12.0000000  12.0000000  12.0000000  12.0000000  12.0000000  12.0000000  12.0000000  12.0000000  12.0000000  12.0000000
 NucSpn=           0           0           0           0           0           0           0           0           0           0
 AtZEff=   0.0000000   0.0000000   0.0000000   0.0000000   0.0000000   0.0000000   0.0000000   0.0000000   0.0000000   0.0000000
 NQMom=    0.0000000   0.0000000   0.0000000   0.0000000   0.0000000   0.0000000   0.0000000   0.0000000   0.0000000   0.0000000
 NMagM=    0.0000000   0.0000000   0.0000000   0.0000000   0.0000000   0.0000000   0.0000000   0.0000000   0.0000000   0.0000000
 AtZNuc=   6.0000000   6.0000000   6.0000000   6.0000000   6.0000000   6.0000000   6.0000000   6.0000000   6.0000000   6.0000000

  Atom        31          32          33          34          35          36          37          38          39          40
 IAtWgt=          12          12           1           1           1           1           1           1           1           1
 AtmWgt=  12.0000000  12.0000000   1.0078250   1.0078250   1.0078250   1.0078250   1.0078250   1.0078250   1.0078250   1.0078250
 NucSpn=           0           0           1           1           1           1           1           1           1           1
 AtZEff=   0.0000000   0.0000000   0.0000000   0.0000000   0.0000000   0.0000000   0.0000000   0.0000000   0.0000000   0.0000000
 NQMom=    0.0000000   0.0000000   0.0000000   0.0000000   0.0000000   0.0000000   0.0000000   0.0000000   0.0000000   0.0000000
 NMagM=    0.0000000   0.0000000   2.7928460   2.7928460   2.7928460   2.7928460   2.7928460   2.7928460   2.7928460   2.7928460
 AtZNuc=   6.0000000   6.0000000   1.0000000   1.0000000   1.0000000   1.0000000   1.0000000   1.0000000   1.0000000   1.0000000

  Atom        41          42          43          44          45          46          47          48          49          50
 IAtWgt=           1           1           1           1           1           1           1           1           1           1
 AtmWgt=   1.0078250   1.0078250   1.0078250   1.0078250   1.0078250   1.0078250   1.0078250   1.0078250   1.0078250   1.0078250
 NucSpn=           1           1           1           1           1           1           1           1           1           1
 AtZEff=   0.0000000   0.0000000   0.0000000   0.0000000   0.0000000   0.0000000   0.0000000   0.0000000   0.0000000   0.0000000
 NQMom=    0.0000000   0.0000000   0.0000000   0.0000000   0.0000000   0.0000000   0.0000000   0.0000000   0.0000000   0.0000000
 NMagM=    2.7928460   2.7928460   2.7928460   2.7928460   2.7928460   2.7928460   2.7928460   2.7928460   2.7928460   2.7928460
 AtZNuc=   1.0000000   1.0000000   1.0000000   1.0000000   1.0000000   1.0000000   1.0000000   1.0000000   1.0000000   1.0000000
 Leave Link  101 at Tue Jul 30 09:34:57 2019, MaxMem=  4194304000 cpu:         6.9
 (Enter /home/minenky/programs//g09/l103.exe)

 GradGradGradGradGradGradGradGradGradGradGradGradGradGradGradGradGradGrad
 Berny optimization.
 Initialization pass.
                           ----------------------------
                           !    Initial Parameters    !
                           ! (Angstroms and Degrees)  !
 --------------------------                            --------------------------
 ! Name  Definition              Value          Derivative Info.                !
 --------------------------------------------------------------------------------
 ! R1    R(1,2)                  1.4005         estimate D2E/DX2                !
 ! R2    R(1,4)                  1.3699         estimate D2E/DX2                !
 ! R3    R(1,33)                 1.0834         estimate D2E/DX2                !
 ! R4    R(2,3)                  1.3745         estimate D2E/DX2                !
 ! R5    R(2,34)                 1.0826         estimate D2E/DX2                !
 ! R6    R(3,6)                  1.4052         estimate D2E/DX2                !
 ! R7    R(3,35)                 1.0817         estimate D2E/DX2                !
 ! R8    R(4,5)                  1.4086         estimate D2E/DX2                !
 ! R9    R(4,36)                 1.085          estimate D2E/DX2                !
 ! R10   R(5,6)                  1.4114         estimate D2E/DX2                !
 ! R11   R(5,7)                  1.4238         estimate D2E/DX2                !
 ! R12   R(6,20)                 1.4573         estimate D2E/DX2                !
 ! R13   R(7,8)                  1.3601         estimate D2E/DX2                !
 ! R14   R(7,37)                 1.0855         estimate D2E/DX2                !
 ! R15   R(8,19)                 1.4397         estimate D2E/DX2                !
 ! R16   R(8,25)                 1.4402         estimate D2E/DX2                !
 ! R17   R(9,10)                 1.3486         estimate D2E/DX2                !
 ! R18   R(9,24)                 1.4805         estimate D2E/DX2                !
 ! R19   R(9,26)                 1.4638         estimate D2E/DX2                !
 ! R20   R(10,11)                1.4402         estimate D2E/DX2                !
 ! R21   R(10,38)                1.0825         estimate D2E/DX2                !
 ! R22   R(11,12)                1.3601         estimate D2E/DX2                !
 ! R23   R(11,28)                1.4397         estimate D2E/DX2                !
 ! R24   R(12,14)                1.4238         estimate D2E/DX2                !
 ! R25   R(12,39)                1.0855         estimate D2E/DX2                !
 ! R26   R(13,14)                1.4114         estimate D2E/DX2                !
 ! R27   R(13,18)                1.4052         estimate D2E/DX2                !
 ! R28   R(13,29)                1.4573         estimate D2E/DX2                !
 ! R29   R(14,15)                1.4086         estimate D2E/DX2                !
 ! R30   R(15,16)                1.3699         estimate D2E/DX2                !
 ! R31   R(15,40)                1.085          estimate D2E/DX2                !
 ! R32   R(16,17)                1.4005         estimate D2E/DX2                !
 ! R33   R(16,41)                1.0834         estimate D2E/DX2                !
 ! R34   R(17,18)                1.3745         estimate D2E/DX2                !
 ! R35   R(17,42)                1.0826         estimate D2E/DX2                !
 ! R36   R(18,43)                1.0817         estimate D2E/DX2                !
 ! R37   R(19,20)                1.4123         estimate D2E/DX2                !
 ! R38   R(19,24)                1.416          estimate D2E/DX2                !
 ! R39   R(20,21)                1.4023         estimate D2E/DX2                !
 ! R40   R(21,22)                1.3761         estimate D2E/DX2                !
 ! R41   R(21,44)                1.0804         estimate D2E/DX2                !
 ! R42   R(22,23)                1.3887         estimate D2E/DX2                !
 ! R43   R(22,45)                1.085          estimate D2E/DX2                !
 ! R44   R(23,24)                1.3887         estimate D2E/DX2                !
 ! R45   R(23,46)                1.0828         estimate D2E/DX2                !
 ! R46   R(25,26)                1.3486         estimate D2E/DX2                !
 ! R47   R(25,47)                1.0825         estimate D2E/DX2                !
 ! R48   R(26,27)                1.4805         estimate D2E/DX2                !
 ! R49   R(27,28)                1.416          estimate D2E/DX2                !
 ! R50   R(27,32)                1.3887         estimate D2E/DX2                !
 ! R51   R(28,29)                1.4123         estimate D2E/DX2                !
 ! R52   R(29,30)                1.4023         estimate D2E/DX2                !
 ! R53   R(30,31)                1.3761         estimate D2E/DX2                !
 ! R54   R(30,48)                1.0804         estimate D2E/DX2                !
 ! R55   R(31,32)                1.3887         estimate D2E/DX2                !
 ! R56   R(31,49)                1.085          estimate D2E/DX2                !
 ! R57   R(32,50)                1.0828         estimate D2E/DX2                !
 ! A1    A(2,1,4)              119.5243         estimate D2E/DX2                !
 ! A2    A(2,1,33)             120.1796         estimate D2E/DX2                !
 ! A3    A(4,1,33)             120.2957         estimate D2E/DX2                !
 ! A4    A(1,2,3)              120.4144         estimate D2E/DX2                !
 ! A5    A(1,2,34)             119.9174         estimate D2E/DX2                !
 ! A6    A(3,2,34)             119.668          estimate D2E/DX2                !
 ! A7    A(2,3,6)              121.3395         estimate D2E/DX2                !
 ! A8    A(2,3,35)             118.4515         estimate D2E/DX2                !
 ! A9    A(6,3,35)             120.2082         estimate D2E/DX2                !
 ! A10   A(1,4,5)              120.913          estimate D2E/DX2                !
 ! A11   A(1,4,36)             120.3552         estimate D2E/DX2                !
 ! A12   A(5,4,36)             118.7311         estimate D2E/DX2                !
 ! A13   A(4,5,6)              119.8054         estimate D2E/DX2                !
 ! A14   A(4,5,7)              120.6179         estimate D2E/DX2                !
 ! A15   A(6,5,7)              119.5766         estimate D2E/DX2                !
 ! A16   A(3,6,5)              118.0032         estimate D2E/DX2                !
 ! A17   A(3,6,20)             122.9501         estimate D2E/DX2                !
 ! A18   A(5,6,20)             119.0449         estimate D2E/DX2                !
 ! A19   A(5,7,8)              122.0516         estimate D2E/DX2                !
 ! A20   A(5,7,37)             118.327          estimate D2E/DX2                !
 ! A21   A(8,7,37)             119.6202         estimate D2E/DX2                !
 ! A22   A(7,8,19)             120.1301         estimate D2E/DX2                !
 ! A23   A(7,8,25)             120.7929         estimate D2E/DX2                !
 ! A24   A(19,8,25)            119.0687         estimate D2E/DX2                !
 ! A25   A(10,9,24)            122.2018         estimate D2E/DX2                !
 ! A26   A(10,9,26)            119.0276         estimate D2E/DX2                !
 ! A27   A(24,9,26)            118.7419         estimate D2E/DX2                !
 ! A28   A(9,10,11)            123.7187         estimate D2E/DX2                !
 ! A29   A(9,10,38)            120.7851         estimate D2E/DX2                !
 ! A30   A(11,10,38)           115.4958         estimate D2E/DX2                !
 ! A31   A(10,11,12)           120.793          estimate D2E/DX2                !
 ! A32   A(10,11,28)           119.0687         estimate D2E/DX2                !
 ! A33   A(12,11,28)           120.13           estimate D2E/DX2                !
 ! A34   A(11,12,14)           122.0516         estimate D2E/DX2                !
 ! A35   A(11,12,39)           119.6201         estimate D2E/DX2                !
 ! A36   A(14,12,39)           118.327          estimate D2E/DX2                !
 ! A37   A(14,13,18)           118.0033         estimate D2E/DX2                !
 ! A38   A(14,13,29)           119.0449         estimate D2E/DX2                !
 ! A39   A(18,13,29)           122.9501         estimate D2E/DX2                !
 ! A40   A(12,14,13)           119.5767         estimate D2E/DX2                !
 ! A41   A(12,14,15)           120.618          estimate D2E/DX2                !
 ! A42   A(13,14,15)           119.8053         estimate D2E/DX2                !
 ! A43   A(14,15,16)           120.913          estimate D2E/DX2                !
 ! A44   A(14,15,40)           118.7311         estimate D2E/DX2                !
 ! A45   A(16,15,40)           120.3553         estimate D2E/DX2                !
 ! A46   A(15,16,17)           119.5243         estimate D2E/DX2                !
 ! A47   A(15,16,41)           120.2957         estimate D2E/DX2                !
 ! A48   A(17,16,41)           120.1797         estimate D2E/DX2                !
 ! A49   A(16,17,18)           120.4144         estimate D2E/DX2                !
 ! A50   A(16,17,42)           119.9174         estimate D2E/DX2                !
 ! A51   A(18,17,42)           119.668          estimate D2E/DX2                !
 ! A52   A(13,18,17)           121.3395         estimate D2E/DX2                !
 ! A53   A(13,18,43)           120.2083         estimate D2E/DX2                !
 ! A54   A(17,18,43)           118.4515         estimate D2E/DX2                !
 ! A55   A(8,19,20)            119.6652         estimate D2E/DX2                !
 ! A56   A(8,19,24)            119.4004         estimate D2E/DX2                !
 ! A57   A(20,19,24)           120.9278         estimate D2E/DX2                !
 ! A58   A(6,20,19)            119.5268         estimate D2E/DX2                !
 ! A59   A(6,20,21)            122.1464         estimate D2E/DX2                !
 ! A60   A(19,20,21)           118.3261         estimate D2E/DX2                !
 ! A61   A(20,21,22)           120.7738         estimate D2E/DX2                !
 ! A62   A(20,21,44)           120.5005         estimate D2E/DX2                !
 ! A63   A(22,21,44)           118.7081         estimate D2E/DX2                !
 ! A64   A(21,22,23)           120.586          estimate D2E/DX2                !
 ! A65   A(21,22,45)           119.9574         estimate D2E/DX2                !
 ! A66   A(23,22,45)           119.4566         estimate D2E/DX2                !
 ! A67   A(22,23,24)           121.0658         estimate D2E/DX2                !
 ! A68   A(22,23,46)           118.0667         estimate D2E/DX2                !
 ! A69   A(24,23,46)           120.8675         estimate D2E/DX2                !
 ! A70   A(9,24,19)            119.8596         estimate D2E/DX2                !
 ! A71   A(9,24,23)            121.8422         estimate D2E/DX2                !
 ! A72   A(19,24,23)           118.2978         estimate D2E/DX2                !
 ! A73   A(8,25,26)            123.7187         estimate D2E/DX2                !
 ! A74   A(8,25,47)            115.4959         estimate D2E/DX2                !
 ! A75   A(26,25,47)           120.785          estimate D2E/DX2                !
 ! A76   A(9,26,25)            119.0276         estimate D2E/DX2                !
 ! A77   A(9,26,27)            118.7419         estimate D2E/DX2                !
 ! A78   A(25,26,27)           122.2017         estimate D2E/DX2                !
 ! A79   A(26,27,28)           119.8597         estimate D2E/DX2                !
 ! A80   A(26,27,32)           121.842          estimate D2E/DX2                !
 ! A81   A(28,27,32)           118.298          estimate D2E/DX2                !
 ! A82   A(11,28,27)           119.4003         estimate D2E/DX2                !
 ! A83   A(11,28,29)           119.6653         estimate D2E/DX2                !
 ! A84   A(27,28,29)           120.9278         estimate D2E/DX2                !
 ! A85   A(13,29,28)           119.5267         estimate D2E/DX2                !
 ! A86   A(13,29,30)           122.1464         estimate D2E/DX2                !
 ! A87   A(28,29,30)           118.3261         estimate D2E/DX2                !
 ! A88   A(29,30,31)           120.7738         estimate D2E/DX2                !
 ! A89   A(29,30,48)           120.5004         estimate D2E/DX2                !
 ! A90   A(31,30,48)           118.7081         estimate D2E/DX2                !
 ! A91   A(30,31,32)           120.586          estimate D2E/DX2                !
 ! A92   A(30,31,49)           119.9574         estimate D2E/DX2                !
 ! A93   A(32,31,49)           119.4566         estimate D2E/DX2                !
 ! A94   A(27,32,31)           121.0657         estimate D2E/DX2                !
 ! A95   A(27,32,50)           120.8675         estimate D2E/DX2                !
 ! A96   A(31,32,50)           118.0668         estimate D2E/DX2                !
 ! D1    D(4,1,2,3)              0.0699         estimate D2E/DX2                !
 ! D2    D(4,1,2,34)           179.9066         estimate D2E/DX2                !
 ! D3    D(33,1,2,3)           179.8432         estimate D2E/DX2                !
 ! D4    D(33,1,2,34)           -0.3202         estimate D2E/DX2                !
 ! D5    D(2,1,4,5)             -0.0366         estimate D2E/DX2                !
 ! D6    D(2,1,4,36)           179.6652         estimate D2E/DX2                !
 ! D7    D(33,1,4,5)          -179.8096         estimate D2E/DX2                !
 ! D8    D(33,1,4,36)           -0.1078         estimate D2E/DX2                !
 ! D9    D(1,2,3,6)             -0.1329         estimate D2E/DX2                !
 ! D10   D(1,2,3,35)          -179.8241         estimate D2E/DX2                !
 ! D11   D(34,2,3,6)          -179.97           estimate D2E/DX2                !
 ! D12   D(34,2,3,35)            0.3388         estimate D2E/DX2                !
 ! D13   D(2,3,6,5)              0.1573         estimate D2E/DX2                !
 ! D14   D(2,3,6,20)           179.6697         estimate D2E/DX2                !
 ! D15   D(35,3,6,5)           179.8432         estimate D2E/DX2                !
 ! D16   D(35,3,6,20)           -0.6445         estimate D2E/DX2                !
 ! D17   D(1,4,5,6)              0.0648         estimate D2E/DX2                !
 ! D18   D(1,4,5,7)           -179.9668         estimate D2E/DX2                !
 ! D19   D(36,4,5,6)          -179.6417         estimate D2E/DX2                !
 ! D20   D(36,4,5,7)             0.3266         estimate D2E/DX2                !
 ! D21   D(4,5,6,3)             -0.1218         estimate D2E/DX2                !
 ! D22   D(4,5,6,20)          -179.6537         estimate D2E/DX2                !
 ! D23   D(7,5,6,3)            179.9095         estimate D2E/DX2                !
 ! D24   D(7,5,6,20)             0.3776         estimate D2E/DX2                !
 ! D25   D(4,5,7,8)            179.8561         estimate D2E/DX2                !
 ! D26   D(4,5,7,37)             0.2633         estimate D2E/DX2                !
 ! D27   D(6,5,7,8)             -0.1754         estimate D2E/DX2                !
 ! D28   D(6,5,7,37)          -179.7683         estimate D2E/DX2                !
 ! D29   D(3,6,20,19)          179.8007         estimate D2E/DX2                !
 ! D30   D(3,6,20,21)            0.1248         estimate D2E/DX2                !
 ! D31   D(5,6,20,19)           -0.6918         estimate D2E/DX2                !
 ! D32   D(5,6,20,21)          179.6323         estimate D2E/DX2                !
 ! D33   D(5,7,8,19)             0.2727         estimate D2E/DX2                !
 ! D34   D(5,7,8,25)          -178.672          estimate D2E/DX2                !
 ! D35   D(37,7,8,19)          179.8605         estimate D2E/DX2                !
 ! D36   D(37,7,8,25)            0.9157         estimate D2E/DX2                !
 ! D37   D(7,8,19,20)           -0.5867         estimate D2E/DX2                !
 ! D38   D(7,8,19,24)         -179.662          estimate D2E/DX2                !
 ! D39   D(25,8,19,20)         178.3762         estimate D2E/DX2                !
 ! D40   D(25,8,19,24)          -0.6992         estimate D2E/DX2                !
 ! D41   D(7,8,25,26)          179.0227         estimate D2E/DX2                !
 ! D42   D(7,8,25,47)           -0.758          estimate D2E/DX2                !
 ! D43   D(19,8,25,26)           0.067          estimate D2E/DX2                !
 ! D44   D(19,8,25,47)        -179.7138         estimate D2E/DX2                !
 ! D45   D(24,9,10,11)        -179.1            estimate D2E/DX2                !
 ! D46   D(24,9,10,38)           0.6696         estimate D2E/DX2                !
 ! D47   D(26,9,10,11)           2.8761         estimate D2E/DX2                !
 ! D48   D(26,9,10,38)        -177.3543         estimate D2E/DX2                !
 ! D49   D(10,9,24,19)        -173.5319         estimate D2E/DX2                !
 ! D50   D(10,9,24,23)           6.6718         estimate D2E/DX2                !
 ! D51   D(26,9,24,19)           4.4975         estimate D2E/DX2                !
 ! D52   D(26,9,24,23)        -175.2989         estimate D2E/DX2                !
 ! D53   D(10,9,26,25)         173.0145         estimate D2E/DX2                !
 ! D54   D(10,9,26,27)          -5.0785         estimate D2E/DX2                !
 ! D55   D(24,9,26,25)          -5.0785         estimate D2E/DX2                !
 ! D56   D(24,9,26,27)         176.8286         estimate D2E/DX2                !
 ! D57   D(9,10,11,12)         179.0227         estimate D2E/DX2                !
 ! D58   D(9,10,11,28)           0.067          estimate D2E/DX2                !
 ! D59   D(38,10,11,12)         -0.758          estimate D2E/DX2                !
 ! D60   D(38,10,11,28)       -179.7138         estimate D2E/DX2                !
 ! D61   D(10,11,12,14)       -178.672          estimate D2E/DX2                !
 ! D62   D(10,11,12,39)          0.9157         estimate D2E/DX2                !
 ! D63   D(28,11,12,14)          0.2727         estimate D2E/DX2                !
 ! D64   D(28,11,12,39)        179.8604         estimate D2E/DX2                !
 ! D65   D(10,11,28,27)         -0.6992         estimate D2E/DX2                !
 ! D66   D(10,11,28,29)        178.3762         estimate D2E/DX2                !
 ! D67   D(12,11,28,27)       -179.662          estimate D2E/DX2                !
 ! D68   D(12,11,28,29)         -0.5867         estimate D2E/DX2                !
 ! D69   D(11,12,14,13)         -0.1754         estimate D2E/DX2                !
 ! D70   D(11,12,14,15)        179.8561         estimate D2E/DX2                !
 ! D71   D(39,12,14,13)       -179.7682         estimate D2E/DX2                !
 ! D72   D(39,12,14,15)          0.2633         estimate D2E/DX2                !
 ! D73   D(18,13,14,12)        179.9095         estimate D2E/DX2                !
 ! D74   D(18,13,14,15)         -0.1218         estimate D2E/DX2                !
 ! D75   D(29,13,14,12)          0.3776         estimate D2E/DX2                !
 ! D76   D(29,13,14,15)       -179.6537         estimate D2E/DX2                !
 ! D77   D(14,13,18,17)          0.1573         estimate D2E/DX2                !
 ! D78   D(14,13,18,43)        179.8432         estimate D2E/DX2                !
 ! D79   D(29,13,18,17)        179.6697         estimate D2E/DX2                !
 ! D80   D(29,13,18,43)         -0.6445         estimate D2E/DX2                !
 ! D81   D(14,13,29,28)         -0.6918         estimate D2E/DX2                !
 ! D82   D(14,13,29,30)        179.6323         estimate D2E/DX2                !
 ! D83   D(18,13,29,28)        179.8007         estimate D2E/DX2                !
 ! D84   D(18,13,29,30)          0.1248         estimate D2E/DX2                !
 ! D85   D(12,14,15,16)       -179.9668         estimate D2E/DX2                !
 ! D86   D(12,14,15,40)          0.3266         estimate D2E/DX2                !
 ! D87   D(13,14,15,16)          0.0648         estimate D2E/DX2                !
 ! D88   D(13,14,15,40)       -179.6417         estimate D2E/DX2                !
 ! D89   D(14,15,16,17)         -0.0366         estimate D2E/DX2                !
 ! D90   D(14,15,16,41)       -179.8096         estimate D2E/DX2                !
 ! D91   D(40,15,16,17)        179.6652         estimate D2E/DX2                !
 ! D92   D(40,15,16,41)         -0.1078         estimate D2E/DX2                !
 ! D93   D(15,16,17,18)          0.0699         estimate D2E/DX2                !
 ! D94   D(15,16,17,42)        179.9066         estimate D2E/DX2                !
 ! D95   D(41,16,17,18)        179.8432         estimate D2E/DX2                !
 ! D96   D(41,16,17,42)         -0.3202         estimate D2E/DX2                !
 ! D97   D(16,17,18,13)         -0.1329         estimate D2E/DX2                !
 ! D98   D(16,17,18,43)       -179.8241         estimate D2E/DX2                !
 ! D99   D(42,17,18,13)       -179.97           estimate D2E/DX2                !
 ! D100  D(42,17,18,43)          0.3388         estimate D2E/DX2                !
 ! D101  D(8,19,20,6)            0.7901         estimate D2E/DX2                !
 ! D102  D(8,19,20,21)        -179.5216         estimate D2E/DX2                !
 ! D103  D(24,19,20,6)         179.851          estimate D2E/DX2                !
 ! D104  D(24,19,20,21)         -0.4607         estimate D2E/DX2                !
 ! D105  D(8,19,24,9)           -1.6279         estimate D2E/DX2                !
 ! D106  D(8,19,24,23)         178.1756         estimate D2E/DX2                !
 ! D107  D(20,19,24,9)         179.3087         estimate D2E/DX2                !
 ! D108  D(20,19,24,23)         -0.8878         estimate D2E/DX2                !
 ! D109  D(6,20,21,22)        -178.9037         estimate D2E/DX2                !
 ! D110  D(6,20,21,44)          -0.4513         estimate D2E/DX2                !
 ! D111  D(19,20,21,22)          1.4167         estimate D2E/DX2                !
 ! D112  D(19,20,21,44)        179.869          estimate D2E/DX2                !
 ! D113  D(20,21,22,23)         -1.0095         estimate D2E/DX2                !
 ! D114  D(20,21,22,45)        178.9706         estimate D2E/DX2                !
 ! D115  D(44,21,22,23)       -179.4891         estimate D2E/DX2                !
 ! D116  D(44,21,22,45)          0.491          estimate D2E/DX2                !
 ! D117  D(21,22,23,24)         -0.4078         estimate D2E/DX2                !
 ! D118  D(21,22,23,46)        179.6212         estimate D2E/DX2                !
 ! D119  D(45,22,23,24)        179.6121         estimate D2E/DX2                !
 ! D120  D(45,22,23,46)         -0.3589         estimate D2E/DX2                !
 ! D121  D(22,23,24,9)        -178.8688         estimate D2E/DX2                !
 ! D122  D(22,23,24,19)          1.3318         estimate D2E/DX2                !
 ! D123  D(46,23,24,9)           1.1014         estimate D2E/DX2                !
 ! D124  D(46,23,24,19)       -178.698          estimate D2E/DX2                !
 ! D125  D(8,25,26,9)            2.8761         estimate D2E/DX2                !
 ! D126  D(8,25,26,27)        -179.1            estimate D2E/DX2                !
 ! D127  D(47,25,26,9)        -177.3543         estimate D2E/DX2                !
 ! D128  D(47,25,26,27)          0.6696         estimate D2E/DX2                !
 ! D129  D(9,26,27,28)           4.4975         estimate D2E/DX2                !
 ! D130  D(9,26,27,32)        -175.2989         estimate D2E/DX2                !
 ! D131  D(25,26,27,28)       -173.5319         estimate D2E/DX2                !
 ! D132  D(25,26,27,32)          6.6718         estimate D2E/DX2                !
 ! D133  D(26,27,28,11)         -1.6279         estimate D2E/DX2                !
 ! D134  D(26,27,28,29)        179.3087         estimate D2E/DX2                !
 ! D135  D(32,27,28,11)        178.1756         estimate D2E/DX2                !
 ! D136  D(32,27,28,29)         -0.8878         estimate D2E/DX2                !
 ! D137  D(26,27,32,31)       -178.8688         estimate D2E/DX2                !
 ! D138  D(26,27,32,50)          1.1015         estimate D2E/DX2                !
 ! D139  D(28,27,32,31)          1.3318         estimate D2E/DX2                !
 ! D140  D(28,27,32,50)       -178.6979         estimate D2E/DX2                !
 ! D141  D(11,28,29,13)          0.7901         estimate D2E/DX2                !
 ! D142  D(11,28,29,30)       -179.5216         estimate D2E/DX2                !
 ! D143  D(27,28,29,13)        179.851          estimate D2E/DX2                !
 ! D144  D(27,28,29,30)         -0.4607         estimate D2E/DX2                !
 ! D145  D(13,29,30,31)       -178.9037         estimate D2E/DX2                !
 ! D146  D(13,29,30,48)         -0.4513         estimate D2E/DX2                !
 ! D147  D(28,29,30,31)          1.4167         estimate D2E/DX2                !
 ! D148  D(28,29,30,48)        179.869          estimate D2E/DX2                !
 ! D149  D(29,30,31,32)         -1.0095         estimate D2E/DX2                !
 ! D150  D(29,30,31,49)        178.9706         estimate D2E/DX2                !
 ! D151  D(48,30,31,32)       -179.4891         estimate D2E/DX2                !
 ! D152  D(48,30,31,49)          0.491          estimate D2E/DX2                !
 ! D153  D(30,31,32,27)         -0.4078         estimate D2E/DX2                !
 ! D154  D(30,31,32,50)        179.6212         estimate D2E/DX2                !
 ! D155  D(49,31,32,27)        179.6121         estimate D2E/DX2                !
 ! D156  D(49,31,32,50)         -0.359          estimate D2E/DX2                !
 --------------------------------------------------------------------------------
 Trust Radius=3.00D-01 FncErr=1.00D-07 GrdErr=1.00D-06
 Number of steps in this run=    300 maximum allowed number of steps=    300.
 GradGradGradGradGradGradGradGradGradGradGradGradGradGradGradGradGradGrad

 Leave Link  103 at Tue Jul 30 09:34:57 2019, MaxMem=  4194304000 cpu:         0.2
 (Enter /home/minenky/programs//g09/l202.exe)
                          Input orientation:                          
 ---------------------------------------------------------------------
 Center     Atomic      Atomic             Coordinates (Angstroms)
 Number     Number       Type             X           Y           Z
 ---------------------------------------------------------------------
      1          6           0        0.983569    7.304777   -0.134704
      2          6           0       -0.412519    7.395789   -0.071842
      3          6           0       -1.182269    6.258318   -0.017961
      4          6           0        1.579976    6.071513   -0.143684
      5          6           0        0.808504    4.894194   -0.089803
      6          6           0       -0.598897    4.979943   -0.026941
      7          6           0        1.434956    3.615700   -0.098783
      8          6           0        0.718840    2.460637   -0.044901
      9          6           0       -0.731878   -0.002754    0.044901
     10          6           0       -1.381849   -1.182255   -0.026941
     11          6           0       -0.718843   -2.460639   -0.044901
     12          6           0       -1.434956   -3.615703   -0.098783
     13          6           0        0.598899   -4.979944   -0.026941
     14          6           0       -0.808502   -4.894196   -0.089803
     15          6           0       -1.579972   -6.071517   -0.143684
     16          6           0       -0.983563   -7.304780   -0.134704
     17          6           0        0.412524   -7.395790   -0.071842
     18          6           0        1.182273   -6.258318   -0.017961
     19          6           0       -0.718843    2.503930    0.017961
     20          6           0       -1.380468    3.751545    0.035921
     21          6           0       -2.780907    3.761058    0.107763
     22          6           0       -3.489753    2.584398    0.188586
     23          6           0       -2.832169    1.361274    0.179606
     24          6           0       -1.448679    1.292165    0.080822
     25          6           0        1.381845    1.182252   -0.026941
     26          6           0        0.731873    0.002753    0.044901
     27          6           0        1.448674   -1.292165    0.080822
     28          6           0        0.718840   -2.503931    0.017961
     29          6           0        1.380468   -3.751544    0.035921
     30          6           0        2.780908   -3.761053    0.107763
     31          6           0        3.489751   -2.584391    0.188586
     32          6           0        2.832164   -1.361268    0.179606
     33          1           0        1.586504    8.203790   -0.179606
     34          1           0       -0.890417    8.367123   -0.062862
     35          1           0       -2.257703    6.365491    0.026941
     36          1           0        2.660237    5.985217   -0.197566
     37          1           0        2.518717    3.573449   -0.143684
     38          1           0       -2.462883   -1.217327   -0.071842
     39          1           0       -2.518717   -3.573454   -0.143684
     40          1           0       -2.660233   -5.985222   -0.197566
     41          1           0       -1.586497   -8.203793   -0.179606
     42          1           0        0.890424   -8.367123   -0.062862
     43          1           0        2.257707   -6.365490    0.026941
     44          1           0       -3.322745    4.695642    0.125724
     45          1           0       -4.572074    2.607761    0.260428
     46          1           0       -3.429620    0.461138    0.251448
     47          1           0        2.462879    1.217321   -0.071842
     48          1           0        3.322748   -4.695635    0.125724
     49          1           0        4.572072   -2.607751    0.260428
     50          1           0        3.429611   -0.461130    0.251448
 ---------------------------------------------------------------------
                    Distance matrix (angstroms):
                    1          2          3          4          5
     1  C    0.000000
     2  C    1.400463   0.000000
     3  C    2.408228   1.374503   0.000000
     4  C    1.369935   2.393513   2.771408   0.000000
     5  C    2.417349   2.783738   2.414368   1.408599   0.000000
     6  C    2.814368   2.423441   1.405221   2.439804   1.411411
     7  C    3.716763   4.207489   3.720192   2.460501   1.423752
     8  C    4.852199   5.063242   4.247037   3.713454   2.435622
     9  C    7.508330   7.406353   6.277565   6.502073   5.135272
    10  C    8.811159   8.632755   7.443255   7.836019   6.459476
    11  C    9.913103   9.861224   8.731306   8.836965   7.511882
    12  C   11.185144  11.058891   9.877584  10.145639   8.800656
    13  C   12.291215  12.417075  11.378540  11.095533   9.876563
    14  C   12.329983  12.296376  11.159007  11.222945   9.921053
    15  C   13.619731  13.518004  12.336888  12.547448  11.222947
    16  C   14.741396  14.711790  13.565056  13.619729  12.329983
    17  C   14.711788  14.814571  13.747034  13.518001  12.296375
    18  C   13.565053  13.747033  12.738023  12.336884  11.159005
    19  C    5.096042   4.902263   3.783052   4.247157   2.838620
    20  C    4.271211   3.772142   2.515173   3.765467   2.472459
    21  C    5.175714   4.341980   2.967787   4.941531   3.769204
    22  C    6.511306   5.717226   4.343366   6.162185   4.887502
    23  C    7.069928   6.506405   5.171290   6.462035   5.080217
    24  C    6.489513   6.192831   4.974275   5.662625   4.254245
    25  C    6.136412   6.467596   5.686933   4.894666   3.756486
    26  C    7.308568   7.481995   6.542170   6.130635   4.893895
    27  C    8.612211   8.886388   7.996337   7.368270   6.221734
    28  C    9.813467   9.964562   8.966187   8.620088   7.399453
    29  C   11.064758  11.291123  10.332853   9.826724   8.665549
    30  C   11.213466  11.606264  10.775452   9.908825   8.879342
    31  C   10.206915  10.719120  10.003196   8.870305   7.949580
    32  C    8.866591   9.342229   8.614685   7.544450   6.580166
    33  H    1.083407   2.158836   3.387786   2.132590   3.400996
    34  H    2.155357   1.082570   2.129378   3.373307   3.866302
    35  H    3.378495   2.115650   1.081693   3.852702   3.402935
    36  H    2.134574   3.383393   3.856384   1.085041   2.151943
    37  H    4.034795   4.817426   4.574016   2.668625   2.161504
    38  H    9.192836   8.853799   7.584731   8.335290   6.932026
    39  H   11.428123  11.169849   9.922985  10.479727   9.098042
    40  H   13.780614  13.569063  12.333730  12.780733  11.419520
    41  H   15.720146  15.644066  14.468662  14.622319  13.315456
    42  H   15.672341  15.816673  14.771648  14.455318  13.261597
    43  H   13.730468  14.018297  13.084188  12.456624  11.353163
    44  H    5.041800   3.974826   2.654099   5.099243   4.141629
    45  H    7.285826   6.351182   4.989473   7.071676   5.856710
    46  H    8.152346   7.569465   6.223380   7.531832   6.142486
    47  H    6.264937   6.814791   6.221066   4.934355   4.031957
    48  H   12.229042  12.656768  11.845037  10.910605   9.916284
    49  H   10.549488  11.181564  10.573416   9.189427   8.400374
    50  H    8.151168   8.752009   8.154324   6.800934   5.972114
                    6          7          8          9         10
     6  C    0.000000
     7  C    2.450077   0.000000
     8  C    2.843177   1.360109   0.000000
     9  C    4.984989   4.220074   2.860235   0.000000
    10  C    6.211739   5.564164   4.205220   1.348646   0.000000
    11  C    7.441570   6.446988   5.126977   2.459560   1.440196
    12  C    8.636509   7.780076   6.446988   3.683526   2.435087
    13  C   10.031653   8.636507   7.441569   5.152528   4.283200
    14  C    9.876564   8.800654   7.511881   4.893896   3.756486
    15  C   11.095535  10.145638   8.836965   6.130637   4.894667
    16  C   12.291216  11.185142   9.913103   7.308569   6.136412
    17  C   12.417075  11.058888   9.861222   7.481996   6.467597
    18  C   11.378539   9.877581   8.731304   6.542171   5.686934
    19  C    2.479323   2.426626   1.439708   2.506863   3.745604
    20  C    1.457315   2.821916   2.465780   3.809923   4.934201
    21  C    2.502997   4.223422   3.736660   4.285878   5.139246
    22  C    3.760603   5.039734   4.216881   3.784161   4.321734
    23  C    4.257338   4.834076   3.724066   2.507975   2.935239
    24  C    3.785954   3.707617   2.465618   1.480510   2.477667
    25  C    4.283199   2.435088   1.440197   2.424299   3.637155
    26  C    5.152527   3.683525   2.459559   1.463761   2.424299
    27  C    6.598750   4.911169   3.825178   2.533511   2.834705
    28  C    7.599133   6.162494   4.964966   2.891573   2.482285
    29  C    8.953251   7.368677   6.247838   4.302966   3.773008
    30  C    9.372632   7.501382   6.556284   5.144748   4.898662
    31  C    8.601316   6.538034   5.760622   4.950520   5.073946
    32  C    7.212891   5.176862   4.373042   3.816556   4.222868
    33  H    3.897752   4.591304   5.809887   8.530689   9.845419
    34  H    3.399892   5.290054   6.121814   8.372072   9.562082
    35  H    2.162009   4.605745   4.910484   6.548512   7.598585
    36  H    3.414915   2.669397   4.026784   6.886293   8.230445
    37  H    3.422188   1.085513   2.118411   4.836441   6.151810
    38  H    6.471678   6.209028   4.863281   2.117828   1.082534
    39  H    8.766980   8.204723   6.848488   3.997281   2.650270
    40  H   11.158542  10.438297   9.098020   6.290252   4.973115
    41  H   13.221556  12.199841  10.911590   8.248504   7.026178
    42  H   13.429949  11.995243  10.829134   8.520924   7.535705
    43  H   11.699656  10.015831   8.959564   7.030103   6.333656
    44  H    2.742897   4.883892   4.621555   5.366009   6.191935
    45  H    4.636374   6.101589   5.301758   4.648478   4.962292
    46  H    5.339484   5.808444   4.614709   2.745117   2.640380
    47  H    4.851166   2.609516   2.142016   3.421795   4.532319
    48  H   10.441236   8.525987   7.617196   6.202391   5.873702
    49  H    9.186653   6.978673   6.374102   5.913066   6.128931
    50  H    6.775814   4.552126   3.996602   4.191749   4.873158
                   11         12         13         14         15
    11  C    0.000000
    12  C    1.360108   0.000000
    13  C    2.843179   2.450078   0.000000
    14  C    2.435622   1.423752   1.411411   0.000000
    15  C    3.713454   2.460502   2.439803   1.408600   0.000000
    16  C    4.852200   3.716764   2.814367   2.417349   1.369935
    17  C    5.063243   4.207489   2.423440   2.783738   2.393512
    18  C    4.247038   3.720193   1.405221   2.414368   2.771407
    19  C    4.964967   6.162496   7.599134   7.399454   8.620091
    20  C    6.247840   7.368681   8.953253   8.665552   9.826729
    21  C    6.556289   7.501390   9.372638   8.879349   9.908835
    22  C    5.760630   6.538044   8.601325   7.949590   8.870317
    23  C    4.373050   5.176872   7.212901   6.580176   7.544461
    24  C    3.825180   4.911172   6.598753   6.221736   7.368273
    25  C    4.205219   5.564162   6.211736   6.459473   7.836016
    26  C    2.860235   4.220073   4.984989   5.135271   6.502073
    27  C    2.465617   3.707615   3.785954   4.254243   5.662624
    28  C    1.439708   2.426624   2.479323   2.838618   4.247156
    29  C    2.465781   2.821916   1.457315   2.472458   3.765466
    30  C    3.736662   4.223422   2.502999   3.769205   4.941533
    31  C    4.216882   5.039735   3.760605   4.887502   6.162187
    32  C    3.724066   4.834076   4.257341   5.080218   6.462036
    33  H   10.911591  12.199843  13.221555  13.315456  14.622320
    34  H   10.829136  11.995246  13.429950  13.261599  14.455322
    35  H    8.959566  10.015835  11.699657  11.353165  12.456629
    36  H    9.098020  10.438296  11.158539  11.419518  12.780732
    37  H    6.848487   8.204721   8.766976   9.098038  10.479724
    38  H    2.142014   2.609515   4.851166   4.031955   4.934354
    39  H    2.118410   1.085513   3.422188   2.161504   2.668625
    40  H    4.026784   2.669397   3.414914   2.151943   1.085041
    41  H    5.809887   4.591303   3.897751   3.400996   2.132589
    42  H    6.121815   5.290054   3.399891   3.866303   3.373306
    43  H    4.910486   4.605746   2.162009   3.402936   3.852702
    44  H    7.617203   8.525996  10.441243   9.916293  10.910616
    45  H    6.374111   6.978685   9.186665   8.400387   9.189442
    46  H    3.996613   4.552140   6.775828   5.972128   6.800949
    47  H    4.863278   6.209023   6.471671   6.932020   8.335284
    48  H    4.621556   4.883892   2.742898   4.141631   5.099245
    49  H    5.301759   6.101589   4.636376   5.856711   7.071678
    50  H    4.614708   5.808443   5.339486   6.142485   7.531832
                   16         17         18         19         20
    16  C    0.000000
    17  C    1.400462   0.000000
    18  C    2.408227   1.374503   0.000000
    19  C    9.813469   9.964563   8.966188   0.000000
    20  C   11.064762  11.291125  10.332855   1.412308   0.000000
    21  C   11.213474  11.606271  10.775458   2.416722   1.402313
    22  C   10.206926  10.719130  10.003205   2.777324   2.415496
    23  C    8.866602   9.342239   8.614694   2.407891   2.800264
    24  C    8.612215   8.886391   7.996340   1.415976   2.460735
    25  C    8.811157   8.632752   7.443251   2.482285   3.773008
    26  C    7.508330   7.406352   6.277565   2.891572   4.302965
    27  C    6.489512   6.192831   4.974274   4.371775   5.783171
    28  C    5.096041   4.902263   3.783052   5.210144   6.598363
    29  C    4.271211   3.772142   2.515174   6.598362   7.994943
    30  C    5.175716   4.341983   2.967789   7.176791   8.588442
    31  C    6.511308   5.717229   4.343369   6.605482   7.992898
    32  C    7.069929   6.506408   5.171293   5.251241   6.626294
    33  H   15.720146  15.644064  14.468659   6.151590   5.354611
    34  H   15.672344  15.816674  14.771648   5.866260   4.642571
    35  H   13.730472  14.018300  13.084189   4.156901   2.757233
    36  H   13.780611  13.569059  12.333726   4.856335   4.622889
    37  H   11.428119  11.169844   9.922980   3.413473   3.907380
    38  H    6.264936   6.814791   6.221065   4.110656   5.086543
    39  H    4.034795   4.817425   4.574017   6.340368   7.415085
    40  H    2.134574   3.383392   3.856383   8.710979   9.823286
    41  H    1.083407   2.158835   3.387785  10.744635  11.959055
    42  H    2.155356   1.082570   2.129378  10.989816  12.329997
    43  H    3.378495   2.115650   1.081693   9.355562  10.751316
    44  H   12.229052  12.656777  11.845044   3.405220   2.161440
    45  H   10.549503  11.181577  10.573427   3.862248   3.397793
    46  H    8.151183   8.752023   8.154338   3.402327   3.882300
    47  H    9.192830   8.853792   7.584724   3.433188   4.604913
    48  H    5.041803   3.974830   2.654102   8.257106   9.668669
    49  H    7.285828   6.351186   4.989477   7.360832   8.713425
    50  H    8.152347   7.569468   6.223383   5.104485   6.397651
                   21         22         23         24         25
    21  C    0.000000
    22  C    1.376054   0.000000
    23  C    2.401406   1.388715   0.000000
    24  C    2.805528   2.418153   1.388733   0.000000
    25  C    4.898662   5.073946   4.222869   2.834706   0.000000
    26  C    5.144748   4.950521   3.816559   2.533512   1.348645
    27  C    6.589776   6.279125   5.037471   3.882450   2.477664
    28  C    7.176795   6.605487   5.251248   4.371777   3.745602
    29  C    8.588445   7.992904   6.626301   5.783173   4.934197
    30  C    9.354995   8.921461   7.599344   6.589776   5.139240
    31  C    8.921458   8.685036   7.452183   6.279123   4.321726
    32  C    7.599339   7.452181   6.284656   5.037468   2.935231
    33  H    6.236564   7.581657   8.153142   7.553193   7.026179
    34  H    4.981857   6.345052   7.274002   7.098404   7.535704
    35  H    2.657696   3.980043   5.039395   5.137710   6.333655
    36  H    5.886099   7.038257   7.189550   6.243831   4.973115
    37  H    5.308902   6.098388   5.799156   4.582018   2.650270
    38  H    4.991765   3.946568   2.617018   2.710990   4.532320
    39  H    7.343503   6.242792   4.955230   4.986946   6.151809
    40  H    9.751808   8.618330   7.358181   7.382799   8.230443
    41  H   12.027754  10.960977   9.652525   9.500528   9.845415
    42  H   12.672828  11.797669  10.419127   9.939512   9.562079
    43  H   11.311107  10.637665   9.253811   8.507637   7.598582
    44  H    1.080444   2.118772   3.370694   3.885588   5.873703
    45  H    2.135809   1.084954   2.141852   3.393913   6.128932
    46  H    3.366147   2.125041   1.082753   2.154958   4.873161
    47  H    5.830965   6.113146   5.302969   3.915251   1.082534
    48  H   10.429314   9.970607   8.635511   7.656519   6.191928
    49  H    9.728892   9.589400   8.401338   7.175726   4.962283
    50  H    7.511195   7.560211   6.521979   5.186605   2.640369
                   26         27         28         29         30
    26  C    0.000000
    27  C    1.480509   0.000000
    28  C    2.506863   1.415975   0.000000
    29  C    3.809922   2.460734   1.412307   0.000000
    30  C    4.285876   2.805527   2.416722   1.402314   0.000000
    31  C    3.784158   2.418151   2.777325   2.415497   1.376054
    32  C    2.507971   1.388732   2.407892   2.800265   2.401407
    33  H    8.248503   9.500525  10.744634  11.959052  12.027745
    34  H    8.520923   9.939509  10.989816  12.329995  12.672821
    35  H    7.030101   8.507634   9.355562  10.751315  11.311102
    36  H    6.290251   7.382796   8.710976   9.823280   9.751798
    37  H    3.997280   4.986942   6.340365   7.415079   7.343493
    38  H    3.421796   3.915250   3.433187   4.604912   5.830964
    39  H    4.836440   4.582016   3.413471   3.907380   5.308902
    40  H    6.886292   6.243829   4.856333   4.622889   5.886100
    41  H    8.530688   7.553191   6.151588   5.354611   6.236565
    42  H    8.372071   7.098403   5.866259   4.642572   4.981859
    43  H    6.548512   5.137710   4.156902   2.757235   2.657699
    44  H    6.202392   7.656519   8.257110   9.668673  10.429314
    45  H    5.913068   7.175729   7.360839   8.713433   9.728897
    46  H    4.191754   5.186611   5.104495   6.397663   7.511205
    47  H    2.117826   2.710985   4.110651   5.086536   4.991754
    48  H    5.366006   3.885586   3.405219   2.161440   1.080443
    49  H    4.648474   3.393912   3.862249   3.397794   2.135809
    50  H    2.745112   2.154958   3.402327   3.882301   3.366148
                   31         32         33         34         35
    31  C    0.000000
    32  C    1.388716   0.000000
    33  H   10.960965   9.652514   0.000000
    34  H   11.797659  10.419117   2.485044   0.000000
    35  H   10.637657   9.253802   4.266138   2.425709   0.000000
    36  H    8.618317   7.358170   2.464811   4.277706   4.937727
    37  H    6.242780   4.955219   4.723385   5.882860   5.535233
    38  H    6.113145   5.302968  10.255076   9.712590   7.586237
    39  H    6.098388   5.799156  12.472273  12.051360   9.943836
    40  H    7.038257   7.189550  14.810914  14.461680  12.359310
    41  H    7.581658   8.153143  16.711574  16.585940  14.586199
    42  H    6.345054   7.274005  16.585937  16.828737  15.065480
    43  H    3.980047   5.039399  14.586195  15.065478  13.508027
    44  H    9.970603   8.635506   6.041610   4.408124   1.983045
    45  H    9.589402   8.401337   8.332902   6.843198   4.419430
    46  H    7.560218   6.521983   9.235582   8.309690   6.023718
    47  H    3.946556   2.617006   7.042045   7.897110   6.985507
    48  H    2.118772   3.370694  13.019329  13.726688  12.389500
    49  H    1.084954   2.141852  11.224824  12.263407  11.279158
    50  H    2.125043   1.082752   8.869255   9.833590   8.888121
                   36         37         38         39         40
    36  H    0.000000
    37  H    2.416517   0.000000
    38  H    8.839616   6.911804   0.000000
    39  H   10.871645   8.743796   2.357883   0.000000
    40  H   13.099573  10.871643   4.773633   2.416517   0.000000
    41  H   14.810911  12.472269   7.042043   4.723385   2.464810
    42  H   14.461675  12.051354   7.897109   5.882860   4.277705
    43  H   12.359304   9.943830   6.985507   5.535233   4.937726
    44  H    6.128915   5.954375   5.978428   8.312460  10.706274
    45  H    7.995204   7.167648   4.380684   6.525872   8.815001
    46  H    8.234283   6.724977   1.963757   4.154974   6.507621
    47  H    4.773635   2.357884   5.494601   6.911800   8.839610
    48  H   10.706262   8.312448   6.753605   5.954375   6.128916
    49  H    8.814986   6.525857   7.178738   7.167648   7.995205
    50  H    6.507606   4.154959   5.949608   6.724976   8.234282
                   41         42         43         44         45
    41  H    0.000000
    42  H    2.485044   0.000000
    43  H    4.266137   2.425709   0.000000
    44  H   13.019340  13.726696  12.389505   0.000000
    45  H   11.224839  12.263420  11.279169   2.436845   0.000000
    46  H    8.869269   9.833604   8.888135   4.237718   2.431722
    47  H   10.255069   9.712583   7.586229   6.753606   7.178739
    48  H    6.041613   4.408128   1.983050  11.504723  10.755740
    49  H    8.332904   6.843202   4.419435  10.755735  10.526964
    50  H    9.235582   8.309692   6.023722   8.497200   8.570014
                   46         47         48         49         50
    46  H    0.000000
    47  H    5.949611   0.000000
    48  H    8.497211   5.978416   0.000000
    49  H    8.570020   4.380671   2.436845   0.000000
    50  H    6.920956   1.963743   4.237719   2.431724   0.000000
 Stoichiometry    C32H18
 Framework group  C1[X(C32H18)]
 Deg. of freedom   144
 Full point group                 C1      NOp   1
 Largest Abelian subgroup         C1      NOp   1
 Largest concise Abelian subgroup C1      NOp   1
                         Standard orientation:                         
 ---------------------------------------------------------------------
 Center     Atomic      Atomic             Coordinates (Angstroms)
 Number     Number       Type             X           Y           Z
 ---------------------------------------------------------------------
      1          6           0        7.228975   -1.438436   -0.134790
      2          6           0        7.407111   -0.050772   -0.071928
      3          6           0        6.320001    0.788602   -0.018046
      4          6           0        5.960829   -1.956556   -0.143770
      5          6           0        4.834057   -1.112972   -0.089888
      6          6           0        5.007648    0.286312   -0.027026
      7          6           0        3.518891   -1.658249   -0.098869
      8          6           0        2.410870   -0.871305   -0.044987
      9          6           0        0.043018    0.730618    0.044816
     10          6           0       -1.093530    1.453075   -0.027026
     11          6           0       -2.410872    0.871308   -0.044987
     12          6           0       -3.518894    1.658249   -0.098869
     13          6           0       -5.007649   -0.286314   -0.027026
     14          6           0       -4.834059    1.112970   -0.089888
     15          6           0       -5.960833    1.956552   -0.143770
     16          6           0       -7.228978    1.438430   -0.134790
     17          6           0       -7.407112    0.050767   -0.071928
     18          6           0       -6.320001   -0.788606   -0.018046
     19          6           0        2.543981    0.560857    0.017875
     20          6           0        3.830528    1.143170    0.035836
     21          6           0        3.927597    2.540273    0.107678
     22          6           0        2.797566    3.321312    0.188500
     23          6           0        1.535715    2.741501    0.179520
     24          6           0        1.380227    1.365040    0.080737
     25          6           0        1.093527   -1.453071   -0.027026
     26          6           0       -0.043019   -0.730613    0.044816
     27          6           0       -1.380226   -1.365035    0.080737
     28          6           0       -2.543982   -0.560854    0.017875
     29          6           0       -3.830527   -1.143170    0.035836
     30          6           0       -3.927592   -2.540274    0.107678
     31          6           0       -2.797559   -3.321311    0.188500
     32          6           0       -1.535708   -2.741497    0.179520
     33          1           0        8.088525   -2.096409   -0.179691
     34          1           0        8.406428    0.365450   -0.062947
     35          1           0        6.494215    1.855229    0.026855
     36          1           0        5.807150   -3.029306   -0.197652
     37          1           0        3.408952   -2.737247   -0.143770
     38          1           0       -1.060932    2.534186   -0.071928
     39          1           0       -3.408957    2.737247   -0.143770
     40          1           0       -5.807155    3.029302   -0.197652
     41          1           0       -8.088528    2.096402   -0.179691
     42          1           0       -8.406429   -0.365457   -0.062947
     43          1           0       -6.494214   -1.855233    0.026855
     44          1           0        4.894234    3.022608    0.125638
     45          1           0        2.888564    4.400054    0.260342
     46          1           0        0.674701    3.394071    0.251362
     47          1           0        1.060927   -2.534182   -0.071928
     48          1           0       -4.894228   -3.022611    0.125638
     49          1           0       -2.888554   -4.400053    0.260342
     50          1           0       -0.674692   -3.394063    0.251362
 ---------------------------------------------------------------------
 Rotational constants (GHZ):      0.4330435      0.0656207      0.0570398
 Leave Link  202 at Tue Jul 30 09:34:57 2019, MaxMem=  4194304000 cpu:         1.0
 (Enter /home/minenky/programs//g09/l301.exe)
 Standard basis: def2TZVP (5D, 7F)
 ======================================================================================================
                                       Pseudopotential Parameters
 ======================================================================================================
  Center     Atomic      Valence      Angular      Power
  Number     Number     Electrons     Momentum     of R      Exponent        Coefficient   SO-Coeffient
 ======================================================================================================
    1          6
                                   No pseudopotential on this center.
    2          6
                                   No pseudopotential on this center.
    3          6
                                   No pseudopotential on this center.
    4          6
                                   No pseudopotential on this center.
    5          6
                                   No pseudopotential on this center.
    6          6
                                   No pseudopotential on this center.
    7          6
                                   No pseudopotential on this center.
    8          6
                                   No pseudopotential on this center.
    9          6
                                   No pseudopotential on this center.
   10          6
                                   No pseudopotential on this center.
   11          6
                                   No pseudopotential on this center.
   12          6
                                   No pseudopotential on this center.
   13          6
                                   No pseudopotential on this center.
   14          6
                                   No pseudopotential on this center.
   15          6
                                   No pseudopotential on this center.
   16          6
                                   No pseudopotential on this center.
   17          6
                                   No pseudopotential on this center.
   18          6
                                   No pseudopotential on this center.
   19          6
                                   No pseudopotential on this center.
   20          6
                                   No pseudopotential on this center.
   21          6
                                   No pseudopotential on this center.
   22          6
                                   No pseudopotential on this center.
   23          6
                                   No pseudopotential on this center.
   24          6
                                   No pseudopotential on this center.
   25          6
                                   No pseudopotential on this center.
   26          6
                                   No pseudopotential on this center.
   27          6
                                   No pseudopotential on this center.
   28          6
                                   No pseudopotential on this center.
   29          6
                                   No pseudopotential on this center.
   30          6
                                   No pseudopotential on this center.
   31          6
                                   No pseudopotential on this center.
   32          6
                                   No pseudopotential on this center.
   33          1
                                   No pseudopotential on this center.
   34          1
                                   No pseudopotential on this center.
   35          1
                                   No pseudopotential on this center.
   36          1
                                   No pseudopotential on this center.
   37          1
                                   No pseudopotential on this center.
   38          1
                                   No pseudopotential on this center.
   39          1
                                   No pseudopotential on this center.
   40          1
                                   No pseudopotential on this center.
   41          1
                                   No pseudopotential on this center.
   42          1
                                   No pseudopotential on this center.
   43          1
                                   No pseudopotential on this center.
   44          1
                                   No pseudopotential on this center.
   45          1
                                   No pseudopotential on this center.
   46          1
                                   No pseudopotential on this center.
   47          1
                                   No pseudopotential on this center.
   48          1
                                   No pseudopotential on this center.
   49          1
                                   No pseudopotential on this center.
   50          1
                                   No pseudopotential on this center.
 ======================================================================================================
 Ernie: Thresh=  0.10000D-02 Tol=  0.10000D-05 Strict=F.
 AO basis set (Overlap normalization):
 Atom C1       Shell     1 S   6     bf    1 -     1         13.660782655506         -2.718250205432         -0.254715547660
      0.1357534968D+05  0.6064550360D-03
      0.2035233368D+04  0.4697908888D-02
      0.4632256236D+03  0.2433247765D-01
      0.1312001960D+03  0.9739996831D-01
      0.4285301589D+02  0.3019558425D+00
      0.1558418577D+02  0.6623360914D+00
 Atom C1       Shell     2 S   2     bf    2 -     2         13.660782655506         -2.718250205432         -0.254715547660
      0.6206713851D+01  0.6559530854D+00
      0.2576489653D+01  0.3758563329D+00
 Atom C1       Shell     3 S   1     bf    3 -     3         13.660782655506         -2.718250205432         -0.254715547660
      0.5769633942D+00  0.1000000000D+01
 Atom C1       Shell     4 S   1     bf    4 -     4         13.660782655506         -2.718250205432         -0.254715547660
      0.2297283136D+00  0.1000000000D+01
 Atom C1       Shell     5 S   1     bf    5 -     5         13.660782655506         -2.718250205432         -0.254715547660
      0.9516444003D-01  0.1000000000D+01
 Atom C1       Shell     6 P   4     bf    6 -     8         13.660782655506         -2.718250205432         -0.254715547660
      0.3469723224D+02  0.1132722000D-01
      0.7958262283D+01  0.7616965920D-01
      0.2378082688D+01  0.3019225220D+00
      0.8143320818D+00  0.7278502735D+00
 Atom C1       Shell     7 P   1     bf    9 -    11         13.660782655506         -2.718250205432         -0.254715547660
      0.2888754725D+00  0.1000000000D+01
 Atom C1       Shell     8 P   1     bf   12 -    14         13.660782655506         -2.718250205432         -0.254715547660
      0.1005682367D+00  0.1000000000D+01
 Atom C1       Shell     9 D   1     bf   15 -    19         13.660782655506         -2.718250205432         -0.254715547660
      0.1097000000D+01  0.1000000000D+01
 Atom C1       Shell    10 D   1     bf   20 -    24         13.660782655506         -2.718250205432         -0.254715547660
      0.3180000000D+00  0.1000000000D+01
 Atom C1       Shell    11 F   1     bf   25 -    31         13.660782655506         -2.718250205432         -0.254715547660
      0.7610000000D+00  0.1000000000D+01
 Atom C2       Shell    12 S   6     bf   32 -    32         13.997410722186         -0.095944523880         -0.135923715775
      0.1357534968D+05  0.6064550360D-03
      0.2035233368D+04  0.4697908888D-02
      0.4632256236D+03  0.2433247765D-01
      0.1312001960D+03  0.9739996831D-01
      0.4285301589D+02  0.3019558425D+00
      0.1558418577D+02  0.6623360914D+00
 Atom C2       Shell    13 S   2     bf   33 -    33         13.997410722186         -0.095944523880         -0.135923715775
      0.6206713851D+01  0.6559530854D+00
      0.2576489653D+01  0.3758563329D+00
 Atom C2       Shell    14 S   1     bf   34 -    34         13.997410722186         -0.095944523880         -0.135923715775
      0.5769633942D+00  0.1000000000D+01
 Atom C2       Shell    15 S   1     bf   35 -    35         13.997410722186         -0.095944523880         -0.135923715775
      0.2297283136D+00  0.1000000000D+01
 Atom C2       Shell    16 S   1     bf   36 -    36         13.997410722186         -0.095944523880         -0.135923715775
      0.9516444003D-01  0.1000000000D+01
 Atom C2       Shell    17 P   4     bf   37 -    39         13.997410722186         -0.095944523880         -0.135923715775
      0.3469723224D+02  0.1132722000D-01
      0.7958262283D+01  0.7616965920D-01
      0.2378082688D+01  0.3019225220D+00
      0.8143320818D+00  0.7278502735D+00
 Atom C2       Shell    18 P   1     bf   40 -    42         13.997410722186         -0.095944523880         -0.135923715775
      0.2888754725D+00  0.1000000000D+01
 Atom C2       Shell    19 P   1     bf   43 -    45         13.997410722186         -0.095944523880         -0.135923715775
      0.1005682367D+00  0.1000000000D+01
 Atom C2       Shell    20 D   1     bf   46 -    50         13.997410722186         -0.095944523880         -0.135923715775
      0.1097000000D+01  0.1000000000D+01
 Atom C2       Shell    21 D   1     bf   51 -    55         13.997410722186         -0.095944523880         -0.135923715775
      0.3180000000D+00  0.1000000000D+01
 Atom C2       Shell    22 F   1     bf   56 -    62         13.997410722186         -0.095944523880         -0.135923715775
      0.7610000000D+00  0.1000000000D+01
 Atom C3       Shell    23 S   6     bf   63 -    63         11.943070917806          1.490241223531         -0.034102146129
      0.1357534968D+05  0.6064550360D-03
      0.2035233368D+04  0.4697908888D-02
      0.4632256236D+03  0.2433247765D-01
      0.1312001960D+03  0.9739996831D-01
      0.4285301589D+02  0.3019558425D+00
      0.1558418577D+02  0.6623360914D+00
 Atom C3       Shell    24 S   2     bf   64 -    64         11.943070917806          1.490241223531         -0.034102146129
      0.6206713851D+01  0.6559530854D+00
      0.2576489653D+01  0.3758563329D+00
 Atom C3       Shell    25 S   1     bf   65 -    65         11.943070917806          1.490241223531         -0.034102146129
      0.5769633942D+00  0.1000000000D+01
 Atom C3       Shell    26 S   1     bf   66 -    66         11.943070917806          1.490241223531         -0.034102146129
      0.2297283136D+00  0.1000000000D+01
 Atom C3       Shell    27 S   1     bf   67 -    67         11.943070917806          1.490241223531         -0.034102146129
      0.9516444003D-01  0.1000000000D+01
 Atom C3       Shell    28 P   4     bf   68 -    70         11.943070917806          1.490241223531         -0.034102146129
      0.3469723224D+02  0.1132722000D-01
      0.7958262283D+01  0.7616965920D-01
      0.2378082688D+01  0.3019225220D+00
      0.8143320818D+00  0.7278502735D+00
 Atom C3       Shell    29 P   1     bf   71 -    73         11.943070917806          1.490241223531         -0.034102146129
      0.2888754725D+00  0.1000000000D+01
 Atom C3       Shell    30 P   1     bf   74 -    76         11.943070917806          1.490241223531         -0.034102146129
      0.1005682367D+00  0.1000000000D+01
 Atom C3       Shell    31 D   1     bf   77 -    81         11.943070917806          1.490241223531         -0.034102146129
      0.1097000000D+01  0.1000000000D+01
 Atom C3       Shell    32 D   1     bf   82 -    86         11.943070917806          1.490241223531         -0.034102146129
      0.3180000000D+00  0.1000000000D+01
 Atom C3       Shell    33 F   1     bf   87 -    93         11.943070917806          1.490241223531         -0.034102146129
      0.7610000000D+00  0.1000000000D+01
 Atom C4       Shell    34 S   6     bf   94 -    94         11.264334657859         -3.697354469456         -0.271685809898
      0.1357534968D+05  0.6064550360D-03
      0.2035233368D+04  0.4697908888D-02
      0.4632256236D+03  0.2433247765D-01
      0.1312001960D+03  0.9739996831D-01
      0.4285301589D+02  0.3019558425D+00
      0.1558418577D+02  0.6623360914D+00
 Atom C4       Shell    35 S   2     bf   95 -    95         11.264334657859         -3.697354469456         -0.271685809898
      0.6206713851D+01  0.6559530854D+00
      0.2576489653D+01  0.3758563329D+00
 Atom C4       Shell    36 S   1     bf   96 -    96         11.264334657859         -3.697354469456         -0.271685809898
      0.5769633942D+00  0.1000000000D+01
 Atom C4       Shell    37 S   1     bf   97 -    97         11.264334657859         -3.697354469456         -0.271685809898
      0.2297283136D+00  0.1000000000D+01
 Atom C4       Shell    38 S   1     bf   98 -    98         11.264334657859         -3.697354469456         -0.271685809898
      0.9516444003D-01  0.1000000000D+01
 Atom C4       Shell    39 P   4     bf   99 -   101         11.264334657859         -3.697354469456         -0.271685809898
      0.3469723224D+02  0.1132722000D-01
      0.7958262283D+01  0.7616965920D-01
      0.2378082688D+01  0.3019225220D+00
      0.8143320818D+00  0.7278502735D+00
 Atom C4       Shell    40 P   1     bf  102 -   104         11.264334657859         -3.697354469456         -0.271685809898
      0.2888754725D+00  0.1000000000D+01
 Atom C4       Shell    41 P   1     bf  105 -   107         11.264334657859         -3.697354469456         -0.271685809898
      0.1005682367D+00  0.1000000000D+01
 Atom C4       Shell    42 D   1     bf  108 -   112         11.264334657859         -3.697354469456         -0.271685809898
      0.1097000000D+01  0.1000000000D+01
 Atom C4       Shell    43 D   1     bf  113 -   117         11.264334657859         -3.697354469456         -0.271685809898
      0.3180000000D+00  0.1000000000D+01
 Atom C4       Shell    44 F   1     bf  118 -   124         11.264334657859         -3.697354469456         -0.271685809898
      0.7610000000D+00  0.1000000000D+01
 Atom C5       Shell    45 S   6     bf  125 -   125          9.135043911680         -2.103212110091         -0.169864240251
      0.1357534968D+05  0.6064550360D-03
      0.2035233368D+04  0.4697908888D-02
      0.4632256236D+03  0.2433247765D-01
      0.1312001960D+03  0.9739996831D-01
      0.4285301589D+02  0.3019558425D+00
      0.1558418577D+02  0.6623360914D+00
 Atom C5       Shell    46 S   2     bf  126 -   126          9.135043911680         -2.103212110091         -0.169864240251
      0.6206713851D+01  0.6559530854D+00
      0.2576489653D+01  0.3758563329D+00
[...]
 .00011537,-0.00003745,-0.00020748,-0.00040925,-0.00001744,-0.00346462,
 -0.05705353,0.00209339,-0.02837874,0.00498291,0.00231419,0.00022434,0.
 00096367,-0.00062871,-0.00000477,-0.00011024,-0.00003827,-0.00004275,0
 .00005727,0.00000808,0.00012642,0.00013767,0.00001912,0.00039230,0.000
 02077,-0.00016974,-0.00048683,-0.00192389,0.00027386,-0.00000241,0.000
 00199,-0.00000012,-0.00000870,-0.00000323,0.00000176,-0.00000177,0.000
 02372,-0.00000391,-0.00002212,-0.00003866,0.00000893,-0.00090078,-0.00
 066627,0.00019551,-0.00020093,-0.00035437,-0.00034030,0.00002780,0.000
 02706,-0.00000007,0.00000836,0.00000749,0.00000189,0.00000110,-0.00000
 287,-0.00000028,0.00000053,0.00000436,-0.00000002,0.00000849,-0.000017
 16,0.00000092,0.00013668,-0.00000781,-0.00002736,0.00000123,0.00002048
 ,0.00000286,0.00006940,-0.00000823,-0.00002302,0.00143880,0.06205997,-
 0.00000689,0.00000201,-0.00000368,0.00001421,0.00000910,-0.00000851,0.
 00001093,-0.00002606,0.00004128,0.00001618,-0.00000328,0.00001823,0.00
 001552,-0.00007645,-0.00022995,-0.00001342,0.00002608,0.00009674,-0.00
 039898,-0.00007098,-0.00148818,-0.00164754,-0.00012561,0.00358216,0.00
 030168,0.00167147,0.00968881,0.00072578,-0.00033912,0.00009703,0.00006
 509,0.00016319,0.00046294,-0.00001471,-0.00037952,-0.00007002,0.000153
 12,0.00022292,0.00003637,-0.00012417,0.00029553,-0.00000865,-0.0000161
 6,-0.00016357,-0.00001853,-0.00011426,0.00008807,-0.00000450,0.0001325
 3,0.00004723,0.00002113,-0.00001090,-0.00015410,0.00003594,0.00013755,
 0.00088944,0.00287210,-0.00007176,-0.00009018,0.00024189,-0.00009200,0
 .00000841,-0.00027641,0.00004246,0.00007091,0.00008295,0.00004093,-0.0
 0004578,-0.00028052,-0.00018640,0.00015355,-0.00050353,0.02615144,0.00
 405349,-0.04072542,0.00352941,-0.00329333,0.00592688,-0.00113142,0.000
 40538,-0.00568534,-0.00019661,-0.00064262,-0.00005405,-0.00062091,-0.0
 0009810,0.00006117,0.00052435,0.00028937,0.00004367,-0.00009502,-0.000
 85625,-0.00054035,0.00047795,0.00165514,0.00016225,0.00000033,-0.00000
 243,0.00000497,0.00000131,-0.00000161,0.00000138,-0.00000024,-0.000004
 01,-0.00001067,0.00000044,0.00000573,0.00000823,0.00010361,0.00004245,
 0.00029845,0.00019660,0.00034030,-0.00115741,0.00000141,-0.00001127,-0
 .00001788,-0.00000060,-0.00000041,0.00000176,-0.00000297,-0.00000123,-
 0.00000012,0.00000370,-0.00000005,-0.00000692,0.00000184,-0.00000531,0
 .00000189,-0.00001954,0.00000202,-0.00002811,0.00001100,0.00000092,0.0
 0004447,0.00002455,-0.00001341,0.00000871,-0.02677234,-0.00539347,0.02
 650851,0.00000193,0.00000152,-0.00000075,0.00000075,-0.00000141,0.0000
 0022,0.00000111,0.00000198,-0.00000113,0.00000029,0.00000114,0.0000000
 5,0.00000358,0.00000101,0.00000329,-0.00000432,-0.00000421,0.00000074,
 0.00000018,0.00000452,-0.00000109,0.00001235,0.00001596,-0.00000935,0.
 00001946,-0.00004241,-0.00001877,-0.00051280,-0.00021827,-0.00006777,-
 0.00000252,0.00165238,0.00007902,-0.00005142,0.00013807,0.00003693,0.0
 0111399,0.00063983,0.00061965,-0.00006473,-0.00001152,0.00001903,0.000
 21472,0.00007969,0.00001143,0.00015127,0.00005070,0.00003040,0.0006056
 5,-0.00051955,0.00006838,-0.00139111,0.00036700,0.00001392,-0.00001319
 ,0.00000179,0.00000108,0.00000200,-0.00000066,0.00000109,-0.00000267,0
 .00000921,-0.00000088,0.00001029,0.00000101,0.00000043,-0.00001196,0.0
 0000836,0.00000547,0.00001787,-0.00000812,-0.00000635,0.00001357,0.000
 01977,0.00002081,0.00008512,-0.00010642,0.00019781,-0.00091747,-0.0006
 9446,0.00000221,-0.00516518,-0.00146192,-0.00190569,-0.00886465,0.0282
 9372,0.00014862,-0.13061115,0.12461688,-0.00679877,0.01152176,-0.01581
 693,0.00030993,-0.00056013,-0.00302790,-0.00183175,0.00000040,0.000000
 18,-0.00000014,-0.00000013,0.00000079,0.00000002,0.00000006,-0.0000013
 6,0.00000007,0.00000039,0.00000007,-0.00000007,0.00000157,0.00000132,-
 0.00000153,-0.00008926,0.00013668,0.00001954,-0.00001513,-0.00005971,-
 0.00001188,0.00001760,-0.00000567,-0.00000123,0.00009903,-0.00000603,-
 0.00000312,-0.00002716,-0.00000093,0.00000333,0.00025899,-0.00214904,-
 0.00058510,0.00000011,0.00000172,-0.00000036,-0.00000201,0.00000119,0.
 00000018,0.00001165,0.00000021,-0.00000677,0.00002141,0.00001810,-0.00
 002485,0.13312005,0.00000051,-0.00000091,0.00000006,0.00000218,-0.0000
 0729,0.00000043,-0.00000603,-0.00000108,0.00000064,0.00000708,-0.00000
 595,-0.00000006,-0.00000628,0.00001199,-0.00000086,0.00000397,-0.00000
 115,-0.00000023,-0.00000367,-0.00001087,0.00000322,0.00002053,0.000041
 94,0.00000565,-0.00000076,-0.00003015,-0.00000535,0.00002073,0.0000095
 4,0.00001275,-0.00027750,0.00001249,-0.00004534,0.00006322,0.00012919,
 0.00003267,0.00020646,-0.00160586,0.00006819,0.00023368,0.00002035,0.0
 0003530,0.00008054,0.00000496,0.00000077,0.00000847,-0.00007023,0.0000
 0263,-0.00020380,0.00011675,-0.00002121,-0.00198680,-0.00113619,-0.000
 34383,0.00001325,-0.00002295,0.,0.00000939,0.00000436,-0.00000272,0.00
 000700,-0.00001186,-0.00000046,-0.00000639,-0.00000062,0.00000204,0.00
 000734,-0.00001381,-0.00000430,0.00000841,0.00002527,0.00000163,-0.000
 01909,-0.00003633,0.00003080,0.00007351,-0.00003886,0.00006943,-0.0008
 4322,0.00021235,-0.00000445,-0.00053172,0.00138437,-0.00046577,0.00061
 479,0.00325780,0.00018836,0.12387993,-0.27218597,0.00333254,0.01600250
 ,-0.01934749,0.00111822,-0.00375146,-0.00281453,-0.00160307,-0.0000011
 2,-0.00000296,0.00000035,0.00000086,-0.00000225,0.00000010,0.00000159,
 0.00000140,-0.00000027,-0.00000136,0.00000192,-0.00000035,0.00000120,0
 .00000556,-0.00000184,0.00000235,-0.00000781,-0.00000202,0.00001554,0.
 00000106,-0.00000031,0.00002040,0.00001835,0.00000470,-0.00000639,0.00
 000493,-0.00000362,-0.00000388,0.00000041,0.00000044,-0.00259725,-0.00
 204149,-0.00087283,0.00000172,-0.00000233,-0.00000028,0.00000384,-0.00
 000136,-0.00000022,-0.00000422,0.00000223,0.00000123,0.00003391,0.0000
 5206,-0.00003696,-0.13137876,0.29421494,0.00000276,-0.00000310,0.00000
 047,-0.00000497,0.00000150,-0.00000069,0.00000245,0.00000358,0.0000018
 7,-0.00000204,0.00000619,-0.00000199,0.00000638,-0.00001175,-0.0000095
 9,-0.00000614,-0.00000284,0.00000036,-0.00000260,0.00002555,0.00000264
 ,0.00003708,-0.00003190,-0.00002964,-0.00001872,-0.00003373,0.00004846
 ,-0.00006763,0.00001546,-0.00001129,-0.00005722,0.00021552,0.00022365,
 0.00003047,0.00009871,-0.00019491,0.00058118,0.00009569,-0.00258882,0.
 00006966,-0.00001471,-0.00008155,0.00003490,-0.00001853,0.00014179,0.0
 0001615,0.00002179,-0.00004237,0.00016281,-0.00005213,-0.00014497,-0.0
 0038761,0.00009469,-0.00067953,-0.00000181,-0.00001176,0.00000352,0.00
 000541,0.00000786,-0.00000167,-0.00000084,-0.00000109,-0.00000062,0.00
 000094,0.00000255,-0.00000346,-0.00000089,-0.00000445,0.00000655,0.000
 01631,0.00000990,0.00000506,-0.00018904,0.00000159,0.00003933,0.000190
 65,0.00021477,-0.00090420,-0.00018029,-0.00023242,-0.00123641,-0.00172
 326,-0.00018407,0.00615454,-0.00115536,0.00451074,0.00251569,-0.007267
 98,0.00363717,-0.03664366,0.00252133,-0.00439191,0.00335424,-0.0019198
 7,-0.00133731,0.00797342,0.00000026,0.00000064,0.00000066,-0.00000003,
 0.00000014,0.00000025,-0.00000018,0.00000005,0.00000035,0.00000066,0.0
 0000020,0.00000087,0.00000166,0.00000224,0.00000161,-0.00000876,0.0000
 2736,-0.00002811,-0.00000446,-0.00001602,0.00004180,0.00000364,-0.0000
 0077,0.00001186,0.00000796,-0.00000826,0.00008455,-0.00000340,0.000000
 51,-0.00003362,-0.00054123,-0.00088735,0.00158346,0.00000036,0.0000002
 8,0.00000101,0.00000027,-0.00000035,0.00000090,0.00000208,0.00000064,0
 .00000283,0.00002778,0.00004169,0.00009349,0.00876589,-0.00191798,0.02
 462065,-0.00000599,-0.00000099,0.00000186,-0.00000762,0.00002399,-0.00
 000066,0.00001640,-0.00000249,-0.00000150,-0.00001947,0.00001277,0.000
 00219,0.00002034,-0.00002699,-0.00000076,-0.00000895,0.00001689,-0.000
 00028,-0.00003767,0.00003818,-0.00000079,0.00007179,-0.00003659,0.0000
 1366,0.00002881,0.00026378,0.00003641,0.00001457,-0.00000129,-0.000008
 02,-0.00002274,0.00001811,0.00016690,0.00005119,-0.00002022,-0.0000108
 3,-0.00057961,0.00048318,-0.00005408,-0.00005805,-0.00032288,0.0000530
 7,-0.00005859,0.00004611,-0.00000169,-0.00001559,-0.00003799,-0.000014
 81,-0.00000622,-0.00000680,0.00001375,-0.00004321,0.00001096,-0.000050
 14,-0.00000781,0.00002483,-0.00000516,-0.00000091,0.00000196,-0.000000
 53,-0.00000680,0.00001002,0.00000106,-0.00000071,-0.00000304,0.0000018
 4,-0.00001072,0.00003594,0.00000481,-0.00007004,-0.00006247,-0.0000005
 4,-0.00006954,0.00003176,-0.00000279,-0.00053085,-0.00043613,-0.000112
 30,0.00090817,0.00280736,-0.00097654,0.00067858,-0.00001726,0.00028718
 ,0.00091173,-0.00284997,-0.00167423,-0.01160886,0.00329171,-0.00231056
 ,-0.33217845,0.00935718,-0.05293172,-0.01017562,-0.00255582,-0.0025046
 3,0.00000167,0.00000605,-0.00000127,-0.00000112,0.00000337,-0.00000065
 ,-0.00000389,-0.00000065,0.00000003,0.00000345,-0.00000247,-0.00000129
 ,0.00000211,-0.00000121,-0.00000152,-0.00002021,0.00000123,-0.00001100
 ,-0.00001934,0.00000241,-0.00002387,-0.00002367,-0.00002251,0.00000112
 ,-0.00000313,-0.00000669,-0.00000165,-0.00000383,-0.00002168,-0.000004
 96,-0.00000217,0.00000628,0.00000598,-0.00000201,0.00000384,-0.0000002
 7,-0.00000693,0.00000348,0.00000001,0.00000219,-0.00000496,-0.00000275
 ,-0.00000474,-0.00001008,-0.00001410,0.00070395,-0.00038441,0.00091220
 ,0.35154341,-0.00000069,-0.00000059,-0.00000045,0.00000310,-0.00000946
 ,0.00000018,-0.00000805,0.00000115,0.00000124,0.00001228,-0.00000688,-
 0.00000203,-0.00002037,0.00000816,0.00000239,0.00000940,-0.00000598,-0
 .00000130,0.00003925,-0.00003393,-0.00000347,-0.00006106,0.00002428,0.
 00000328,0.00001559,-0.00043510,0.00002842,-0.00005071,0.00000816,-0.0
 0000711,0.00021908,0.00016378,0.00010933,0.00008048,-0.00024737,-0.000
 01201,-0.00102192,0.00090098,-0.00003976,-0.00022778,-0.00024500,-0.00
 001774,-0.00013467,-0.00004462,-0.00002336,-0.00009774,0.00005361,-0.0
 0001118,0.00013098,0.00004085,0.00002744,-0.00000418,-0.00007334,-0.00
 002182,0.00000074,-0.00000178,0.00000036,-0.00000628,0.00000146,0.0000
 0133,-0.00000143,-0.00000240,0.00000005,0.00001347,0.00000428,-0.00000
 719,0.00000344,-0.00004431,0.00000054,0.00012123,0.00005655,-0.0000008
 1,0.00002676,-0.00002186,-0.00005033,0.00121681,0.00064665,0.00018142,
 0.00233573,-0.00469174,-0.00029991,-0.00031780,-0.00133627,-0.00006839
 ,-0.00236414,-0.00448877,-0.00144927,-0.02788781,0.00523001,-0.0047709
 9,0.00957243,-0.06060135,-0.00041471,0.02859221,0.00361897,0.00536452,
 0.00000004,-0.00000252,0.00000059,-0.00000020,-0.00000067,0.00000029,0
 .00000068,0.00000040,0.,-0.00000270,-0.00000060,0.00000162,-0.00000484
 ,-0.00000317,0.00000352,0.00000411,0.00002048,-0.00000092,-0.00000776,
 0.00001206,-0.00000904,-0.00002889,-0.00003596,-0.00000558,-0.00000079
 ,-0.00000304,-0.00000052,-0.00000584,-0.00001868,-0.00000437,0.0000126
 3,-0.00002275,0.00000101,0.00000119,-0.00000136,0.00000035,0.00000348,
 -0.00000423,0.00000012,0.00000004,0.00000388,0.00000143,-0.00001113,-0
 .00001949,0.00002025,0.00016810,0.00085256,0.00042154,-0.00993052,0.05
 991977,-0.00000149,0.00000111,-0.00000161,-0.00000040,0.00000278,-0.00
 000110,0.00000321,0.00000092,-0.00000130,-0.00000674,-0.00000118,-0.00
 000167,0.00000235,0.00000494,-0.00000200,0.00000276,-0.00000083,0.0000
 0070,-0.00001166,-0.00001293,-0.00000332,-0.00000787,0.00001879,-0.000
 00530,-0.00001605,0.00000265,-0.00019662,-0.00001558,0.00000833,0.0000
 4221,0.00017572,0.00005928,-0.00085589,-0.00000163,-0.00008999,0.00007
 137,-0.00015936,0.00029428,0.00011558,-0.00002119,0.00002772,-0.000461
 96,-0.00002713,-0.00002789,-0.00001813,-0.00004759,0.00001156,0.000043
 21,0.00005250,0.00003043,-0.00007152,-0.00002840,-0.00009136,0.0002225
 2,0.00000061,0.00000811,0.00000463,-0.00000227,-0.00000076,0.00000142,
 -0.00000239,0.00000328,-0.00000162,0.00000520,0.00000115,-0.00000132,-
 0.00000041,-0.00000326,-0.00000491,0.00000440,0.00000082,-0.00001464,-
 0.00001122,0.00003515,0.00001272,-0.00000474,0.00010383,0.00012526,-0.
 00034102,-0.00022119,0.00695159,0.00022452,-0.00038381,-0.00098810,-0.
 00162548,-0.00154889,0.00818298,-0.00432398,0.00113272,0.00195014,-0.0
 5306314,-0.00110080,-0.04684217,-0.00082816,0.00014298,0.00250216,0.00
 000020,0.00000133,0.00000119,0.00000017,0.00000037,0.00000080,0.000000
 15,-0.00000047,0.00000101,0.00000172,0.00000058,0.00000253,0.00000285,
 0.00000241,0.00000744,-0.00000598,-0.00000286,0.00004447,-0.00001817,-
 0.00001059,0.00010676,-0.00000257,-0.00000531,-0.00003396,-0.00000217,
 -0.00000165,0.00000240,-0.00000247,-0.00000729,0.00001271,0.00000097,0
 .00000644,-0.00003564,-0.00000018,0.00000022,0.00000090,-0.00000001,-0
 .00000012,0.00000123,0.00000185,-0.00000012,0.00000411,-0.00003602,0.0
 0003316,0.00003326,0.00089156,0.00034607,-0.00418551,0.05842327,0.0008
 1194,0.03675192,-0.00000605,-0.00000628,0.00000167,-0.00000143,-0.0000
 0586,0.00000077,-0.00000423,0.00000527,0.00000156,0.00001451,-0.000012
 39,0.00000070,-0.00001964,0.00001730,0.00000902,0.00002126,-0.00000646
 ,-0.00000407,-0.00000707,-0.00001216,-0.00001390,0.00052550,0.00047681
 ,0.00010908,-0.00025680,0.00016596,0.00015473,0.00028608,-0.00012865,-
 0.00006025,0.00015577,-0.00164419,-0.00011354,-0.00058171,0.00009998,0
 .00005707,0.00021594,0.00017445,0.00021198,-0.00008127,0.00015919,-0.0
 0001547,0.00000420,-0.00006327,-0.00001700,-0.00007095,0.00002389,-0.0
 0000809,0.00008340,0.00002892,0.00002851,-0.00002643,-0.00008691,-0.00
 001705,0.00001891,-0.00019433,0.00000566,0.00005439,0.00005087,-0.0000
 2434,-0.00001285,-0.00000551,0.00000319,0.00003032,-0.00000024,-0.0000
 1119,-0.00001652,0.00001157,0.00001386,0.00000456,-0.00004407,0.000006
 60,-0.00083665,0.00021143,0.00001577,0.00096965,-0.00143829,0.00091737
 ,-0.01076895,-0.02738473,-0.00486265,-0.00507961,0.00204205,-0.0022323
 8,-0.00091070,0.00058091,0.00009016,-0.00037823,0.00319145,-0.00132400
 ,0.01148581,0.01414775,0.00262874,-0.13895433,-0.12433320,-0.03008002,
 -0.00000030,-0.00000482,0.00000002,0.00000103,-0.00000329,-0.00000020,
 0.00000297,-0.00000086,-0.00000099,-0.00000099,0.00000396,-0.00000102,
 0.00001258,0.00003712,-0.00000929,-0.00002910,0.00006940,-0.00002455,-
 0.00011289,-0.00014473,-0.00001232,-0.00000094,0.00000142,0.00000033,0
 .00000265,-0.00000117,-0.00000436,-0.00000110,-0.00000609,0.00000097,0
 .00002199,-0.00002504,-0.00001890,0.00001165,-0.00000422,-0.00000208,0
 .00000219,0.00000004,-0.00000185,0.00000595,0.00000552,-0.00000034,0.0
 0027903,0.00173670,-0.00110813,0.00029593,0.00066919,0.00014309,0.0006
 5671,-0.00038594,0.00082149,0.14299574,0.00000213,-0.00000022,-0.00000
 094,-0.00000380,0.00000846,0.00000037,0.00000437,0.00000019,-0.0000018
 5,-0.00000656,0.00001091,0.00000017,0.00000817,-0.00002493,0.00000722,
 -0.00000759,0.00000646,0.00000265,0.00002242,0.00005724,-0.00001943,0.
 00017957,0.00006089,-0.00001406,-0.00012543,0.00023344,-0.00003930,-0.
 00002187,-0.00005507,0.00000420,0.00002618,0.00012559,0.00005290,-0.00
 005568,0.00009919,0.00002546,-0.00011346,-0.00007998,0.00001813,0.0000
 3581,-0.00007874,0.00001110,-0.00001805,0.00003507,-0.00000341,0.00002
 440,-0.00002170,0.00000713,-0.00005603,-0.00000063,-0.00000009,0.00003
 872,-0.00003262,-0.00000084,0.00001601,-0.00003405,-0.00002650,0.00000
 713,0.00000354,-0.00000342,-0.00000252,0.00001031,0.00000230,-0.000000
 01,-0.00000618,-0.00000038,-0.00002079,0.00004547,0.00000050,-0.000075
 22,-0.00009935,0.00001564,0.00197614,-0.00138788,0.00089159,-0.0002731
 0,-0.00154469,0.00046559,-0.00007953,0.00463016,0.00025039,0.00127502,
 0.00126506,-0.00033212,0.00085424,0.00020066,0.00024642,0.00393642,-0.
 00330388,-0.00006910,-0.01740019,-0.01878632,-0.00457889,-0.12408532,-
 0.25340178,-0.04328376,0.00000070,0.00000335,-0.00000078,-0.00000072,0
 .00000196,-0.00000024,-0.00000135,-0.00000124,0.00000018,0.00000174,-0
 .00000222,0.00000058,-0.00000754,-0.00000658,0.00001246,-0.00001816,-0
 .00000823,0.00001341,0.00001065,0.00000456,-0.00003696,-0.00000796,-0.
 00000133,-0.00000189,-0.00000976,-0.00000520,-0.00000383,0.00000161,-0
 .00000684,-0.00000416,-0.00004081,0.00007193,-0.00000539,0.00000021,0.
 00000223,-0.00000064,-0.00000496,0.00000388,0.00000012,0.00000552,-0.0
 0000354,-0.00000334,0.00243059,-0.00245118,0.00137218,-0.00071761,-0.0
 0098648,-0.00029612,0.00026474,0.00083518,0.00041797,0.13203155,0.2746
 1510,-0.00000569,-0.00000615,0.00000408,-0.00000359,0.00001384,-0.0000
 0246,0.00000972,-0.00000900,0.00000314,-0.00001126,0.00000224,-0.00000
 786,0.00002099,-0.00001923,-0.00005557,0.00000501,0.00001858,-0.000002
 34,-0.00004397,0.00006429,0.00001558,0.00046850,0.00002256,-0.00017151
 ,0.00004413,-0.00001177,0.00000498,0.00004369,0.00005391,0.00014215,0.
 00011535,-0.00070756,0.00025013,-0.00009444,0.00033156,-0.00041362,0.0
 0003619,-0.00012597,-0.00081724,0.00007600,-0.00016524,0.00007692,0.00
 000506,0.00008829,0.00007127,0.00007337,-0.00005550,0.00000339,-0.0000
 7146,-0.00003539,-0.00009262,-0.00002482,0.00010127,0.00004234,-0.0000
 1325,-0.00013292,-0.00003436,0.00005042,0.00001740,0.00001745,0.000000
 44,-0.00001397,-0.00000474,0.00001577,-0.00000416,-0.00000248,-0.00000
 519,-0.00001309,-0.00001047,0.00006781,0.00002239,0.00002692,-0.001653
 93,-0.00012706,0.00001959,0.00100472,0.00143825,-0.00396525,-0.0003351
 7,-0.00594333,0.00334477,-0.00222666,-0.00004467,0.00720797,0.00006292
 ,0.00054288,-0.00094837,-0.00112229,-0.00012191,0.00676299,0.00022379,
 0.00108578,0.00367401,-0.03174304,-0.04318886,-0.04776085,0.00000026,0
 .00000066,0.00000259,0.00000090,-0.00000109,0.00000029,0.00000042,0.00
 000017,0.00000137,0.00000264,0.00000471,0.00000508,0.00001222,0.000040
 32,0.00002979,-0.00000589,0.00002302,0.00000871,-0.00002683,-0.0000288
 5,-0.00006182,-0.00000087,0.00000086,0.00000040,-0.00000143,-0.0000030
 5,0.00002186,-0.00000195,-0.00000229,-0.00000265,-0.00000820,-0.000007
 86,0.00008427,0.00000677,-0.00000123,0.00000283,0.00000275,-0.00000143
 ,0.00000411,0.00000034,0.00000334,0.00000122,-0.00052267,0.00167136,0.
 00064209,0.00002622,0.00007610,-0.00009327,0.00080056,0.00023907,-0.00
 346891,0.03474562,0.04490874,0.03544410\\-0.00000130,0.00000014,0.,-0.
 00000140,-0.00000010,-0.00000003,-0.00000112,-0.00000022,0.,-0.0000011
 1,0.00000023,0.,-0.00000090,0.00000012,-0.00000002,-0.00000087,-0.0000
 0009,-0.00000003,-0.00000061,0.00000032,-0.00000004,-0.00000049,0.0000
 0016,0.,0.00000003,-0.00000015,-0.00000006,0.00000024,-0.00000020,0.00
 000001,0.00000049,-0.00000016,0.,0.00000061,-0.00000033,-0.00000004,0.
 00000087,0.00000009,-0.00000002,0.00000089,-0.00000012,-0.00000002,0.0
 0000111,-0.00000023,0.,0.00000130,-0.00000014,0.,0.00000140,0.00000010
 ,-0.00000003,0.00000112,0.00000022,0.,-0.00000055,-0.00000021,0.000000
 05,-0.00000079,-0.00000020,0.00000004,-0.00000062,-0.00000052,0.000000
 02,-0.00000044,-0.00000072,0.00000001,-0.00000025,-0.00000037,0.000000
 06,-0.00000026,-0.00000027,0.,-0.00000024,0.00000018,0.00000001,-0.000
 00002,0.00000015,-0.00000007,0.00000026,0.00000027,0.,0.00000055,0.000
 00022,0.00000005,0.00000078,0.00000020,0.00000004,0.00000062,0.0000005
 2,0.00000003,0.00000044,0.00000072,0.00000001,0.00000024,0.00000038,0.
 00000006,-0.00000144,0.00000031,0.,-0.00000150,-0.00000014,0.,-0.00000
 110,-0.00000041,0.,-0.00000103,0.00000048,0.00000002,-0.00000061,0.000
 00045,0.,0.00000018,-0.00000047,0.,0.00000061,-0.00000045,0.,0.0000010
 3,-0.00000048,0.00000002,0.00000144,-0.00000031,0.,0.00000150,0.000000
 14,0.,0.00000110,0.00000041,0.,-0.00000082,-0.00000062,-0.00000004,-0.
 00000045,-0.00000081,-0.00000002,-0.00000008,-0.00000054,0.,-0.0000001
 7,0.00000047,0.,0.00000082,0.00000062,-0.00000004,0.00000045,0.0000008
 1,-0.00000002,0.00000008,0.00000055,0.\\\@


 DEFINE YOUR TERMS, YOU WILL PERMIT ME AGAIN TO SAY, 
 OR WE SHALL NEVER UNDERSTAND ONE ANOTHER.

                                    -- VOLTAIRE
 Job cpu time:      10 days  2 hours 56 minutes 58.1 seconds.
 File lengths (MBytes):  RWF=   7634 Int=      0 D2E=      0 Chk=     87 Scr=      1
 Normal termination of Gaussian 09 at Wed Jul 31 10:15:32 2019.
