 Entering Gaussian System, Link 0=g09
 Initial command:
 /home/minenky/programs//g09/l1.exe "/local/scratch/minenky/m1_00_74-86-20_C2H2_wB97XD/Gau-211862.inp" -scrdir="/local/scratch/minenky/m1_00_74-86-20_C2H2_wB97XD/"
 Entering Link 1 = /home/minenky/programs//g09/l1.exe PID=    211866.
  
 Copyright (c) 1988,1990,1992,1993,1995,1998,2003,2009,2013,
            Gaussian, Inc.  All Rights Reserved.
  
 This is part of the Gaussian(R) 09 program.  It is based on
 the Gaussian(R) 03 system (copyright 2003, Gaussian, Inc.),
 the Gaussian(R) 98 system (copyright 1998, Gaussian, Inc.),
 the Gaussian(R) 94 system (copyright 1995, Gaussian, Inc.),
 the Gaussian 92(TM) system (copyright 1992, Gaussian, Inc.),
 the Gaussian 90(TM) system (copyright 1990, Gaussian, Inc.),
 the Gaussian 88(TM) system (copyright 1988, Gaussian, Inc.),
 the Gaussian 86(TM) system (copyright 1986, Carnegie Mellon
 University), and the Gaussian 82(TM) system (copyright 1983,
 Carnegie Mellon University). Gaussian is a federally registered
 trademark of Gaussian, Inc.
  
 This software contains proprietary and confidential information,
 including trade secrets, belonging to Gaussian, Inc.
  
 This software is provided under written license and may be
 used, copied, transmitted, or stored only in accord with that
 written license.
  
 The following legend is applicable only to US Government
 contracts under FAR:
  
                    RESTRICTED RIGHTS LEGEND
  
 Use, reproduction and disclosure by the US Government is
 subject to restrictions as set forth in subparagraphs (a)
 and (c) of the Commercial Computer Software - Restricted
 Rights clause in FAR 52.227-19.
  
 Gaussian, Inc.
 340 Quinnipiac St., Bldg. 40, Wallingford CT 06492
  
  
 ---------------------------------------------------------------
 Warning -- This program may not be used in any manner that
 competes with the business of Gaussian, Inc. or will provide
 assistance to any competitor of Gaussian, Inc.  The licensee
 of this program is prohibited from giving any competitor of
 Gaussian, Inc. access to this program.  By using this program,
 the user acknowledges that Gaussian, Inc. is engaged in the
 business of creating and licensing software in the field of
 computational chemistry and represents and warrants to the
 licensee that it is not a competitor of Gaussian, Inc. and that
 it will not use this program in any manner prohibited above.
 ---------------------------------------------------------------
  

 Cite this work as:
 Gaussian 09, Revision D.01,
 M. J. Frisch, G. W. Trucks, H. B. Schlegel, G. E. Scuseria, 
 M. A. Robb, J. R. Cheeseman, G. Scalmani, V. Barone, B. Mennucci, 
 G. A. Petersson, H. Nakatsuji, M. Caricato, X. Li, H. P. Hratchian, 
 A. F. Izmaylov, J. Bloino, G. Zheng, J. L. Sonnenberg, M. Hada, 
 M. Ehara, K. Toyota, R. Fukuda, J. Hasegawa, M. Ishida, T. Nakajima, 
 Y. Honda, O. Kitao, H. Nakai, T. Vreven, J. A. Montgomery, Jr., 
 J. E. Peralta, F. Ogliaro, M. Bearpark, J. J. Heyd, E. Brothers, 
 K. N. Kudin, V. N. Staroverov, T. Keith, R. Kobayashi, J. Normand, 
 K. Raghavachari, A. Rendell, J. C. Burant, S. S. Iyengar, J. Tomasi, 
 M. Cossi, N. Rega, J. M. Millam, M. Klene, J. E. Knox, J. B. Cross, 
 V. Bakken, C. Adamo, J. Jaramillo, R. Gomperts, R. E. Stratmann, 
 O. Yazyev, A. J. Austin, R. Cammi, C. Pomelli, J. W. Ochterski, 
 R. L. Martin, K. Morokuma, V. G. Zakrzewski, G. A. Voth, 
 P. Salvador, J. J. Dannenberg, S. Dapprich, A. D. Daniels, 
 O. Farkas, J. B. Foresman, J. V. Ortiz, J. Cioslowski, 
 and D. J. Fox, Gaussian, Inc., Wallingford CT, 2013.
 
 ******************************************
 Gaussian 09:  AM64L-G09RevD.01 24-Apr-2013
                 9-Jul-2021 
 ******************************************
 %Mem=32000MB
 %NProcShared=16
 Will use up to   16 processors via shared memory.
 %Chk=m1_00_74-86-20_C2H2_wB97XD
 ----------------------------------------------------------------------
 #P wB97XD/def2tzvp opt=(tight) freq integral(Grid=ultrafine) # SCF(Max
 Cycle=380) 5d 7f GFPrint
 ----------------------------------------------------------------------
 1/7=10,14=-1,18=20,19=15,26=4,38=1/1,3;
 2/9=110,12=2,17=6,18=5,40=1/2;
 3/5=44,7=101,8=11,11=2,16=1,24=100,25=1,30=1,71=1,74=-58,75=-5/1,2,3;
 4//1;
 5/5=2,7=380,38=5/2;
 6/7=2,8=2,9=2,10=2,28=1/1;
 7//1,2,3,16;
 1/7=10,14=-1,18=20,19=15,26=4/3(2);
 2/9=110/2;
 99//99;
 2/9=110/2;
 3/5=44,7=101,8=11,11=2,16=1,25=1,30=1,71=1,74=-58,75=-5/1,2,3;
 4/5=5,16=3,69=1/1;
 5/5=2,7=380,38=5/2;
 7//1,2,3,16;
 1/7=10,14=-1,18=20,19=15,26=4/3(-5);
 2/9=110/2;
 6/7=2,8=2,9=2,10=2,19=2,28=1/1;
 99/9=1/99;
 Leave Link    1 at Fri Jul  9 19:19:35 2021, MaxMem=  4194304000 cpu:         1.7
 (Enter /home/minenky/programs//g09/l101.exe)
 ---------------------------------------
 The PBEPBE optimization and frequencies
 ---------------------------------------
 Symbolic Z-matrix:
 Charge =  0 Multiplicity = 1
 C                     0.        0.        0.5984 
 C                     0.        0.       -0.5984 
 H                     0.        0.        1.66107 
 H                     0.        0.       -1.66107 
 
 NAtoms=      4 NQM=        4 NQMF=       0 NMMI=      0 NMMIF=      0
                NMic=       0 NMicF=      0.
                    Isotopes and Nuclear Properties:
 (Nuclear quadrupole moments (NQMom) in fm**2, nuclear magnetic moments (NMagM)
  in nuclear magnetons)

  Atom         1           2           3           4
 IAtWgt=          12          12           1           1
 AtmWgt=  12.0000000  12.0000000   1.0078250   1.0078250
 NucSpn=           0           0           1           1
 AtZEff=   0.0000000   0.0000000   0.0000000   0.0000000
 NQMom=    0.0000000   0.0000000   0.0000000   0.0000000
 NMagM=    0.0000000   0.0000000   2.7928460   2.7928460
 AtZNuc=   6.0000000   6.0000000   1.0000000   1.0000000
 Leave Link  101 at Fri Jul  9 19:19:36 2021, MaxMem=  4194304000 cpu:         1.8
 (Enter /home/minenky/programs//g09/l103.exe)

 GradGradGradGradGradGradGradGradGradGradGradGradGradGradGradGradGradGrad
 Berny optimization.
 Initialization pass.
                           ----------------------------
                           !    Initial Parameters    !
                           ! (Angstroms and Degrees)  !
 --------------------------                            --------------------------
 ! Name  Definition              Value          Derivative Info.                !
 --------------------------------------------------------------------------------
 ! R1    R(1,2)                  1.1968         estimate D2E/DX2                !
 ! R2    R(1,3)                  1.0627         estimate D2E/DX2                !
 ! R3    R(2,4)                  1.0627         estimate D2E/DX2                !
 ! A1    L(2,1,3,-1,-1)        180.0            estimate D2E/DX2                !
 ! A2    L(1,2,4,-1,-1)        180.0            estimate D2E/DX2                !
 ! A3    L(2,1,3,-2,-2)        180.0            estimate D2E/DX2                !
 ! A4    L(1,2,4,-2,-2)        180.0            estimate D2E/DX2                !
 --------------------------------------------------------------------------------
 Trust Radius=3.00D-01 FncErr=1.00D-07 GrdErr=1.00D-06
 Number of steps in this run=     20 maximum allowed number of steps=    100.
 GradGradGradGradGradGradGradGradGradGradGradGradGradGradGradGradGradGrad

 Leave Link  103 at Fri Jul  9 19:19:36 2021, MaxMem=  4194304000 cpu:         0.0
 (Enter /home/minenky/programs//g09/l202.exe)
                          Input orientation:                          
 ---------------------------------------------------------------------
 Center     Atomic      Atomic             Coordinates (Angstroms)
 Number     Number       Type             X           Y           Z
 ---------------------------------------------------------------------
      1          6           0        0.000000    0.000000    0.598395
      2          6           0        0.000000    0.000000   -0.598395
      3          1           0        0.000000    0.000000    1.661067
      4          1           0        0.000000    0.000000   -1.661067
 ---------------------------------------------------------------------
                    Distance matrix (angstroms):
                    1          2          3          4
     1  C    0.000000
     2  C    1.196790   0.000000
     3  H    1.062672   2.259462   0.000000
     4  H    2.259462   1.062672   3.322134   0.000000
 Stoichiometry    C2H2
 Framework group  D*H[C*(HC.CH)]
 Deg. of freedom     2
 Full point group                 D*H     NOp   8
 Largest Abelian subgroup         D2H     NOp   8
 Largest concise Abelian subgroup C2      NOp   2
                         Standard orientation:                         
 ---------------------------------------------------------------------
 Center     Atomic      Atomic             Coordinates (Angstroms)
 Number     Number       Type             X           Y           Z
 ---------------------------------------------------------------------
      1          6           0        0.000000    0.000000    0.598395
      2          6           0        0.000000    0.000000   -0.598395
      3          1           0        0.000000    0.000000    1.661067
      4          1           0        0.000000    0.000000   -1.661067
 ---------------------------------------------------------------------
 Rotational constants (GHZ):      0.0000000     35.7024435     35.7024435
 Leave Link  202 at Fri Jul  9 19:19:36 2021, MaxMem=  4194304000 cpu:         0.3
 (Enter /home/minenky/programs//g09/l301.exe)
 Standard basis: def2TZVP (5D, 7F)
 ======================================================================================================
                                       Pseudopotential Parameters
 ======================================================================================================
  Center     Atomic      Valence      Angular      Power
  Number     Number     Electrons     Momentum     of R      Exponent        Coefficient   SO-Coeffient
 ======================================================================================================
    1          6
                                   No pseudopotential on this center.
    2          6
                                   No pseudopotential on this center.
    3          1
                                   No pseudopotential on this center.
    4          1
                                   No pseudopotential on this center.
 ======================================================================================================
 Ernie: Thresh=  0.10000D-02 Tol=  0.10000D-05 Strict=F.
 AO basis set (Overlap normalization):
 Atom C1       Shell     1 S   6     bf    1 -     1          0.000000000000          0.000000000000          1.130802669288
      0.1357534968D+05  0.6064550360D-03
      0.2035233368D+04  0.4697908888D-02
      0.4632256236D+03  0.2433247765D-01
      0.1312001960D+03  0.9739996831D-01
      0.4285301589D+02  0.3019558425D+00
      0.1558418577D+02  0.6623360914D+00
 Atom C1       Shell     2 S   2     bf    2 -     2          0.000000000000          0.000000000000          1.130802669288
      0.6206713851D+01  0.6559530854D+00
      0.2576489653D+01  0.3758563329D+00
 Atom C1       Shell     3 S   1     bf    3 -     3          0.000000000000          0.000000000000          1.130802669288
      0.5769633942D+00  0.1000000000D+01
 Atom C1       Shell     4 S   1     bf    4 -     4          0.000000000000          0.000000000000          1.130802669288
      0.2297283136D+00  0.1000000000D+01
 Atom C1       Shell     5 S   1     bf    5 -     5          0.000000000000          0.000000000000          1.130802669288
      0.9516444003D-01  0.1000000000D+01
 Atom C1       Shell     6 P   4     bf    6 -     8          0.000000000000          0.000000000000          1.130802669288
      0.3469723224D+02  0.1132722000D-01
      0.7958262283D+01  0.7616965920D-01
      0.2378082688D+01  0.3019225220D+00
      0.8143320818D+00  0.7278502735D+00
 Atom C1       Shell     7 P   1     bf    9 -    11          0.000000000000          0.000000000000          1.130802669288
      0.2888754725D+00  0.1000000000D+01
 Atom C1       Shell     8 P   1     bf   12 -    14          0.000000000000          0.000000000000          1.130802669288
      0.1005682367D+00  0.1000000000D+01
 Atom C1       Shell     9 D   1     bf   15 -    19          0.000000000000          0.000000000000          1.130802669288
      0.1097000000D+01  0.1000000000D+01
 Atom C1       Shell    10 D   1     bf   20 -    24          0.000000000000          0.000000000000          1.130802669288
      0.3180000000D+00  0.1000000000D+01
 Atom C1       Shell    11 F   1     bf   25 -    31          0.000000000000          0.000000000000          1.130802669288
      0.7610000000D+00  0.1000000000D+01
 Atom C2       Shell    12 S   6     bf   32 -    32          0.000000000000          0.000000000000         -1.130802669288
      0.1357534968D+05  0.6064550360D-03
      0.2035233368D+04  0.4697908888D-02
      0.4632256236D+03  0.2433247765D-01
      0.1312001960D+03  0.9739996831D-01
      0.4285301589D+02  0.3019558425D+00
      0.1558418577D+02  0.6623360914D+00
 Atom C2       Shell    13 S   2     bf   33 -    33          0.000000000000          0.000000000000         -1.130802669288
      0.6206713851D+01  0.6559530854D+00
      0.2576489653D+01  0.3758563329D+00
 Atom C2       Shell    14 S   1     bf   34 -    34          0.000000000000          0.000000000000         -1.130802669288
      0.5769633942D+00  0.1000000000D+01
 Atom C2       Shell    15 S   1     bf   35 -    35          0.000000000000          0.000000000000         -1.130802669288
      0.2297283136D+00  0.1000000000D+01
 Atom C2       Shell    16 S   1     bf   36 -    36          0.000000000000          0.000000000000         -1.130802669288
      0.9516444003D-01  0.1000000000D+01
 Atom C2       Shell    17 P   4     bf   37 -    39          0.000000000000          0.000000000000         -1.130802669288
      0.3469723224D+02  0.1132722000D-01
      0.7958262283D+01  0.7616965920D-01
      0.2378082688D+01  0.3019225220D+00
      0.8143320818D+00  0.7278502735D+00
 Atom C2       Shell    18 P   1     bf   40 -    42          0.000000000000          0.000000000000         -1.130802669288
      0.2888754725D+00  0.1000000000D+01
 Atom C2       Shell    19 P   1     bf   43 -    45          0.000000000000          0.000000000000         -1.130802669288
      0.1005682367D+00  0.1000000000D+01
 Atom C2       Shell    20 D   1     bf   46 -    50          0.000000000000          0.000000000000         -1.130802669288
      0.1097000000D+01  0.1000000000D+01
 Atom C2       Shell    21 D   1     bf   51 -    55          0.000000000000          0.000000000000         -1.130802669288
      0.3180000000D+00  0.1000000000D+01
 Atom C2       Shell    22 F   1     bf   56 -    62          0.000000000000          0.000000000000         -1.130802669288
      0.7610000000D+00  0.1000000000D+01
 Atom H3       Shell    23 S   3     bf   63 -    63          0.000000000000          0.000000000000          3.138961718374
      0.3406134100D+02  0.2543930721D-01
      0.5123574600D+01  0.1900859489D+00
      0.1164662600D+01  0.8524411301D+00
 Atom H3       Shell    24 S   1     bf   64 -    64          0.000000000000          0.000000000000          3.138961718374
      0.3272304100D+00  0.1000000000D+01
 Atom H3       Shell    25 S   1     bf   65 -    65          0.000000000000          0.000000000000          3.138961718374
      0.1030724100D+00  0.1000000000D+01
 Atom H3       Shell    26 P   1     bf   66 -    68          0.000000000000          0.000000000000          3.138961718374
      0.8000000000D+00  0.1000000000D+01
 Atom H4       Shell    27 S   3     bf   69 -    69          0.000000000000          0.000000000000         -3.138961718374
      0.3406134100D+02  0.2543930721D-01
      0.5123574600D+01  0.1900859489D+00
      0.1164662600D+01  0.8524411301D+00
 Atom H4       Shell    28 S   1     bf   70 -    70          0.000000000000          0.000000000000         -3.138961718374
      0.3272304100D+00  0.1000000000D+01
 Atom H4       Shell    29 S   1     bf   71 -    71          0.000000000000          0.000000000000         -3.138961718374
      0.1030724100D+00  0.1000000000D+01
 Atom H4       Shell    30 P   1     bf   72 -    74          0.000000000000          0.000000000000         -3.138961718374
      0.8000000000D+00  0.1000000000D+01
 There are    21 symmetry adapted cartesian basis functions of AG  symmetry.
 There are     3 symmetry adapted cartesian basis functions of B1G symmetry.
 There are     9 symmetry adapted cartesian basis functions of B2G symmetry.
 There are     9 symmetry adapted cartesian basis functions of B3G symmetry.
 There are     3 symmetry adapted cartesian basis functions of AU  symmetry.
 There are    21 symmetry adapted cartesian basis functions of B1U symmetry.
 There are     9 symmetry adapted cartesian basis functions of B2U symmetry.
 There are     9 symmetry adapted cartesian basis functions of B3U symmetry.
 There are    18 symmetry adapted basis functions of AG  symmetry.
 There are     3 symmetry adapted basis functions of B1G symmetry.
 There are     8 symmetry adapted basis functions of B2G symmetry.
 There are     8 symmetry adapted basis functions of B3G symmetry.
 There are     3 symmetry adapted basis functions of AU  symmetry.
 There are    18 symmetry adapted basis functions of B1U symmetry.
 There are     8 symmetry adapted basis functions of B2U symmetry.
 There are     8 symmetry adapted basis functions of B3U symmetry.
    74 basis functions,   118 primitive gaussians,    84 cartesian basis functions
     7 alpha electrons        7 beta electrons
       nuclear repulsion energy        24.8632667996 Hartrees.
 IExCor= 4639 DFT=T Ex+Corr=wB97XD ExCW=0 ScaHFX=  1.000000
 ScaDFX=  1.000000  1.000000  1.000000  1.000000 ScalE2=  1.000000  1.000000
 IRadAn=      5 IRanWt=     -1 IRanGd=            0 ICorTp=0 IEmpDi=121
  HFx wShort=  0.000000 wLong=  0.200000 cFull=  0.222036 cShort=  0.000000 cLong=  0.777964
  DFx wShort=  0.000000 wLong=  0.200000 cFull=  0.000000 cShort=  0.000000 cLong=  1.000000
 NAtoms=    4 NActive=    4 NUniq=    2 SFac= 4.00D+00 NAtFMM=   60 NAOKFM=F Big=F
 Integral buffers will be    131072 words long.
 Raffenetti 2 integral format.
 Two-electron integral symmetry is turned on.
 R6Disp:  Grimme-D2 Dispersion energy=       -0.0002077921 Hartrees.
 Nuclear repulsion after empirical dispersion term =       24.8630590075 Hartrees.
 Leave Link  301 at Fri Jul  9 19:19:37 2021, MaxMem=  4194304000 cpu:         0.9
 (Enter /home/minenky/programs//g09/l302.exe)
 NPDir=0 NMtPBC=     1 NCelOv=     1 NCel=       1 NClECP=     1 NCelD=      1
         NCelK=      1 NCelE2=     1 NClLst=     1 CellRange=     0.0.
 One-electron integrals computed using PRISM.
 One-electron integral symmetry used in STVInt
   8 Symmetry operations used in ECPInt.
 ECPInt:  NShTT=     465 NPrTT=    1428 LenC2=     466 LenP2D=    1332.
 LDataN:  DoStor=T MaxTD1= 6 Len=  172
 NBasis=    74 RedAO= T EigKep=  4.17D-05  NBF=    18     3     8     8     3    18     8     8
 NBsUse=    74 1.00D-06 EigRej= -1.00D+00 NBFU=    18     3     8     8     3    18     8     8
 Precomputing XC quadrature grid using
 IXCGrd= 4 IRadAn=           5 IRanWt=          -1 IRanGd=           0 AccXCQ= 0.00D+00.
 Generated NRdTot=       0 NPtTot=           0 NUsed=           0 NTot=          32
 NSgBfM=    84    84    84    84    84 MxSgAt=     4 MxSgA2=     4.
 Leave Link  302 at Fri Jul  9 19:19:44 2021, MaxMem=  4194304000 cpu:        64.1
 (Enter /home/minenky/programs//g09/l303.exe)
 DipDrv:  MaxL=1.
 Leave Link  303 at Fri Jul  9 19:19:45 2021, MaxMem=  4194304000 cpu:         4.4
 (Enter /home/minenky/programs//g09/l401.exe)
 ExpMin= 9.52D-02 ExpMax= 1.36D+04 ExpMxC= 4.63D+02 IAcc=3 IRadAn=         5 AccDes= 0.00D+00
 Harris functional with IExCor= 4639 and IRadAn=       5 diagonalized for initial guess.
 HarFok:  IExCor= 4639 AccDes= 0.00D+00 IRadAn=         5 IDoV= 1 UseB2=F ITyADJ=14
 ICtDFT=  3500011 ScaDFX=  1.000000  1.000000  1.000000  1.000000
 FoFCou: FMM=F IPFlag=           0 FMFlag=      100000 FMFlg1=           0
         NFxFlg=           0 DoJE=T BraDBF=F KetDBF=T FulRan=T
         wScrn=  0.000000 ICntrl=     500 IOpCl=  0 I1Cent=   200000004 NGrid=           0
         NMat0=    1 NMatS0=      1 NMatT0=    0 NMatD0=    1 NMtDS0=    0 NMtDT0=    0
 Petite list used in FoFCou.
 Harris En= -73.7726844312408    
 JPrj=0 DoOrth=F DoCkMO=F.
 Initial guess orbital symmetries:
       Occupied  (SGG) (SGU) (SGG) (SGU) (SGG) (PIU) (PIU)
       Virtual   (PIG) (PIG) (SGU) (SGG) (SGG) (PIU) (PIU) (SGU)
                 (PIG) (PIG) (SGU) (SGG) (SGG) (DLTG) (DLTG) (SGU)
                 (PIU) (PIU) (SGU) (DLTU) (DLTU) (SGG) (PIG) (PIG)
                 (SGU) (PIU) (PIU) (SGG) (PIG) (PIG) (SGU) (SGG)
                 (PIU) (PIU) (SGU) (DLTG) (DLTG) (PHIU) (PHIU)
                 (PIG) (PIG) (SGG) (PIU) (PIU) (SGG) (SGU) (PHIG)
                 (PHIG) (SGU) (DLTG) (DLTG) (PIG) (PIG) (DLTU)
                 (DLTU) (DLTU) (DLTU) (SGG) (PIU) (PIU) (SGU) (PIG)
                 (PIG) (SGU) (SGG) (SGG) (SGU)
 The electronic state of the initial guess is 1-SGG.
 Leave Link  401 at Fri Jul  9 19:19:46 2021, MaxMem=  4194304000 cpu:        13.8
 (Enter /home/minenky/programs//g09/l502.exe)
 Closed shell SCF:
 Using DIIS extrapolation, IDIIS=  1040.
 Integral symmetry usage will be decided dynamically.
 Keep R1 ints in memory in symmetry-blocked form, NReq=9853719.
 IVT=      171266 IEndB=      171266 NGot=  4194304000 MDV=  4193609977
 LenX=  4193609977 LenY=  4193602480
 Requested convergence on RMS density matrix=1.00D-08 within 380 cycles.
 Requested convergence on MAX density matrix=1.00D-06.
 Requested convergence on             energy=1.00D-06.
 No special actions if energy rises.
 FoFCou: FMM=F IPFlag=           0 FMFlag=           0 FMFlg1=           0
         NFxFlg=           0 DoJE=F BraDBF=F KetDBF=F FulRan=T
         wScrn=  0.000000 ICntrl=     600 IOpCl=  0 I1Cent=           0 NGrid=           0
         NMat0=    1 NMatS0=   2775 NMatT0=    0 NMatD0=    1 NMtDS0=    0 NMtDT0=    0
 Petite list used in FoFCou.
 Integral accuracy reduced to 1.0D-05 until final iterations.

 Cycle   1  Pass 0  IDiag  1:
 E= -77.2984456900981    
 DIIS: error= 6.72D-02 at cycle   1 NSaved=   1.
 NSaved= 1 IEnMin= 1 EnMin= -77.2984456900981     IErMin= 1 ErrMin= 6.72D-02
 ErrMax= 6.72D-02  0.00D+00 EMaxC= 1.00D-01 BMatC= 1.72D-01 BMatP= 1.72D-01
 IDIUse=3 WtCom= 3.28D-01 WtEn= 6.72D-01
 Coeff-Com:  0.100D+01
 Coeff-En:   0.100D+01
 Coeff:      0.100D+01
 Gap=     0.465 Goal=   None    Shift=    0.000
 GapD=    0.465 DampG=2.000 DampE=0.500 DampFc=1.0000 IDamp=-1.
 RMSDP=4.89D-03 MaxDP=6.39D-02              OVMax= 6.80D-02

 Cycle   2  Pass 0  IDiag  1:
 E= -77.3236413780909     Delta-E=       -0.025195687993 Rises=F Damp=F
 DIIS: error= 1.14D-02 at cycle   2 NSaved=   2.
 NSaved= 2 IEnMin= 2 EnMin= -77.3236413780909     IErMin= 2 ErrMin= 1.14D-02
 ErrMax= 1.14D-02  0.00D+00 EMaxC= 1.00D-01 BMatC= 4.89D-03 BMatP= 1.72D-01
 IDIUse=3 WtCom= 8.86D-01 WtEn= 1.14D-01
 Coeff-Com:  0.875D-01 0.912D+00
 Coeff-En:   0.000D+00 0.100D+01
 Coeff:      0.776D-01 0.922D+00
 Gap=     0.490 Goal=   None    Shift=    0.000
 RMSDP=7.71D-04 MaxDP=1.14D-02 DE=-2.52D-02 OVMax= 2.89D-02

 Cycle   3  Pass 0  IDiag  1:
 E= -77.3270749492316     Delta-E=       -0.003433571141 Rises=F Damp=F
 DIIS: error= 5.44D-03 at cycle   3 NSaved=   3.
 NSaved= 3 IEnMin= 3 EnMin= -77.3270749492316     IErMin= 3 ErrMin= 5.44D-03
 ErrMax= 5.44D-03  0.00D+00 EMaxC= 1.00D-01 BMatC= 1.13D-03 BMatP= 4.89D-03
 IDIUse=3 WtCom= 9.46D-01 WtEn= 5.44D-02
 Coeff-Com:  0.221D-01 0.339D+00 0.639D+00
 Coeff-En:   0.000D+00 0.321D-01 0.968D+00
 Coeff:      0.209D-01 0.322D+00 0.657D+00
 Gap=     0.481 Goal=   None    Shift=    0.000
 RMSDP=2.53D-04 MaxDP=4.32D-03 DE=-3.43D-03 OVMax= 1.01D-02

 Cycle   4  Pass 0  IDiag  1:
 E= -77.3281174176736     Delta-E=       -0.001042468442 Rises=F Damp=F
 DIIS: error= 2.11D-04 at cycle   4 NSaved=   4.
 NSaved= 4 IEnMin= 4 EnMin= -77.3281174176736     IErMin= 4 ErrMin= 2.11D-04
 ErrMax= 2.11D-04  0.00D+00 EMaxC= 1.00D-01 BMatC= 2.37D-06 BMatP= 1.13D-03
 IDIUse=3 WtCom= 9.98D-01 WtEn= 2.11D-03
 Coeff-Com: -0.145D-02-0.154D-01 0.138D-01 0.100D+01
 Coeff-En:   0.000D+00 0.000D+00 0.000D+00 0.100D+01
 Coeff:     -0.145D-02-0.154D-01 0.138D-01 0.100D+01
 Gap=     0.481 Goal=   None    Shift=    0.000
 RMSDP=3.25D-05 MaxDP=3.43D-04 DE=-1.04D-03 OVMax= 5.44D-04

 Cycle   5  Pass 0  IDiag  1:
 E= -77.3281201026300     Delta-E=       -0.000002684956 Rises=F Damp=F
 DIIS: error= 2.29D-05 at cycle   5 NSaved=   5.
 NSaved= 5 IEnMin= 5 EnMin= -77.3281201026300     IErMin= 5 ErrMin= 2.29D-05
 ErrMax= 2.29D-05  0.00D+00 EMaxC= 1.00D-01 BMatC= 2.17D-08 BMatP= 2.37D-06
 IDIUse=1 WtCom= 1.00D+00 WtEn= 0.00D+00
 Coeff-Com: -0.388D-03-0.684D-02-0.152D-01-0.275D-01 0.105D+01
 Coeff:     -0.388D-03-0.684D-02-0.152D-01-0.275D-01 0.105D+01
 Gap=     0.481 Goal=   None    Shift=    0.000
 RMSDP=7.49D-06 MaxDP=8.85D-05 DE=-2.68D-06 OVMax= 1.03D-04

 Initial convergence to 1.0D-05 achieved.  Increase integral accuracy.
 Cycle   6  Pass 1  IDiag  1:
 E= -77.3281509631011     Delta-E=       -0.000030860471 Rises=F Damp=F
 DIIS: error= 4.09D-05 at cycle   1 NSaved=   1.
 NSaved= 1 IEnMin= 1 EnMin= -77.3281509631011     IErMin= 1 ErrMin= 4.09D-05
 ErrMax= 4.09D-05  0.00D+00 EMaxC= 1.00D-01 BMatC= 6.82D-08 BMatP= 6.82D-08
 IDIUse=1 WtCom= 1.00D+00 WtEn= 0.00D+00
 Coeff-Com:  0.100D+01
 Coeff:      0.100D+01
 Gap=     0.481 Goal=   None    Shift=    0.000
 RMSDP=7.49D-06 MaxDP=8.85D-05 DE=-3.09D-05 OVMax= 5.86D-05

 Cycle   7  Pass 1  IDiag  1:
 E= -77.3281509979465     Delta-E=       -0.000000034845 Rises=F Damp=F
 DIIS: error= 7.64D-06 at cycle   2 NSaved=   2.
 NSaved= 2 IEnMin= 2 EnMin= -77.3281509979465     IErMin= 2 ErrMin= 7.64D-06
 ErrMax= 7.64D-06  0.00D+00 EMaxC= 1.00D-01 BMatC= 1.37D-09 BMatP= 6.82D-08
 IDIUse=1 WtCom= 1.00D+00 WtEn= 0.00D+00
 Coeff-Com: -0.123D-01 0.101D+01
 Coeff:     -0.123D-01 0.101D+01
 Gap=     0.481 Goal=   None    Shift=    0.000
 RMSDP=3.28D-06 MaxDP=3.74D-05 DE=-3.48D-08 OVMax= 1.92D-05

 Cycle   8  Pass 1  IDiag  1:
 E= -77.3281509989395     Delta-E=       -0.000000000993 Rises=F Damp=F
 DIIS: error= 3.69D-06 at cycle   3 NSaved=   3.
 NSaved= 3 IEnMin= 3 EnMin= -77.3281509989395     IErMin= 3 ErrMin= 3.69D-06
 ErrMax= 3.69D-06  0.00D+00 EMaxC= 1.00D-01 BMatC= 4.34D-10 BMatP= 1.37D-09
 IDIUse=1 WtCom= 1.00D+00 WtEn= 0.00D+00
 Coeff-Com: -0.253D-01 0.359D+00 0.666D+00
 Coeff:     -0.253D-01 0.359D+00 0.666D+00
 Gap=     0.481 Goal=   None    Shift=    0.000
 RMSDP=2.91D-07 MaxDP=2.92D-06 DE=-9.93D-10 OVMax= 6.73D-06

 Cycle   9  Pass 1  IDiag  1:
 E= -77.3281509993454     Delta-E=       -0.000000000406 Rises=F Damp=F
 DIIS: error= 2.13D-07 at cycle   4 NSaved=   4.
 NSaved= 4 IEnMin= 4 EnMin= -77.3281509993454     IErMin= 4 ErrMin= 2.13D-07
 ErrMax= 2.13D-07  0.00D+00 EMaxC= 1.00D-01 BMatC= 1.42D-12 BMatP= 4.34D-10
 IDIUse=1 WtCom= 1.00D+00 WtEn= 0.00D+00
 Coeff-Com:  0.154D-02-0.433D-01-0.475D-01 0.109D+01
 Coeff:      0.154D-02-0.433D-01-0.475D-01 0.109D+01
 Gap=     0.481 Goal=   None    Shift=    0.000
 RMSDP=9.87D-08 MaxDP=1.20D-06 DE=-4.06D-10 OVMax= 7.49D-07

 Cycle  10  Pass 1  IDiag  1:
 E= -77.3281509993484     Delta-E=       -0.000000000003 Rises=F Damp=F
 DIIS: error= 3.39D-08 at cycle   5 NSaved=   5.
 NSaved= 5 IEnMin= 5 EnMin= -77.3281509993484     IErMin= 5 ErrMin= 3.39D-08
 ErrMax= 3.39D-08  0.00D+00 EMaxC= 1.00D-01 BMatC= 4.96D-14 BMatP= 1.42D-12
 IDIUse=1 WtCom= 1.00D+00 WtEn= 0.00D+00
 Coeff-Com:  0.489D-03-0.657D-02-0.138D-01-0.174D-01 0.104D+01
 Coeff:      0.489D-03-0.657D-02-0.138D-01-0.174D-01 0.104D+01
 Gap=     0.481 Goal=   None    Shift=    0.000
 RMSDP=1.39D-08 MaxDP=1.33D-07 DE=-3.01D-12 OVMax= 1.69D-07

 Cycle  11  Pass 1  IDiag  1:
 E= -77.3281509993488     Delta-E=        0.000000000000 Rises=F Damp=F
 DIIS: error= 7.76D-09 at cycle   6 NSaved=   6.
 NSaved= 6 IEnMin= 6 EnMin= -77.3281509993488     IErMin= 6 ErrMin= 7.76D-09
 ErrMax= 7.76D-09  0.00D+00 EMaxC= 1.00D-01 BMatC= 1.81D-15 BMatP= 4.96D-14
 IDIUse=1 WtCom= 1.00D+00 WtEn= 0.00D+00
 Coeff-Com: -0.138D-04 0.101D-02 0.864D-03-0.342D-01-0.740D-01 0.111D+01
 Coeff:     -0.138D-04 0.101D-02 0.864D-03-0.342D-01-0.740D-01 0.111D+01
 Gap=     0.481 Goal=   None    Shift=    0.000
 RMSDP=3.97D-09 MaxDP=4.05D-08 DE=-4.26D-13 OVMax= 3.87D-08

 SCF Done:  E(RwB97XD) =  -77.3281509993     A.U. after   11 cycles
            NFock= 11  Conv=0.40D-08     -V/T= 2.0051
 KE= 7.693851540985D+01 PE=-2.290905543309D+02 EE= 4.996082891421D+01
 Leave Link  502 at Fri Jul  9 19:20:14 2021, MaxMem=  4194304000 cpu:       337.2
 (Enter /home/minenky/programs//g09/l601.exe)
 Copying SCF densities to generalized density rwf, IOpCl= 0 IROHF=0.

 **********************************************************************

            Population analysis using the SCF density.

 **********************************************************************

 Orbital symmetries:
       Occupied  (SGG) (SGU) (SGG) (SGU) (SGG) (PIU) (PIU)
       Virtual   (PIG) (PIG) (SGU) (SGG) (SGG) (PIU) (PIU) (SGU)
                 (PIG) (PIG) (SGU) (SGG) (SGG) (DLTG) (DLTG) (SGU)
                 (PIU) (PIU) (DLTU) (DLTU) (SGU) (SGG) (PIG) (PIG)
                 (SGU) (PIU) (PIU) (SGG) (PIG) (PIG) (SGU) (SGG)
                 (PIU) (PIU) (SGU) (DLTG) (DLTG) (PIG) (PIG) (PHIU)
                 (PHIU) (SGG) (PIU) (PIU) (SGU) (SGG) (PHIG) (PHIG)
                 (SGU) (DLTG) (DLTG) (PIG) (PIG) (DLTU) (DLTU)
                 (DLTU) (DLTU) (SGG) (PIU) (PIU) (SGU) (PIG) (PIG)
                 (SGU) (SGG) (SGG) (SGU)
 The electronic state is 1-SGG.
 Alpha  occ. eigenvalues --  -10.29365 -10.29095  -0.85493  -0.66133  -0.58733
 Alpha  occ. eigenvalues --   -0.38034  -0.38034
 Alpha virt. eigenvalues --    0.10033   0.10033   0.13812   0.17052   0.20811
 Alpha virt. eigenvalues --    0.29425   0.29425   0.29821   0.40813   0.40813
 Alpha virt. eigenvalues --    0.42462   0.46700   0.63004   0.67260   0.67260
 Alpha virt. eigenvalues --    0.69075   0.80299   0.80299   0.97713   0.97713
 Alpha virt. eigenvalues --    0.98347   1.03366   1.14061   1.14061   1.28362
 Alpha virt. eigenvalues --    1.51295   1.51295   1.53786   1.64871   1.64871
 Alpha virt. eigenvalues --    1.68476   2.00837   2.06179   2.06179   2.09817
 Alpha virt. eigenvalues --    2.55303   2.55303   2.55731   2.55731   2.60833
 Alpha virt. eigenvalues --    2.60833   2.61151   2.72354   2.72354   2.83345
 Alpha virt. eigenvalues --    2.87489   3.02509   3.02509   3.03115   3.06454
 Alpha virt. eigenvalues --    3.06454   3.09136   3.09136   3.14210   3.14210
 Alpha virt. eigenvalues --    3.68100   3.68100   3.77701   3.94745   3.94745
 Alpha virt. eigenvalues --    4.69665   4.74434   4.74434   4.88057   5.52924
 Alpha virt. eigenvalues --   22.02091  22.83877
          Condensed to atoms (all electrons):
               1          2          3          4
     1  C    4.866923   0.945124   0.403900  -0.013917
     2  C    0.945124   4.866923  -0.013917   0.403900
     3  H    0.403900  -0.013917   0.407702   0.000284
     4  H   -0.013917   0.403900   0.000284   0.407702
 Mulliken charges:
               1
     1  C   -0.202030
     2  C   -0.202030
     3  H    0.202030
     4  H    0.202030
 Sum of Mulliken charges =   0.00000
 Mulliken charges with hydrogens summed into heavy atoms:
               1
     1  C    0.000000
     2  C    0.000000
 Electronic spatial extent (au):  <R**2>=             60.3571
 Charge=              0.0000 electrons
 Dipole moment (field-independent basis, Debye):
    X=              0.0000    Y=              0.0000    Z=              0.0000  Tot=              0.0000
 Quadrupole moment (field-independent basis, Debye-Ang):
   XX=            -13.6337   YY=            -13.6337   ZZ=             -6.7705
   XY=              0.0000   XZ=              0.0000   YZ=              0.0000
 Traceless Quadrupole moment (field-independent basis, Debye-Ang):
   XX=             -2.2877   YY=             -2.2877   ZZ=              4.5754
   XY=              0.0000   XZ=              0.0000   YZ=              0.0000
 Octapole moment (field-independent basis, Debye-Ang**2):
  XXX=              0.0000  YYY=              0.0000  ZZZ=              0.0000  XYY=              0.0000
  XXY=              0.0000  XXZ=              0.0000  XZZ=              0.0000  YZZ=              0.0000
  YYZ=              0.0000  XYZ=              0.0000
 Hexadecapole moment (field-independent basis, Debye-Ang**3):
 XXXX=            -16.4635 YYYY=            -16.4635 ZZZZ=            -36.0595 XXXY=              0.0000
 XXXZ=              0.0000 YYYX=              0.0000 YYYZ=              0.0000 ZZZX=              0.0000
 ZZZY=              0.0000 XXYY=             -5.4878 XXZZ=            -12.3065 YYZZ=            -12.3065
 XXYZ=              0.0000 YYXZ=              0.0000 ZZXY=              0.0000
 N-N= 2.486305900751D+01 E-N=-2.290905544090D+02  KE= 7.693851540985D+01
 Symmetry AG   KE= 3.806238103224D+01
 Symmetry B1G  KE= 3.581275970319D-34
 Symmetry B2G  KE= 1.756753538794D-31
 Symmetry B3G  KE= 3.853058728298D-31
 Symmetry AU   KE= 3.486431040893D-33
 Symmetry B1U  KE= 3.442858536262D+01
 Symmetry B2U  KE= 2.223774507498D+00
 Symmetry B3U  KE= 2.223774507498D+00
 No NMR shielding tensors so no spin-rotation constants.
 Leave Link  601 at Fri Jul  9 19:20:16 2021, MaxMem=  4194304000 cpu:        19.3
 (Enter /home/minenky/programs//g09/l701.exe)
 Compute integral first derivatives.
 ... and contract with generalized density number  0.
 R6Disp: Adding Grimme-D2 dispersion energy 1st derivatives to the gradient.
   8 Symmetry operations used in ECPInt.
 ECPInt:  NShTT=     465 NPrTT=    1428 LenC2=     466 LenP2D=    1332.
 LDataN:  DoStor=T MaxTD1= 7 Len=  274
 Leave Link  701 at Fri Jul  9 19:20:20 2021, MaxMem=  4194304000 cpu:        27.4
 (Enter /home/minenky/programs//g09/l702.exe)
 L702 exits ... SP integral derivatives will be done elsewhere.
 Leave Link  702 at Fri Jul  9 19:20:20 2021, MaxMem=  4194304000 cpu:         0.1
 (Enter /home/minenky/programs//g09/l703.exe)
 Compute integral first derivatives, UseDBF=F ICtDFT=           0.
 Integral derivatives from FoFJK, PRISM(SPDF).
 Calling FoFJK, ICntrl=      2127 FMM=F ISym2X=1 I1Cent= 0 IOpClX= 0 NMat=1 NMatS=1 NMatT=0.
 FoFJK:  IHMeth= 1 ICntrl=    2127 DoSepK=T KAlg= 0 I1Cent=   0 FoldK=F
 IRaf=         1 NMat=   1 IRICut=       1 DoRegI=T DoRafI=F ISym2E= 1.
 FoFCou: FMM=F IPFlag=           0 FMFlag=      100000 FMFlg1=         800
         NFxFlg=           0 DoJE=F BraDBF=F KetDBF=F FulRan=T
         wScrn=  0.000000 ICntrl=    2527 IOpCl=  0 I1Cent=           0 NGrid=           0
         NMat0=    1 NMatS0=      1 NMatT0=    0 NMatD0=    1 NMtDS0=    0 NMtDT0=    0
 Petite list used in FoFCou.
 Leave Link  703 at Fri Jul  9 19:20:25 2021, MaxMem=  4194304000 cpu:        35.9
 (Enter /home/minenky/programs//g09/l716.exe)
 Dipole        = 3.48208121D-17 3.41852565D-33 0.00000000D+00
 ***** Axes restored to original set *****
 -------------------------------------------------------------------
 Center     Atomic                   Forces (Hartrees/Bohr)
 Number     Number              X              Y              Z
 -------------------------------------------------------------------
      1        6           0.000000000    0.000000000   -0.005728136
      2        6           0.000000000    0.000000000    0.005728136
      3        1           0.000000000    0.000000000    0.001076186
      4        1           0.000000000    0.000000000   -0.001076186
 -------------------------------------------------------------------
 Cartesian Forces:  Max     0.005728136 RMS     0.002379416
 Leave Link  716 at Fri Jul  9 19:20:25 2021, MaxMem=  4194304000 cpu:         0.1
 (Enter /home/minenky/programs//g09/l103.exe)

 GradGradGradGradGradGradGradGradGradGradGradGradGradGradGradGradGradGrad
 Berny optimization.
 FormGI is forming the generalized inverse of G from B-inverse, IUseBI=4.
 Internal  Forces:  Max     0.004651949 RMS     0.001849980
 Search for a local minimum.
 Step number   1 out of a maximum of   20
 All quantities printed in internal units (Hartrees-Bohrs-Radians)
 RMS Force = .18500D-02 SwitMx=.10000D-02 MixMth= 1
 Mixed Optimization -- RFO/linear search
 Second derivative matrix not updated -- first step.
 The second derivative matrix:
                          R1        R2        R3        A1        A2
           R1           1.06453
           R2           0.00000   0.38172
           R3           0.00000   0.00000   0.38172
           A1           0.00000   0.00000   0.00000   0.00596
           A2           0.00000   0.00000   0.00000   0.00000   0.00596
           A3           0.00000   0.00000   0.00000   0.00000   0.00000
           A4           0.00000   0.00000   0.00000   0.00000   0.00000
                          A3        A4
           A3           0.00596
           A4           0.00000   0.00596
 ITU=  0
     Eigenvalues ---    0.00596   0.00596   0.00596   0.00596   0.38172
     Eigenvalues ---    0.38172   1.06453
 RFO step:  Lambda=-2.63971006D-05 EMin= 5.96327110D-03
 Linear search not attempted -- first point.
 Iteration  1 RMS(Cart)=  0.00121610 RMS(Int)=  0.00000000
 Iteration  2 RMS(Cart)=  0.00000000 RMS(Int)=  0.00000000
 ITry= 1 IFail=0 DXMaxC= 2.18D-03 DCOld= 1.00D+10 DXMaxT= 3.00D-01 DXLimC= 3.00D+00 Rises=F
 ClnCor:  largest displacement from symmetrization is 2.80D-13 for atom     1.
 Variable       Old X    -DE/DX   Delta X   Delta X   Delta X     New X
                                 (Linear)    (Quad)   (Total)
    R1        2.26161  -0.00465   0.00000  -0.00437  -0.00437   2.25724
    R2        2.00816   0.00108   0.00000   0.00282   0.00282   2.01098
    R3        2.00816   0.00108   0.00000   0.00282   0.00282   2.01098
    A1        3.14159   0.00000   0.00000   0.00000   0.00000   3.14159
    A2        3.14159   0.00000   0.00000   0.00000   0.00000   3.14159
    A3        3.14159   0.00000   0.00000   0.00000   0.00000   3.14159
    A4        3.14159   0.00000   0.00000   0.00000   0.00000   3.14159
         Item               Value     Threshold  Converged?
 Maximum Force            0.004652     0.000015     NO 
 RMS     Force            0.001850     0.000010     NO 
 Maximum Displacement     0.002185     0.000060     NO 
 RMS     Displacement     0.001216     0.000040     NO 
 Predicted change in Energy=-1.319855D-05
 Lowest energy point so far.  Saving SCF results.
 GradGradGradGradGradGradGradGradGradGradGradGradGradGradGradGradGradGrad

 Leave Link  103 at Fri Jul  9 19:20:26 2021, MaxMem=  4194304000 cpu:         8.1
 (Enter /home/minenky/programs//g09/l202.exe)
                          Input orientation:                          
 ---------------------------------------------------------------------
 Center     Atomic      Atomic             Coordinates (Angstroms)
 Number     Number       Type             X           Y           Z
 ---------------------------------------------------------------------
      1          6           0        0.000000    0.000000    0.597239
      2          6           0        0.000000    0.000000   -0.597239
      3          1           0        0.000000    0.000000    1.661403
      4          1           0        0.000000    0.000000   -1.661403
 ---------------------------------------------------------------------
                    Distance matrix (angstroms):
                    1          2          3          4
     1  C    0.000000
     2  C    1.194478   0.000000
     3  H    1.064164   2.258641   0.000000
     4  H    2.258641   1.064164   3.322805   0.000000
 Stoichiometry    C2H2
 Framework group  D*H[C*(HC.CH)]
 Deg. of freedom     2
 Full point group                 D*H     NOp   8
 RotChk:  IX=0 Diff= 0.00D+00
 Largest Abelian subgroup         D2H     NOp   8
 Largest concise Abelian subgroup C2      NOp   2
                         Standard orientation:                         
 ---------------------------------------------------------------------
 Center     Atomic      Atomic             Coordinates (Angstroms)
 Number     Number       Type             X           Y           Z
 ---------------------------------------------------------------------
      1          6           0        0.000000    0.000000    0.597239
      2          6           0        0.000000    0.000000   -0.597239
      3          1           0        0.000000    0.000000    1.661403
      4          1           0        0.000000    0.000000   -1.661403
 ---------------------------------------------------------------------
 Rotational constants (GHZ):      0.0000000     35.7806267     35.7806267
 Leave Link  202 at Fri Jul  9 19:20:26 2021, MaxMem=  4194304000 cpu:         0.7
 (Enter /home/minenky/programs//g09/l301.exe)
 Standard basis: def2TZVP (5D, 7F)
 Ernie: Thresh=  0.10000D-02 Tol=  0.10000D-05 Strict=F.
 There are    21 symmetry adapted cartesian basis functions of AG  symmetry.
 There are     3 symmetry adapted cartesian basis functions of B1G symmetry.
 There are     9 symmetry adapted cartesian basis functions of B2G symmetry.
 There are     9 symmetry adapted cartesian basis functions of B3G symmetry.
 There are     3 symmetry adapted cartesian basis functions of AU  symmetry.
 There are    21 symmetry adapted cartesian basis functions of B1U symmetry.
 There are     9 symmetry adapted cartesian basis functions of B2U symmetry.
 There are     9 symmetry adapted cartesian basis functions of B3U symmetry.
 There are    18 symmetry adapted basis functions of AG  symmetry.
 There are     3 symmetry adapted basis functions of B1G symmetry.
 There are     8 symmetry adapted basis functions of B2G symmetry.
 There are     8 symmetry adapted basis functions of B3G symmetry.
 There are     3 symmetry adapted basis functions of AU  symmetry.
 There are    18 symmetry adapted basis functions of B1U symmetry.
 There are     8 symmetry adapted basis functions of B2U symmetry.
 There are     8 symmetry adapted basis functions of B3U symmetry.
    74 basis functions,   118 primitive gaussians,    84 cartesian basis functions
     7 alpha electrons        7 beta electrons
       nuclear repulsion energy        24.8866946984 Hartrees.
 IExCor= 4639 DFT=T Ex+Corr=wB97XD ExCW=0 ScaHFX=  1.000000
 ScaDFX=  1.000000  1.000000  1.000000  1.000000 ScalE2=  1.000000  1.000000
 IRadAn=      5 IRanWt=     -1 IRanGd=            0 ICorTp=0 IEmpDi=121
  HFx wShort=  0.000000 wLong=  0.200000 cFull=  0.222036 cShort=  0.000000 cLong=  0.777964
  DFx wShort=  0.000000 wLong=  0.200000 cFull=  0.000000 cShort=  0.000000 cLong=  1.000000
 NAtoms=    4 NActive=    4 NUniq=    2 SFac= 4.00D+00 NAtFMM=   60 NAOKFM=F Big=F
 Integral buffers will be    131072 words long.
 Raffenetti 2 integral format.
 Two-electron integral symmetry is turned on.
 R6Disp:  Grimme-D2 Dispersion energy=       -0.0002074326 Hartrees.
 Nuclear repulsion after empirical dispersion term =       24.8864872657 Hartrees.
 Leave Link  301 at Fri Jul  9 19:20:26 2021, MaxMem=  4194304000 cpu:         0.5
 (Enter /home/minenky/programs//g09/l302.exe)
 NPDir=0 NMtPBC=     1 NCelOv=     1 NCel=       1 NClECP=     1 NCelD=      1
         NCelK=      1 NCelE2=     1 NClLst=     1 CellRange=     0.0.
 One-electron integrals computed using PRISM.
 One-electron integral symmetry used in STVInt
   8 Symmetry operations used in ECPInt.
 ECPInt:  NShTT=     465 NPrTT=    1428 LenC2=     466 LenP2D=    1332.
 LDataN:  DoStor=T MaxTD1= 6 Len=  172
 NBasis=    74 RedAO= T EigKep=  4.17D-05  NBF=    18     3     8     8     3    18     8     8
 NBsUse=    74 1.00D-06 EigRej= -1.00D+00 NBFU=    18     3     8     8     3    18     8     8
 Precomputing XC quadrature grid using
 IXCGrd= 4 IRadAn=           5 IRanWt=          -1 IRanGd=           0 AccXCQ= 0.00D+00.
 Generated NRdTot=       0 NPtTot=           0 NUsed=           0 NTot=          32
 NSgBfM=    84    84    84    84    84 MxSgAt=     4 MxSgA2=     4.
 Leave Link  302 at Fri Jul  9 19:20:28 2021, MaxMem=  4194304000 cpu:        21.8
 (Enter /home/minenky/programs//g09/l303.exe)
 DipDrv:  MaxL=1.
 Leave Link  303 at Fri Jul  9 19:20:29 2021, MaxMem=  4194304000 cpu:         4.5
 (Enter /home/minenky/programs//g09/l401.exe)
 Initial guess from the checkpoint file:  "m1_00_74-86-20_C2H2_wB97XD.chk"
 B after Tr=     0.000000    0.000000    0.000000
         Rot=    1.000000    0.000000    0.000000    0.000000 Ang=   0.00 deg.
 Guess basis will be translated and rotated to current coordinates.
 JPrj=2 DoOrth=T DoCkMO=T.
 Initial guess orbital symmetries:
       Occupied  (SGG) (SGU) (SGG) (SGU) (SGG) (PIU) (PIU)
       Virtual   (SGG) (SGG) (DLTG) (SGG) (SGG) (SGG) (DLTG) (SGG)
                 (SGG) (DLTG) (SGG) (SGG) (SGG) (SGG) (SGG) (DLTG)
                 (DLTG) (DLTG) (PIG) (PIG) (PHIG) (PIG) (PIG) (PIG)
                 (PIG) (PIG) (PIG) (PIG) (PHIG) (PIG) (PIG) (PIG)
                 (PIG) (PIG) (DLTU) (DLTU) (DLTU) (SGU) (SGU) (SGU)
                 (SGU) (DLTU) (SGU) (SGU) (DLTU) (SGU) (DLTU) (SGU)
                 (SGU) (SGU) (SGU) (SGU) (SGU) (PIU) (PIU) (PIU)
                 (PHIU) (PIU) (PIU) (PIU) (PIU) (PIU) (PIU) (PHIU)
                 (PIU) (PIU) (PIU)
 The electronic state of the initial guess is 1-SGG.
 Leave Link  401 at Fri Jul  9 19:20:33 2021, MaxMem=  4194304000 cpu:        21.3
 (Enter /home/minenky/programs//g09/l502.exe)
 Closed shell SCF:
 Using DIIS extrapolation, IDIIS=  1040.
 Integral symmetry usage will be decided dynamically.
 Keep R1 ints in memory in symmetry-blocked form, NReq=9853719.
 IVT=      171266 IEndB=      171266 NGot=  4194304000 MDV=  4193609977
 LenX=  4193609977 LenY=  4193602480
 Requested convergence on RMS density matrix=1.00D-08 within 380 cycles.
 Requested convergence on MAX density matrix=1.00D-06.
 Requested convergence on             energy=1.00D-06.
 No special actions if energy rises.
 FoFCou: FMM=F IPFlag=           0 FMFlag=           0 FMFlg1=           0
         NFxFlg=           0 DoJE=F BraDBF=F KetDBF=F FulRan=T
         wScrn=  0.000000 ICntrl=     600 IOpCl=  0 I1Cent=           0 NGrid=           0
         NMat0=    1 NMatS0=   2775 NMatT0=    0 NMatD0=    1 NMtDS0=    0 NMtDT0=    0
 Petite list used in FoFCou.

 Cycle   1  Pass 1  IDiag  1:
 E= -77.3281594793225    
 DIIS: error= 6.26D-04 at cycle   1 NSaved=   1.
 NSaved= 1 IEnMin= 1 EnMin= -77.3281594793225     IErMin= 1 ErrMin= 6.26D-04
 ErrMax= 6.26D-04  0.00D+00 EMaxC= 1.00D-01 BMatC= 7.58D-06 BMatP= 7.58D-06
 IDIUse=3 WtCom= 9.94D-01 WtEn= 6.26D-03
 Coeff-Com:  0.100D+01
 Coeff-En:   0.100D+01
 Coeff:      0.100D+01
 Gap=     0.875 Goal=   None    Shift=    0.000
 RMSDP=6.49D-05 MaxDP=9.35D-04              OVMax= 5.38D-04

 Cycle   2  Pass 1  IDiag  1:
 E= -77.3281628125562     Delta-E=       -0.000003333234 Rises=F Damp=F
 DIIS: error= 8.79D-05 at cycle   2 NSaved=   2.
 NSaved= 2 IEnMin= 2 EnMin= -77.3281628125562     IErMin= 2 ErrMin= 8.79D-05
 ErrMax= 8.79D-05  0.00D+00 EMaxC= 1.00D-01 BMatC= 3.08D-07 BMatP= 7.58D-06
 IDIUse=1 WtCom= 1.00D+00 WtEn= 0.00D+00
 Coeff-Com:  0.619D-01 0.938D+00
 Coeff:      0.619D-01 0.938D+00
 Gap=     0.482 Goal=   None    Shift=    0.000
 RMSDP=6.82D-06 MaxDP=8.08D-05 DE=-3.33D-06 OVMax= 2.35D-04

 Cycle   3  Pass 1  IDiag  1:
 E= -77.3281630348106     Delta-E=       -0.000000222254 Rises=F Damp=F
 DIIS: error= 3.74D-05 at cycle   3 NSaved=   3.
 NSaved= 3 IEnMin= 3 EnMin= -77.3281630348106     IErMin= 3 ErrMin= 3.74D-05
 ErrMax= 3.74D-05  0.00D+00 EMaxC= 1.00D-01 BMatC= 5.89D-08 BMatP= 3.08D-07
 IDIUse=1 WtCom= 1.00D+00 WtEn= 0.00D+00
 Coeff-Com: -0.105D-01 0.280D+00 0.730D+00
 Coeff:     -0.105D-01 0.280D+00 0.730D+00
 Gap=     0.482 Goal=   None    Shift=    0.000
 RMSDP=3.41D-06 MaxDP=3.50D-05 DE=-2.22D-07 OVMax= 9.04D-05

 Cycle   4  Pass 1  IDiag  1:
 E= -77.3281630952430     Delta-E=       -0.000000060432 Rises=F Damp=F
 DIIS: error= 4.73D-06 at cycle   4 NSaved=   4.
 NSaved= 4 IEnMin= 4 EnMin= -77.3281630952430     IErMin= 4 ErrMin= 4.73D-06
 ErrMax= 4.73D-06  0.00D+00 EMaxC= 1.00D-01 BMatC= 1.07D-09 BMatP= 5.89D-08
 IDIUse=1 WtCom= 1.00D+00 WtEn= 0.00D+00
 Coeff-Com: -0.188D-02-0.377D-01 0.359D-01 0.100D+01
 Coeff:     -0.188D-02-0.377D-01 0.359D-01 0.100D+01
 Gap=     0.482 Goal=   None    Shift=    0.000
 RMSDP=1.44D-06 MaxDP=1.42D-05 DE=-6.04D-08 OVMax= 1.76D-05

 Cycle   5  Pass 1  IDiag  1:
 E= -77.3281630968301     Delta-E=       -0.000000001587 Rises=F Damp=F
 DIIS: error= 8.88D-07 at cycle   5 NSaved=   5.
 NSaved= 5 IEnMin= 5 EnMin= -77.3281630968301     IErMin= 5 ErrMin= 8.88D-07
 ErrMax= 8.88D-07  0.00D+00 EMaxC= 1.00D-01 BMatC= 2.43D-11 BMatP= 1.07D-09
 IDIUse=1 WtCom= 1.00D+00 WtEn= 0.00D+00
 Coeff-Com:  0.765D-03-0.814D-02-0.260D-01-0.120D+00 0.115D+01
 Coeff:      0.765D-03-0.814D-02-0.260D-01-0.120D+00 0.115D+01
 Gap=     0.482 Goal=   None    Shift=    0.000
 RMSDP=4.59D-07 MaxDP=5.10D-06 DE=-1.59D-09 OVMax= 3.45D-06

 Cycle   6  Pass 1  IDiag  1:
 E= -77.3281630968914     Delta-E=       -0.000000000061 Rises=F Damp=F
 DIIS: error= 8.77D-08 at cycle   6 NSaved=   6.
 NSaved= 6 IEnMin= 6 EnMin= -77.3281630968914     IErMin= 6 ErrMin= 8.77D-08
 ErrMax= 8.77D-08  0.00D+00 EMaxC= 1.00D-01 BMatC= 2.57D-13 BMatP= 2.43D-11
 IDIUse=1 WtCom= 1.00D+00 WtEn= 0.00D+00
 Coeff-Com: -0.780D-04 0.203D-02 0.355D-02-0.627D-02-0.136D+00 0.114D+01
 Coeff:     -0.780D-04 0.203D-02 0.355D-02-0.627D-02-0.136D+00 0.114D+01
 Gap=     0.482 Goal=   None    Shift=    0.000
 RMSDP=5.10D-08 MaxDP=5.09D-07 DE=-6.13D-11 OVMax= 4.37D-07

 Cycle   7  Pass 1  IDiag  1:
 E= -77.3281630968919     Delta-E=        0.000000000000 Rises=F Damp=F
 DIIS: error= 8.32D-09 at cycle   7 NSaved=   7.
 NSaved= 7 IEnMin= 7 EnMin= -77.3281630968919     IErMin= 7 ErrMin= 8.32D-09
 ErrMax= 8.32D-09  0.00D+00 EMaxC= 1.00D-01 BMatC= 2.90D-15 BMatP= 2.57D-13
 IDIUse=1 WtCom= 1.00D+00 WtEn= 0.00D+00
 Coeff-Com: -0.190D-05-0.556D-04-0.538D-04 0.202D-02-0.413D-02-0.921D-01
 Coeff-Com:  0.109D+01
 Coeff:     -0.190D-05-0.556D-04-0.538D-04 0.202D-02-0.413D-02-0.921D-01
 Coeff:      0.109D+01
 Gap=     0.482 Goal=   None    Shift=    0.000
 RMSDP=5.85D-09 MaxDP=5.64D-08 DE=-4.83D-13 OVMax= 5.04D-08

 SCF Done:  E(RwB97XD) =  -77.3281630969     A.U. after    7 cycles
            NFock=  7  Conv=0.59D-08     -V/T= 2.0050
 KE= 7.694474859052D+01 PE=-2.291456342399D+02 EE= 4.998623528673D+01
 Leave Link  502 at Fri Jul  9 19:22:01 2021, MaxMem=  4194304000 cpu:       425.8
 (Enter /home/minenky/programs//g09/l701.exe)
 Compute integral first derivatives.
 ... and contract with generalized density number  0.
 R6Disp: Adding Grimme-D2 dispersion energy 1st derivatives to the gradient.
   8 Symmetry operations used in ECPInt.
 ECPInt:  NShTT=     465 NPrTT=    1428 LenC2=     466 LenP2D=    1332.
 LDataN:  DoStor=T MaxTD1= 7 Len=  274
 Leave Link  701 at Fri Jul  9 19:22:03 2021, MaxMem=  4194304000 cpu:        19.7
 (Enter /home/minenky/programs//g09/l702.exe)
 L702 exits ... SP integral derivatives will be done elsewhere.
 Leave Link  702 at Fri Jul  9 19:22:03 2021, MaxMem=  4194304000 cpu:         0.0
 (Enter /home/minenky/programs//g09/l703.exe)
 Compute integral first derivatives, UseDBF=F ICtDFT=           0.
 Integral derivatives from FoFJK, PRISM(SPDF).
 Calling FoFJK, ICntrl=      2127 FMM=F ISym2X=1 I1Cent= 0 IOpClX= 0 NMat=1 NMatS=1 NMatT=0.
 FoFJK:  IHMeth= 1 ICntrl=    2127 DoSepK=T KAlg= 0 I1Cent=   0 FoldK=F
 IRaf=         1 NMat=   1 IRICut=       1 DoRegI=T DoRafI=F ISym2E= 1.
 FoFCou: FMM=F IPFlag=           0 FMFlag=      100000 FMFlg1=         800
         NFxFlg=           0 DoJE=F BraDBF=F KetDBF=F FulRan=T
         wScrn=  0.000000 ICntrl=    2527 IOpCl=  0 I1Cent=           0 NGrid=           0
         NMat0=    1 NMatS0=      1 NMatT0=    0 NMatD0=    1 NMtDS0=    0 NMtDT0=    0
 Petite list used in FoFCou.
 Leave Link  703 at Fri Jul  9 19:22:10 2021, MaxMem=  4194304000 cpu:        27.2
 (Enter /home/minenky/programs//g09/l716.exe)
 Dipole        = 3.49507754D-17 2.88889492D-34 8.88178420D-16
 ***** Axes restored to original set *****
 -------------------------------------------------------------------
 Center     Atomic                   Forces (Hartrees/Bohr)
 Number     Number              X              Y              Z
 -------------------------------------------------------------------
      1        6           0.000000000    0.000000000    0.000478250
      2        6           0.000000000    0.000000000   -0.000478250
      3        1           0.000000000    0.000000000   -0.000117323
      4        1           0.000000000    0.000000000    0.000117323
 -------------------------------------------------------------------
 Cartesian Forces:  Max     0.000478250 RMS     0.000201034
 Leave Link  716 at Fri Jul  9 19:22:11 2021, MaxMem=  4194304000 cpu:         0.0
 (Enter /home/minenky/programs//g09/l103.exe)

 GradGradGradGradGradGradGradGradGradGradGradGradGradGradGradGradGradGrad
 Berny optimization.
 Using GEDIIS/GDIIS optimizer.
 Red2BG is reusing G-inverse.
 Internal  Forces:  Max     0.000360927 RMS     0.000150142
 Search for a local minimum.
 Step number   2 out of a maximum of   20
 All quantities printed in internal units (Hartrees-Bohrs-Radians)
 RMS Force = .15014D-03 SwitMx=.10000D-02 MixMth= 2
 Mixed Optimization -- En-DIIS/RFO-DIIS
 Update second derivatives using D2CorX and points    1    2
 DE= -1.21D-05 DEPred=-1.32D-05 R= 9.17D-01
 TightC=F SS=  1.41D+00  RLast= 5.92D-03 DXNew= 5.0454D-01 1.7746D-02
 Trust test= 9.17D-01 RLast= 5.92D-03 DXMaxT set to 3.00D-01
 The second derivative matrix:
                          R1        R2        R3        A1        A2
           R1           1.12226
           R2          -0.01929   0.38759
           R3          -0.01929   0.00587   0.38759
           A1           0.00000   0.00000   0.00000   0.00596
           A2           0.00000   0.00000   0.00000   0.00000   0.00596
           A3           0.00000   0.00000   0.00000   0.00000   0.00000
           A4           0.00000   0.00000   0.00000   0.00000   0.00000
                          A3        A4
           A3           0.00596
           A4           0.00000   0.00596
 ITU=  1  0
 Use linear search instead of GDIIS.
     Eigenvalues ---    0.00596   0.00596   0.00596   0.00596   0.38172
     Eigenvalues ---    0.39245   1.12328
 RFO step:  Lambda= 0.00000000D+00 EMin= 5.96327110D-03
 Quartic linear search produced a step of -0.07790.
 Iteration  1 RMS(Cart)=  0.00010690 RMS(Int)=  0.00000000
 Iteration  2 RMS(Cart)=  0.00000000 RMS(Int)=  0.00000000
 ITry= 1 IFail=0 DXMaxC= 1.56D-04 DCOld= 1.00D+10 DXMaxT= 3.00D-01 DXLimC= 3.00D+00 Rises=F
 ClnCor:  largest displacement from symmetrization is 2.82D-13 for atom     1.
 Variable       Old X    -DE/DX   Delta X   Delta X   Delta X     New X
                                 (Linear)    (Quad)   (Total)
    R1        2.25724   0.00036   0.00034  -0.00003   0.00031   2.25755
    R2        2.01098  -0.00012  -0.00022  -0.00006  -0.00028   2.01070
    R3        2.01098  -0.00012  -0.00022  -0.00006  -0.00028   2.01070
    A1        3.14159   0.00000   0.00000   0.00000   0.00000   3.14159
    A2        3.14159   0.00000   0.00000   0.00000   0.00000   3.14159
    A3        3.14159   0.00000   0.00000   0.00000   0.00000   3.14159
    A4        3.14159   0.00000   0.00000   0.00000   0.00000   3.14159
         Item               Value     Threshold  Converged?
 Maximum Force            0.000361     0.000015     NO 
 RMS     Force            0.000150     0.000010     NO 
 Maximum Displacement     0.000156     0.000060     NO 
 RMS     Displacement     0.000107     0.000040     NO 
 Predicted change in Energy=-8.947142D-08
 Lowest energy point so far.  Saving SCF results.
 GradGradGradGradGradGradGradGradGradGradGradGradGradGradGradGradGradGrad

 Leave Link  103 at Fri Jul  9 19:22:14 2021, MaxMem=  4194304000 cpu:        16.0
 (Enter /home/minenky/programs//g09/l202.exe)
                          Input orientation:                          
 ---------------------------------------------------------------------
 Center     Atomic      Atomic             Coordinates (Angstroms)
 Number     Number       Type             X           Y           Z
 ---------------------------------------------------------------------
      1          6           0        0.000000    0.000000    0.597321
      2          6           0        0.000000    0.000000   -0.597321
      3          1           0        0.000000    0.000000    1.661336
      4          1           0        0.000000    0.000000   -1.661336
 ---------------------------------------------------------------------
                    Distance matrix (angstroms):
                    1          2          3          4
     1  C    0.000000
     2  C    1.194642   0.000000
     3  H    1.064015   2.258657   0.000000
     4  H    2.258657   1.064015   3.322672   0.000000
 Stoichiometry    C2H2
 Framework group  D*H[C*(HC.CH)]
 Deg. of freedom     2
 Full point group                 D*H     NOp   8
 RotChk:  IX=0 Diff= 0.00D+00
 Largest Abelian subgroup         D2H     NOp   8
 Largest concise Abelian subgroup C2      NOp   2
                         Standard orientation:                         
 ---------------------------------------------------------------------
 Center     Atomic      Atomic             Coordinates (Angstroms)
 Number     Number       Type             X           Y           Z
 ---------------------------------------------------------------------
      1          6           0        0.000000    0.000000    0.597321
      2          6           0        0.000000    0.000000   -0.597321
      3          1           0        0.000000    0.000000    1.661336
      4          1           0        0.000000    0.000000   -1.661336
 ---------------------------------------------------------------------
 Rotational constants (GHZ):      0.0000000     35.7757794     35.7757794
 Leave Link  202 at Fri Jul  9 19:22:14 2021, MaxMem=  4194304000 cpu:         0.8
 (Enter /home/minenky/programs//g09/l301.exe)
 Standard basis: def2TZVP (5D, 7F)
 Ernie: Thresh=  0.10000D-02 Tol=  0.10000D-05 Strict=F.
 There are    21 symmetry adapted cartesian basis functions of AG  symmetry.
 There are     3 symmetry adapted cartesian basis functions of B1G symmetry.
 There are     9 symmetry adapted cartesian basis functions of B2G symmetry.
 There are     9 symmetry adapted cartesian basis functions of B3G symmetry.
 There are     3 symmetry adapted cartesian basis functions of AU  symmetry.
 There are    21 symmetry adapted cartesian basis functions of B1U symmetry.
 There are     9 symmetry adapted cartesian basis functions of B2U symmetry.
 There are     9 symmetry adapted cartesian basis functions of B3U symmetry.
 There are    18 symmetry adapted basis functions of AG  symmetry.
 There are     3 symmetry adapted basis functions of B1G symmetry.
 There are     8 symmetry adapted basis functions of B2G symmetry.
 There are     8 symmetry adapted basis functions of B3G symmetry.
 There are     3 symmetry adapted basis functions of AU  symmetry.
 There are    18 symmetry adapted basis functions of B1U symmetry.
 There are     8 symmetry adapted basis functions of B2U symmetry.
 There are     8 symmetry adapted basis functions of B3U symmetry.
    74 basis functions,   118 primitive gaussians,    84 cartesian basis functions
     7 alpha electrons        7 beta electrons
       nuclear repulsion energy        24.8853188568 Hartrees.
 IExCor= 4639 DFT=T Ex+Corr=wB97XD ExCW=0 ScaHFX=  1.000000
 ScaDFX=  1.000000  1.000000  1.000000  1.000000 ScalE2=  1.000000  1.000000
 IRadAn=      5 IRanWt=     -1 IRanGd=            0 ICorTp=0 IEmpDi=121
  HFx wShort=  0.000000 wLong=  0.200000 cFull=  0.222036 cShort=  0.000000 cLong=  0.777964
  DFx wShort=  0.000000 wLong=  0.200000 cFull=  0.000000 cShort=  0.000000 cLong=  1.000000
 NAtoms=    4 NActive=    4 NUniq=    2 SFac= 4.00D+00 NAtFMM=   60 NAOKFM=F Big=F
 Integral buffers will be    131072 words long.
 Raffenetti 2 integral format.
 Two-electron integral symmetry is turned on.
 R6Disp:  Grimme-D2 Dispersion energy=       -0.0002074470 Hartrees.
 Nuclear repulsion after empirical dispersion term =       24.8851114097 Hartrees.
 Leave Link  301 at Fri Jul  9 19:22:15 2021, MaxMem=  4194304000 cpu:         0.5
 (Enter /home/minenky/programs//g09/l302.exe)
 NPDir=0 NMtPBC=     1 NCelOv=     1 NCel=       1 NClECP=     1 NCelD=      1
         NCelK=      1 NCelE2=     1 NClLst=     1 CellRange=     0.0.
 One-electron integrals computed using PRISM.
 One-electron integral symmetry used in STVInt
   8 Symmetry operations used in ECPInt.
 ECPInt:  NShTT=     465 NPrTT=    1428 LenC2=     466 LenP2D=    1332.
 LDataN:  DoStor=T MaxTD1= 6 Len=  172
 NBasis=    74 RedAO= T EigKep=  4.17D-05  NBF=    18     3     8     8     3    18     8     8
 NBsUse=    74 1.00D-06 EigRej= -1.00D+00 NBFU=    18     3     8     8     3    18     8     8
 Precomputing XC quadrature grid using
 IXCGrd= 4 IRadAn=           5 IRanWt=          -1 IRanGd=           0 AccXCQ= 0.00D+00.
 Generated NRdTot=       0 NPtTot=           0 NUsed=           0 NTot=          32
 NSgBfM=    84    84    84    84    84 MxSgAt=     4 MxSgA2=     4.
 Leave Link  302 at Fri Jul  9 19:22:33 2021, MaxMem=  4194304000 cpu:        75.3
 (Enter /home/minenky/programs//g09/l303.exe)
 DipDrv:  MaxL=1.
 Leave Link  303 at Fri Jul  9 19:22:34 2021, MaxMem=  4194304000 cpu:         4.0
 (Enter /home/minenky/programs//g09/l401.exe)
 Initial guess from the checkpoint file:  "m1_00_74-86-20_C2H2_wB97XD.chk"
 B after Tr=     0.000000    0.000000    0.000000
         Rot=    1.000000    0.000000    0.000000    0.000000 Ang=   0.00 deg.
 Guess basis will be translated and rotated to current coordinates.
 JPrj=2 DoOrth=T DoCkMO=T.
 Initial guess orbital symmetries:
       Occupied  (SGG) (SGU) (SGG) (SGU) (SGG) (PIU) (PIU)
       Virtual   (SGG) (SGG) (DLTG) (SGG) (SGG) (SGG) (DLTG) (SGG)
                 (SGG) (DLTG) (SGG) (SGG) (SGG) (SGG) (SGG) (DLTG)
                 (DLTG) (DLTG) (PIG) (PIG) (PHIG) (PIG) (PIG) (PIG)
                 (PIG) (PIG) (PIG) (PIG) (PHIG) (PIG) (PIG) (PIG)
                 (PIG) (PIG) (DLTU) (DLTU) (DLTU) (SGU) (SGU) (SGU)
                 (SGU) (DLTU) (SGU) (SGU) (DLTU) (SGU) (DLTU) (SGU)
                 (SGU) (SGU) (SGU) (SGU) (SGU) (PIU) (PIU) (PIU)
                 (PHIU) (PIU) (PIU) (PIU) (PIU) (PIU) (PIU) (PHIU)
                 (PIU) (PIU) (PIU)
 The electronic state of the initial guess is 1-SGG.
 Leave Link  401 at Fri Jul  9 19:22:37 2021, MaxMem=  4194304000 cpu:        22.0
 (Enter /home/minenky/programs//g09/l502.exe)
 Closed shell SCF:
 Using DIIS extrapolation, IDIIS=  1040.
 Integral symmetry usage will be decided dynamically.
 Keep R1 ints in memory in symmetry-blocked form, NReq=9853719.
 IVT=      171266 IEndB=      171266 NGot=  4194304000 MDV=  4193609977
 LenX=  4193609977 LenY=  4193602480
 Requested convergence on RMS density matrix=1.00D-08 within 380 cycles.
 Requested convergence on MAX density matrix=1.00D-06.
 Requested convergence on             energy=1.00D-06.
 No special actions if energy rises.
 FoFCou: FMM=F IPFlag=           0 FMFlag=           0 FMFlg1=           0
         NFxFlg=           0 DoJE=F BraDBF=F KetDBF=F FulRan=T
         wScrn=  0.000000 ICntrl=     600 IOpCl=  0 I1Cent=           0 NGrid=           0
         NMat0=    1 NMatS0=   2775 NMatT0=    0 NMatD0=    1 NMtDS0=    0 NMtDT0=    0
 Petite list used in FoFCou.

 Cycle   1  Pass 1  IDiag  1:
 E= -77.3281631646284    
 DIIS: error= 4.47D-05 at cycle   1 NSaved=   1.
 NSaved= 1 IEnMin= 1 EnMin= -77.3281631646284     IErMin= 1 ErrMin= 4.47D-05
 ErrMax= 4.47D-05  0.00D+00 EMaxC= 1.00D-01 BMatC= 4.18D-08 BMatP= 4.18D-08
 IDIUse=1 WtCom= 1.00D+00 WtEn= 0.00D+00
 Coeff-Com:  0.100D+01
 Coeff:      0.100D+01
 Gap=     0.875 Goal=   None    Shift=    0.000
 RMSDP=4.73D-06 MaxDP=6.46D-05              OVMax= 4.27D-05

 Cycle   2  Pass 1  IDiag  1:
 E= -77.3281631845841     Delta-E=       -0.000000019956 Rises=F Damp=F
 DIIS: error= 6.23D-06 at cycle   2 NSaved=   2.
 NSaved= 2 IEnMin= 2 EnMin= -77.3281631845841     IErMin= 2 ErrMin= 6.23D-06
 ErrMax= 6.23D-06  0.00D+00 EMaxC= 1.00D-01 BMatC= 1.56D-09 BMatP= 4.18D-08
 IDIUse=1 WtCom= 1.00D+00 WtEn= 0.00D+00
 Coeff-Com:  0.550D-01 0.945D+00
 Coeff:      0.550D-01 0.945D+00
 Gap=     0.482 Goal=   None    Shift=    0.000
 RMSDP=5.23D-07 MaxDP=5.41D-06 DE=-2.00D-08 OVMax= 1.68D-05

 Cycle   3  Pass 1  IDiag  1:
 E= -77.3281631857246     Delta-E=       -0.000000001141 Rises=F Damp=F
 DIIS: error= 2.60D-06 at cycle   3 NSaved=   3.
 NSaved= 3 IEnMin= 3 EnMin= -77.3281631857246     IErMin= 3 ErrMin= 2.60D-06
 ErrMax= 2.60D-06  0.00D+00 EMaxC= 1.00D-01 BMatC= 2.76D-10 BMatP= 1.56D-09
 IDIUse=1 WtCom= 1.00D+00 WtEn= 0.00D+00
 Coeff-Com: -0.113D-01 0.265D+00 0.746D+00
 Coeff:     -0.113D-01 0.265D+00 0.746D+00
 Gap=     0.482 Goal=   None    Shift=    0.000
 RMSDP=2.63D-07 MaxDP=2.69D-06 DE=-1.14D-09 OVMax= 6.52D-06

 Cycle   4  Pass 1  IDiag  1:
 E= -77.3281631860134     Delta-E=       -0.000000000289 Rises=F Damp=F
 DIIS: error= 4.32D-07 at cycle   4 NSaved=   4.
 NSaved= 4 IEnMin= 4 EnMin= -77.3281631860134     IErMin= 4 ErrMin= 4.32D-07
 ErrMax= 4.32D-07  0.00D+00 EMaxC= 1.00D-01 BMatC= 7.96D-12 BMatP= 2.76D-10
 IDIUse=1 WtCom= 1.00D+00 WtEn= 0.00D+00
 Coeff-Com: -0.251D-02-0.361D-01 0.704D-01 0.968D+00
 Coeff:     -0.251D-02-0.361D-01 0.704D-01 0.968D+00
 Gap=     0.482 Goal=   None    Shift=    0.000
 RMSDP=1.12D-07 MaxDP=1.13D-06 DE=-2.89D-10 OVMax= 1.44D-06

 Cycle   5  Pass 1  IDiag  1:
 E= -77.3281631860241     Delta-E=       -0.000000000011 Rises=F Damp=F
 DIIS: error= 7.50D-08 at cycle   5 NSaved=   5.
 NSaved= 5 IEnMin= 5 EnMin= -77.3281631860241     IErMin= 5 ErrMin= 7.50D-08
 ErrMax= 7.50D-08  0.00D+00 EMaxC= 1.00D-01 BMatC= 1.61D-13 BMatP= 7.96D-12
 IDIUse=1 WtCom= 1.00D+00 WtEn= 0.00D+00
 Coeff-Com:  0.892D-03-0.880D-02-0.315D-01-0.116D+00 0.116D+01
 Coeff:      0.892D-03-0.880D-02-0.315D-01-0.116D+00 0.116D+01
 Gap=     0.482 Goal=   None    Shift=    0.000
 RMSDP=3.80D-08 MaxDP=4.24D-07 DE=-1.07D-11 OVMax= 2.91D-07

 Cycle   6  Pass 1  IDiag  1:
 E= -77.3281631860244     Delta-E=        0.000000000000 Rises=F Damp=F
 DIIS: error= 6.49D-09 at cycle   6 NSaved=   6.
 NSaved= 6 IEnMin= 6 EnMin= -77.3281631860244     IErMin= 6 ErrMin= 6.49D-09
 ErrMax= 6.49D-09  0.00D+00 EMaxC= 1.00D-01 BMatC= 1.58D-15 BMatP= 1.61D-13
 IDIUse=1 WtCom= 1.00D+00 WtEn= 0.00D+00
 Coeff-Com: -0.103D-03 0.221D-02 0.426D-02-0.262D-02-0.161D+00 0.116D+01
 Coeff:     -0.103D-03 0.221D-02 0.426D-02-0.262D-02-0.161D+00 0.116D+01
 Gap=     0.482 Goal=   None    Shift=    0.000
 RMSDP=4.19D-09 MaxDP=4.12D-08 DE=-3.41D-13 OVMax= 3.46D-08

 SCF Done:  E(RwB97XD) =  -77.3281631860     A.U. after    6 cycles
            NFock=  6  Conv=0.42D-08     -V/T= 2.0050
 KE= 7.694442982600D+01 PE=-2.291423682317D+02 EE= 4.998466381001D+01
 Leave Link  502 at Fri Jul  9 19:22:50 2021, MaxMem=  4194304000 cpu:       155.7
 (Enter /home/minenky/programs//g09/l701.exe)
 Compute integral first derivatives.
 ... and contract with generalized density number  0.
 R6Disp: Adding Grimme-D2 dispersion energy 1st derivatives to the gradient.
   8 Symmetry operations used in ECPInt.
 ECPInt:  NShTT=     465 NPrTT=    1428 LenC2=     466 LenP2D=    1332.
 LDataN:  DoStor=T MaxTD1= 7 Len=  274
 Leave Link  701 at Fri Jul  9 19:22:53 2021, MaxMem=  4194304000 cpu:        25.9
 (Enter /home/minenky/programs//g09/l702.exe)
 L702 exits ... SP integral derivatives will be done elsewhere.
 Leave Link  702 at Fri Jul  9 19:22:53 2021, MaxMem=  4194304000 cpu:         0.2
 (Enter /home/minenky/programs//g09/l703.exe)
 Compute integral first derivatives, UseDBF=F ICtDFT=           0.
 Integral derivatives from FoFJK, PRISM(SPDF).
 Calling FoFJK, ICntrl=      2127 FMM=F ISym2X=1 I1Cent= 0 IOpClX= 0 NMat=1 NMatS=1 NMatT=0.
 FoFJK:  IHMeth= 1 ICntrl=    2127 DoSepK=T KAlg= 0 I1Cent=   0 FoldK=F
 IRaf=         1 NMat=   1 IRICut=       1 DoRegI=T DoRafI=F ISym2E= 1.
 FoFCou: FMM=F IPFlag=           0 FMFlag=      100000 FMFlg1=         800
         NFxFlg=           0 DoJE=F BraDBF=F KetDBF=F FulRan=T
         wScrn=  0.000000 ICntrl=    2527 IOpCl=  0 I1Cent=           0 NGrid=           0
         NMat0=    1 NMatS0=      1 NMatT0=    0 NMatD0=    1 NMtDS0=    0 NMtDT0=    0
 Petite list used in FoFCou.
 Leave Link  703 at Fri Jul  9 19:22:57 2021, MaxMem=  4194304000 cpu:        33.3
 (Enter /home/minenky/programs//g09/l716.exe)
 Dipole        = 3.49373778D-17 3.17778441D-33 0.00000000D+00
 ***** Axes restored to original set *****
 -------------------------------------------------------------------
 Center     Atomic                   Forces (Hartrees/Bohr)
 Number     Number              X              Y              Z
 -------------------------------------------------------------------
      1        6           0.000000000    0.000000000    0.000000445
      2        6           0.000000000    0.000000000   -0.000000445
      3        1           0.000000000    0.000000000    0.000000508
      4        1           0.000000000    0.000000000   -0.000000508
 -------------------------------------------------------------------
 Cartesian Forces:  Max     0.000000508 RMS     0.000000275
 Leave Link  716 at Fri Jul  9 19:22:57 2021, MaxMem=  4194304000 cpu:         0.0
 (Enter /home/minenky/programs//g09/l103.exe)

 GradGradGradGradGradGradGradGradGradGradGradGradGradGradGradGradGradGrad
 Berny optimization.
 Using GEDIIS/GDIIS optimizer.
 Red2BG is reusing G-inverse.
 Internal  Forces:  Max     0.000000952 RMS     0.000000451
 Search for a local minimum.
 Step number   3 out of a maximum of   20
 All quantities printed in internal units (Hartrees-Bohrs-Radians)
 RMS Force = .45069D-06 SwitMx=.10000D-02 MixMth= 2
 Mixed Optimization -- En-DIIS/RFO-DIIS
 Swapping is turned off.
 Update second derivatives using D2CorX and points    1    2    3
 DE= -8.91D-08 DEPred=-8.95D-08 R= 9.96D-01
 Trust test= 9.96D-01 RLast= 5.05D-04 DXMaxT set to 3.00D-01
 The second derivative matrix:
                          R1        R2        R3        A1        A2
           R1           1.11981
           R2          -0.02075   0.38885
           R3          -0.02075   0.00713   0.38885
           A1           0.00000   0.00000   0.00000   0.00596
           A2           0.00000   0.00000   0.00000   0.00000   0.00596
           A3           0.00000   0.00000   0.00000   0.00000   0.00000
           A4           0.00000   0.00000   0.00000   0.00000   0.00000
                          A3        A4
           A3           0.00596
           A4           0.00000   0.00596
 ITU=  0  1  0
     Eigenvalues ---    0.00596   0.00596   0.00596   0.00596   0.38172
     Eigenvalues ---    0.39479   1.12100
 En-DIIS/RFO-DIIS IScMMF=        0 using points:     3    2
 RFO step:  Lambda= 0.00000000D+00.
 NNeg= 0 NP= 2 Switch=  2.50D-03 Rises=F DC=  8.91D-08 SmlDif=  1.00D-05
 RMS Error=  0.5613126766D-06 NUsed= 2 EDIIS=F
 DidBck=F Rises=F RFO-DIIS coefs:    1.00006   -0.00006
 Iteration  1 RMS(Cart)=  0.00000098 RMS(Int)=  0.00000000
 ITry= 1 IFail=0 DXMaxC= 1.78D-06 DCOld= 1.00D+10 DXMaxT= 3.00D-01 DXLimC= 3.00D+00 Rises=F
 ClnCor:  largest displacement from symmetrization is 1.36D-13 for atom     1.
 Variable       Old X    -DE/DX   Delta X   Delta X   Delta X     New X
                                 (Linear)    (Quad)   (Total)
    R1        2.25755   0.00000   0.00000   0.00000   0.00000   2.25755
    R2        2.01070   0.00000   0.00000   0.00000   0.00000   2.01070
    R3        2.01070   0.00000   0.00000   0.00000   0.00000   2.01070
    A1        3.14159   0.00000   0.00000   0.00000   0.00000   3.14159
    A2        3.14159   0.00000   0.00000   0.00000   0.00000   3.14159
    A3        3.14159   0.00000   0.00000   0.00000   0.00000   3.14159
    A4        3.14159   0.00000   0.00000   0.00000   0.00000   3.14159
         Item               Value     Threshold  Converged?
 Maximum Force            0.000001     0.000015     YES
 RMS     Force            0.000000     0.000010     YES
 Maximum Displacement     0.000002     0.000060     YES
 RMS     Displacement     0.000001     0.000040     YES
 Predicted change in Energy=-1.102752D-12
 Optimization completed.
    -- Stationary point found.
                           ----------------------------
                           !   Optimized Parameters   !
                           ! (Angstroms and Degrees)  !
 --------------------------                            --------------------------
 ! Name  Definition              Value          Derivative Info.                !
 --------------------------------------------------------------------------------
 ! R1    R(1,2)                  1.1946         -DE/DX =    0.0                 !
 ! R2    R(1,3)                  1.064          -DE/DX =    0.0                 !
 ! R3    R(2,4)                  1.064          -DE/DX =    0.0                 !
 ! A1    L(2,1,3,-1,-1)        180.0            -DE/DX =    0.0                 !
 ! A2    L(1,2,4,-1,-1)        180.0            -DE/DX =    0.0                 !
 ! A3    L(2,1,3,-2,-2)        180.0            -DE/DX =    0.0                 !
 ! A4    L(1,2,4,-2,-2)        180.0            -DE/DX =    0.0                 !
 --------------------------------------------------------------------------------
 Lowest energy point so far.  Saving SCF results.
 GradGradGradGradGradGradGradGradGradGradGradGradGradGradGradGradGradGrad

 Largest change from initial coordinates is atom    1       0.000 Angstoms.
 Leave Link  103 at Fri Jul  9 19:22:58 2021, MaxMem=  4194304000 cpu:         6.2
 (Enter /home/minenky/programs//g09/l202.exe)
                          Input orientation:                          
 ---------------------------------------------------------------------
 Center     Atomic      Atomic             Coordinates (Angstroms)
 Number     Number       Type             X           Y           Z
 ---------------------------------------------------------------------
      1          6           0        0.000000    0.000000    0.597321
      2          6           0        0.000000    0.000000   -0.597321
      3          1           0        0.000000    0.000000    1.661336
      4          1           0        0.000000    0.000000   -1.661336
 ---------------------------------------------------------------------
                    Distance matrix (angstroms):
                    1          2          3          4
     1  C    0.000000
     2  C    1.194642   0.000000
     3  H    1.064015   2.258657   0.000000
     4  H    2.258657   1.064015   3.322672   0.000000
 Stoichiometry    C2H2
 Framework group  D*H[C*(HC.CH)]
 Deg. of freedom     2
 Full point group                 D*H     NOp   8
 RotChk:  IX=0 Diff= 0.00D+00
 Largest Abelian subgroup         D2H     NOp   8
 Largest concise Abelian subgroup C2      NOp   2
                         Standard orientation:                         
 ---------------------------------------------------------------------
 Center     Atomic      Atomic             Coordinates (Angstroms)
 Number     Number       Type             X           Y           Z
 ---------------------------------------------------------------------
      1          6           0        0.000000    0.000000    0.597321
      2          6           0        0.000000    0.000000   -0.597321
      3          1           0        0.000000    0.000000    1.661336
      4          1           0        0.000000    0.000000   -1.661336
 ---------------------------------------------------------------------
 Rotational constants (GHZ):      0.0000000     35.7757794     35.7757794
 Leave Link  202 at Fri Jul  9 19:22:58 2021, MaxMem=  4194304000 cpu:         0.8
 (Enter /home/minenky/programs//g09/l601.exe)
 Copying SCF densities to generalized density rwf, IOpCl= 0 IROHF=0.

 **********************************************************************

            Population analysis using the SCF density.

 **********************************************************************

 Orbital symmetries:
       Occupied  (SGG) (SGU) (SGG) (SGU) (SGG) (PIU) (PIU)
       Virtual   (PIG) (PIG) (SGU) (SGG) (SGG) (PIU) (PIU) (SGU)
                 (PIG) (PIG) (SGU) (SGG) (SGG) (DLTG) (DLTG) (SGU)
                 (PIU) (PIU) (DLTU) (DLTU) (SGU) (SGG) (PIG) (PIG)
                 (SGU) (PIU) (PIU) (SGG) (PIG) (PIG) (SGU) (SGG)
                 (PIU) (PIU) (SGU) (DLTG) (DLTG) (PIG) (PIG) (PHIU)
                 (PHIU) (SGG) (PIU) (PIU) (SGU) (SGG) (PHIG) (PHIG)
                 (SGU) (DLTG) (DLTG) (PIG) (PIG) (DLTU) (DLTU)
                 (DLTU) (DLTU) (SGG) (PIU) (PIU) (SGU) (PIG) (PIG)
                 (SGU) (SGG) (SGG) (SGU)
 The electronic state is 1-SGG.
 Alpha  occ. eigenvalues --  -10.29314 -10.29040  -0.85525  -0.66063  -0.58701
 Alpha  occ. eigenvalues --   -0.38065  -0.38065
 Alpha virt. eigenvalues --    0.10095   0.10095   0.13800   0.17034   0.20819
 Alpha virt. eigenvalues --    0.29416   0.29416   0.29818   0.40853   0.40853
 Alpha virt. eigenvalues --    0.42439   0.46660   0.62988   0.67267   0.67267
 Alpha virt. eigenvalues --    0.69047   0.80359   0.80359   0.97765   0.97765
 Alpha virt. eigenvalues --    0.98542   1.03342   1.14096   1.14096   1.27738
 Alpha virt. eigenvalues --    1.51294   1.51294   1.53844   1.64862   1.64862
 Alpha virt. eigenvalues --    1.68810   2.00927   2.06131   2.06131   2.09681
 Alpha virt. eigenvalues --    2.55374   2.55374   2.55688   2.55688   2.60790
 Alpha virt. eigenvalues --    2.60790   2.61138   2.72462   2.72462   2.83216
 Alpha virt. eigenvalues --    2.87428   3.02635   3.02635   3.02886   3.06511
 Alpha virt. eigenvalues --    3.06511   3.09158   3.09158   3.14216   3.14216
 Alpha virt. eigenvalues --    3.68440   3.68440   3.77870   3.94874   3.94874
 Alpha virt. eigenvalues --    4.69748   4.74613   4.74613   4.88299   5.52829
 Alpha virt. eigenvalues --   22.01779  22.84819
          Condensed to atoms (all electrons):
               1          2          3          4
     1  C    4.868051   0.944341   0.403675  -0.013810
     2  C    0.944341   4.868051  -0.013810   0.403675
     3  H    0.403675  -0.013810   0.407587   0.000290
     4  H   -0.013810   0.403675   0.000290   0.407587
 Mulliken charges:
               1
     1  C   -0.202257
     2  C   -0.202257
     3  H    0.202257
     4  H    0.202257
 Sum of Mulliken charges =   0.00000
 Mulliken charges with hydrogens summed into heavy atoms:
               1
     1  C    0.000000
     2  C    0.000000
 Electronic spatial extent (au):  <R**2>=             60.2984
 Charge=              0.0000 electrons
 Dipole moment (field-independent basis, Debye):
    X=              0.0000    Y=              0.0000    Z=              0.0000  Tot=              0.0000
 Quadrupole moment (field-independent basis, Debye-Ang):
   XX=            -13.6272   YY=            -13.6272   ZZ=             -6.7701
   XY=              0.0000   XZ=              0.0000   YZ=              0.0000
 Traceless Quadrupole moment (field-independent basis, Debye-Ang):
   XX=             -2.2857   YY=             -2.2857   ZZ=              4.5714
   XY=              0.0000   XZ=              0.0000   YZ=              0.0000
 Octapole moment (field-independent basis, Debye-Ang**2):
  XXX=              0.0000  YYY=              0.0000  ZZZ=              0.0000  XYY=              0.0000
[...]
 XXXX=            -16.4436 YYYY=            -16.4436 ZZZZ=            -35.9978 XXXY=              0.0000
 XXXZ=              0.0000 YYYX=              0.0000 YYYZ=              0.0000 ZZZX=              0.0000
 ZZZY=              0.0000 XXYY=             -5.4812 XXZZ=            -12.2959 YYZZ=            -12.2959
 XXYZ=              0.0000 YYXZ=              0.0000 ZZXY=              0.0000
 N-N= 2.488511140972D+01 E-N=-2.291423682415D+02  KE= 7.694442980832D+01
 Symmetry AG   KE= 3.806782877918D+01
 Symmetry B1G  KE= 3.595709360994D-34
 Symmetry B2G  KE= 1.684735149509D-31
 Symmetry B3G  KE= 1.917288291205D-31
 Symmetry AU   KE= 3.522211906438D-33
 Symmetry B1U  KE= 3.442562812643D+01
 Symmetry B2U  KE= 2.225486451356D+00
 Symmetry B3U  KE= 2.225486451356D+00
  Exact polarizability:  14.548   0.000  14.548   0.000   0.000  30.502
 Approx polarizability:  14.781   0.000  14.781   0.000   0.000  37.361
 No NMR shielding tensors so no spin-rotation constants.
 Leave Link  601 at Fri Jul  9 19:23:39 2021, MaxMem=  4194304000 cpu:        29.2
 (Enter /home/minenky/programs//g09/l701.exe)
 Compute integral second derivatives.
 ... and contract with generalized density number  0.
 R6Disp: Adding Grimme-D2 dispersion energy 2nd derivatives to the Hessian.
   8 Symmetry operations used in ECPInt.
 ECPInt:  NShTT=     465 NPrTT=    1428 LenC2=     466 LenP2D=    1332.
 LDataN:  DoStor=T MaxTD1= 8 Len=  415
 Leave Link  701 at Fri Jul  9 19:23:41 2021, MaxMem=  4194304000 cpu:        16.3
 (Enter /home/minenky/programs//g09/l702.exe)
 L702 exits ... SP integral derivatives will be done elsewhere.
 Leave Link  702 at Fri Jul  9 19:23:41 2021, MaxMem=  4194304000 cpu:         0.0
 (Enter /home/minenky/programs//g09/l703.exe)
 Compute integral second derivatives, UseDBF=F ICtDFT=           0.
 Integral derivatives from FoFJK, PRISM(SPDF).
 Calling FoFJK, ICntrl=    100127 FMM=F ISym2X=1 I1Cent= 0 IOpClX= 0 NMat=1 NMatS=1 NMatT=0.
 FoFJK:  IHMeth= 1 ICntrl=  100127 DoSepK=T KAlg= 0 I1Cent=   0 FoldK=F
 IRaf=         1 NMat=   1 IRICut=       1 DoRegI=T DoRafI=F ISym2E= 1.
 FoFCou: FMM=F IPFlag=           0 FMFlag=      100000 FMFlg1=         800
         NFxFlg=           0 DoJE=F BraDBF=F KetDBF=F FulRan=T
         wScrn=  0.000000 ICntrl=  100527 IOpCl=  0 I1Cent=           0 NGrid=           0
         NMat0=    1 NMatS0=      1 NMatT0=    0 NMatD0=    1 NMtDS0=    0 NMtDT0=    0
 Petite list used in FoFCou.
 Leave Link  703 at Fri Jul  9 19:23:46 2021, MaxMem=  4194304000 cpu:        51.2
 (Enter /home/minenky/programs//g09/l716.exe)
 Dipole        = 1.21388334D-15 1.11842363D-31-4.77048956D-16
 Polarizability= 1.45477601D+01-1.75893678D-17 1.45477601D+01
                -8.02912745D-12-2.35433533D-11 3.05022191D+01
 Full mass-weighted force constant matrix:
 Low frequencies ---    0.0004    0.0005    0.0005   26.2329   26.2329  675.7847
 Low frequencies ---  675.7847  777.3181  777.3181
 Diagonal vibrational polarizability:
        4.8776760       4.8776760       0.2108212
 Harmonic frequencies (cm**-1), IR intensities (KM/Mole), Raman scattering
 activities (A**4/AMU), depolarization ratios for plane and unpolarized
 incident light, reduced masses (AMU), force constants (mDyne/A),
 and normal coordinates:
                      1                      2                      3
                     PIG                    PIG                    PIU
 Frequencies --    675.7844               675.7844               777.3181
 Red. masses --      1.5766                 1.5766                 1.0848
 Frc consts  --      0.4242                 0.4242                 0.3862
 IR Inten    --      0.0000                 0.0000               109.5160
  Atom  AN      X      Y      Z        X      Y      Z        X      Y      Z
     1   6     0.00   0.16   0.00     0.16   0.00   0.00     0.00   0.06   0.00
     2   6     0.00  -0.16   0.00    -0.16   0.00   0.00     0.00   0.06   0.00
     3   1     0.00  -0.69   0.00    -0.69   0.00   0.00     0.00  -0.70   0.00
     4   1     0.00   0.69   0.00     0.69   0.00   0.00     0.00  -0.70   0.00
                      4                      5                      6
                     PIU                    SGG                    SGU
 Frequencies --    777.3181              2093.7730              3422.0313
 Red. masses --      1.0848                 3.7484                 1.0848
 Frc consts  --      0.3862                 9.6818                 7.4847
 IR Inten    --    109.5160                 0.0000                91.7380
  Atom  AN      X      Y      Z        X      Y      Z        X      Y      Z
     1   6     0.06   0.00   0.00     0.00   0.00   0.35     0.00   0.00   0.06
     2   6     0.06   0.00   0.00     0.00   0.00  -0.35     0.00   0.00   0.06
     3   1    -0.70   0.00   0.00     0.00   0.00   0.61     0.00   0.00  -0.70
     4   1    -0.70   0.00   0.00     0.00   0.00  -0.61     0.00   0.00  -0.70
                      7
                     SGG
 Frequencies --   3525.2287
 Red. masses --      1.2364
 Frc consts  --      9.0530
 IR Inten    --      0.0000
  Atom  AN      X      Y      Z
     1   6     0.00   0.00  -0.10
     2   6     0.00   0.00   0.10
     3   1     0.00   0.00   0.70
     4   1     0.00   0.00  -0.70

 -------------------
 - Thermochemistry -
 -------------------
 Temperature   298.150 Kelvin.  Pressure   1.00000 Atm.
 Atom     1 has atomic number  6 and mass  12.00000
 Atom     2 has atomic number  6 and mass  12.00000
 Atom     3 has atomic number  1 and mass   1.00783
 Atom     4 has atomic number  1 and mass   1.00783
 Molecular mass:    26.01565 amu.
 Principal axes and moments of inertia in atomic units:
                           1         2         3
     Eigenvalues --     0.00000  50.44589  50.44589
           X            0.00000   1.00000   0.00000
           Y            0.00000   0.00000   1.00000
           Z            1.00000   0.00000   0.00000
 This molecule is a prolate symmetric top.
 Rotational symmetry number  2.
 Rotational temperature (Kelvin)      1.71696
 Rotational constant (GHZ):          35.775779
 Zero-point vibrational energy      71460.4 (Joules/Mol)
                                   17.07943 (Kcal/Mol)
 Vibrational temperatures:    972.30   972.30  1118.39  1118.39  3012.47
          (Kelvin)           4923.53  5072.01
 
 Zero-point correction=                           0.027218 (Hartree/Particle)
 Thermal correction to Energy=                    0.029995
 Thermal correction to Enthalpy=                  0.030939
 Thermal correction to Gibbs Free Energy=         0.008280
 Sum of electronic and zero-point Energies=            -77.300945
 Sum of electronic and thermal Energies=               -77.298169
 Sum of electronic and thermal Enthalpies=             -77.297224
 Sum of electronic and thermal Free Energies=          -77.319883
 
                     E (Thermal)             CV                S
                      KCal/Mol        Cal/Mol-Kelvin    Cal/Mol-Kelvin
 Total                   18.822              8.107             47.689
 Electronic               0.000              0.000              0.000
 Translational            0.889              2.981             35.704
 Rotational               0.592              1.987             10.858
 Vibrational             17.341              3.139              1.126
                       Q            Log10(Q)             Ln(Q)
 Total Bot       0.155339D-03         -3.808718         -8.769898
 Total V=0       0.513546D+09          8.710579         20.056850
 Vib (Bot)       0.343029D-12        -12.464669        -28.700961
 Vib (V=0)       0.113404D+01          0.054628          0.125786
 Electronic      0.100000D+01          0.000000          0.000000
 Translational   0.521564D+07          6.717307         15.467172
 Rotational      0.868247D+02          1.938643          4.463892
 
                                               The PBEPBE optimization and freque
 ncies
                                                             IR Spectrum
 
     3   3                                               2                                                                           
     5   4                                               0                                              7   6                        
     2   2                                               9                                              7   7                        
     5   2                                               4                                              7   6                        
 
         X                                                                                              X                            
         X                                                                                              X                            
         X                                                                                              X                            
         X                                                                                              X                            
         X                                                                                              X                            
         X                                                                                              X                            
         X                                                                                              X                            
         X                                                                                              X                            
                                                                                                        X                            
                                                                                                        X                            
                                                                                                        X                            
                                                                                                        X                            
                                                                                                        X                            
                                                                                                        X                            
                                                                                                        X                            
                                                                                                        X                            
                                                                                                        X                            
                                                                                                        X                            
                                                                                                        X                            
                                                                                                        X                            
 
 ***** Axes restored to original set *****
 -------------------------------------------------------------------
 Center     Atomic                   Forces (Hartrees/Bohr)
 Number     Number              X              Y              Z
 -------------------------------------------------------------------
      1        6           0.000000000    0.000000000    0.000000444
      2        6           0.000000000    0.000000000   -0.000000444
      3        1           0.000000000    0.000000000    0.000000508
      4        1           0.000000000    0.000000000   -0.000000508
 -------------------------------------------------------------------
 Cartesian Forces:  Max     0.000000508 RMS     0.000000275
 Force constants in Cartesian coordinates: 
                1             2             3             4             5 
      1  0.514592D-01
      2  0.000000D+00  0.514592D-01
      3  0.000000D+00  0.000000D+00  0.157004D+01
      4 -0.301998D-01  0.000000D+00  0.000000D+00  0.514592D-01
      5  0.000000D+00 -0.301998D-01  0.000000D+00  0.000000D+00  0.514592D-01
      6  0.000000D+00  0.000000D+00 -0.115802D+01  0.000000D+00  0.000000D+00
      7 -0.252840D-01  0.000000D+00  0.000000D+00  0.402457D-02  0.000000D+00
      8  0.000000D+00 -0.252840D-01  0.000000D+00  0.000000D+00  0.402457D-02
      9  0.000000D+00  0.000000D+00 -0.418446D+00  0.000000D+00  0.000000D+00
     10  0.402457D-02  0.000000D+00  0.000000D+00 -0.252840D-01  0.000000D+00
     11  0.000000D+00  0.402457D-02  0.000000D+00  0.000000D+00 -0.252840D-01
     12  0.000000D+00  0.000000D+00  0.642365D-02  0.000000D+00  0.000000D+00
                6             7             8             9            10 
      6  0.157004D+01
      7  0.000000D+00  0.159226D-01
      8  0.000000D+00  0.000000D+00  0.159226D-01
      9  0.642365D-02  0.000000D+00  0.000000D+00  0.412038D+00
     10  0.000000D+00  0.533676D-02  0.000000D+00  0.000000D+00  0.159226D-01
     11  0.000000D+00  0.000000D+00  0.533676D-02  0.000000D+00  0.000000D+00
     12 -0.418446D+00  0.000000D+00  0.000000D+00 -0.153895D-04  0.000000D+00
               11            12 
     11  0.159226D-01
     12  0.000000D+00  0.412038D+00
 FormGI is forming the generalized inverse of G from B-inverse, IUseBI=4.
 Force constants in internal coordinates: 
                1             2             3             4             5 
      1  0.114518D+01
      2 -0.640826D-02  0.412038D+00
      3 -0.640826D-02  0.153895D-04  0.412038D+00
      4  0.000000D+00  0.000000D+00  0.000000D+00  0.643075D-01
      5  0.000000D+00  0.000000D+00  0.000000D+00 -0.216431D-01  0.643075D-01
      6  0.000000D+00  0.000000D+00  0.000000D+00  0.000000D+00  0.000000D+00
      7  0.000000D+00  0.000000D+00  0.000000D+00  0.000000D+00  0.000000D+00
                6             7 
      6  0.643075D-01
      7 -0.216431D-01  0.643075D-01
 Leave Link  716 at Fri Jul  9 19:23:47 2021, MaxMem=  4194304000 cpu:         5.4
 (Enter /home/minenky/programs//g09/l103.exe)

 GradGradGradGradGradGradGradGradGradGradGradGradGradGradGradGradGradGrad
 Berny optimization.
 Red2BG is reusing G-inverse.
 Internal  Forces:  Max     0.000000951 RMS     0.000000450
 Search for a local minimum.
 Step number   1 out of a maximum of    2
 All quantities printed in internal units (Hartrees-Bohrs-Radians)
 Second derivative matrix not updated -- analytic derivatives used.
 The second derivative matrix:
                          R1        R2        R3        A1        A2
           R1           1.14518
           R2          -0.00641   0.41204
           R3          -0.00641   0.00002   0.41204
           A1           0.00000   0.00000   0.00000   0.06431
           A2           0.00000   0.00000   0.00000  -0.02164   0.06431
           A3           0.00000   0.00000   0.00000   0.00000   0.00000
           A4           0.00000   0.00000   0.00000   0.00000   0.00000
                          A3        A4
           A3           0.06431
           A4          -0.02164   0.06431
 ITU=  0
     Eigenvalues ---    0.04266   0.04266   0.08595   0.08595   0.41194
     Eigenvalues ---    0.41202   1.14530
 Angle between quadratic step and forces=  27.33 degrees.
 Linear search not attempted -- first point.
 Iteration  1 RMS(Cart)=  0.00000092 RMS(Int)=  0.00000001
 ITry= 1 IFail=0 DXMaxC= 1.67D-06 DCOld= 1.00D+10 DXMaxT= 3.00D-01 DXLimC= 3.00D+00 Rises=F
 ClnCor:  largest displacement from symmetrization is 2.83D-14 for atom     1.
 Variable       Old X    -DE/DX   Delta X   Delta X   Delta X     New X
                                 (Linear)    (Quad)   (Total)
    R1        2.25755   0.00000   0.00000   0.00000   0.00000   2.25755
    R2        2.01070   0.00000   0.00000   0.00000   0.00000   2.01070
    R3        2.01070   0.00000   0.00000   0.00000   0.00000   2.01070
    A1        3.14159   0.00000   0.00000   0.00000   0.00000   3.14159
    A2        3.14159   0.00000   0.00000   0.00000   0.00000   3.14159
    A3        3.14159   0.00000   0.00000   0.00000   0.00000   3.14159
    A4        3.14159   0.00000   0.00000   0.00000   0.00000   3.14159
         Item               Value     Threshold  Converged?
 Maximum Force            0.000001     0.000015     YES
 RMS     Force            0.000000     0.000010     YES
 Maximum Displacement     0.000002     0.000060     YES
 RMS     Displacement     0.000001     0.000040     YES
 Predicted change in Energy=-1.033476D-12
 Optimization completed.
    -- Stationary point found.
                           ----------------------------
                           !   Optimized Parameters   !
                           ! (Angstroms and Degrees)  !
 --------------------------                            --------------------------
 ! Name  Definition              Value          Derivative Info.                !
 --------------------------------------------------------------------------------
 ! R1    R(1,2)                  1.1946         -DE/DX =    0.0                 !
 ! R2    R(1,3)                  1.064          -DE/DX =    0.0                 !
 ! R3    R(2,4)                  1.064          -DE/DX =    0.0                 !
 ! A1    L(2,1,3,-1,-1)        180.0            -DE/DX =    0.0                 !
 ! A2    L(1,2,4,-1,-1)        180.0            -DE/DX =    0.0                 !
 ! A3    L(2,1,3,-2,-2)        180.0            -DE/DX =    0.0                 !
 ! A4    L(1,2,4,-2,-2)        180.0            -DE/DX =    0.0                 !
 --------------------------------------------------------------------------------
 GradGradGradGradGradGradGradGradGradGradGradGradGradGradGradGradGradGrad

 Leave Link  103 at Fri Jul  9 19:23:47 2021, MaxMem=  4194304000 cpu:         2.9
 (Enter /home/minenky/programs//g09/l9999.exe)
 1\1\GINC-CN506-09-R\Freq\RwB97XD\def2TZVP\C2H2\MINENKY\09-Jul-2021\0\\
 #P Geom=AllCheck Guess=TCheck SCRF=Check GenChk RwB97XD/def2TZVP Freq\
 \The PBEPBE optimization and frequencies\\0,1\C,0.,0.,0.5973210815\C,0
 .,0.,-0.5973210815\H,0.,0.,1.6613360563\H,0.,0.,-1.6613360563\\Version
 =AM64L-G09RevD.01\State=1-SGG\HF=-77.3281632\RMSD=3.356e-10\RMSF=2.752
 e-07\ZeroPoint=0.0272178\Thermal=0.0299946\Dipole=0.,0.,0.\DipoleDeriv
 =-0.2285225,0.,0.,0.,-0.2285225,0.,0.,0.,-0.2091533,-0.2285225,0.,0.,0
 .,-0.2285225,0.,0.,0.,-0.2091533,0.2285225,0.,0.,0.,0.2285225,0.,0.,0.
 ,0.2091533,0.2285225,0.,0.,0.,0.2285225,0.,0.,0.,0.2091533\Polar=14.54
 77601,0.,14.5477601,0.,0.,30.5022191\PG=D*H [C*(H1C1.C1H1)]\NImag=0\\0
 .05145923,0.,0.05145923,0.,0.,1.57003824,-0.03019984,0.,0.,0.05145923,
 0.,-0.03019984,0.,0.,0.05145923,0.,0.,-1.15801558,0.,0.,1.57003824,-0.
 02528396,0.,0.,0.00402457,0.,0.,0.01592263,0.,-0.02528396,0.,0.,0.0040
 2457,0.,0.,0.01592263,0.,0.,-0.41844631,0.,0.,0.00642365,0.,0.,0.41203
 805,0.00402457,0.,0.,-0.02528396,0.,0.,0.00533676,0.,0.,0.01592263,0.,
 0.00402457,0.,0.,-0.02528396,0.,0.,0.00533676,0.,0.,0.01592263,0.,0.,0
 .00642365,0.,0.,-0.41844631,0.,0.,-0.00001539,0.,0.,0.41203805\\0.,0.,
 -0.00000044,0.,0.,0.00000044,0.,0.,-0.00000051,0.,0.,0.00000051\\\@


     ON THE SURVIVAL OF THE FITTEST -
 "STRONG REPRESENTATIVES FROM EACH PAST ERA THRIVE TODAY,
 SUCH AS PROGRAMMING IN THE THIRTY YEAR OLD LANGUAGE KNOWN
 AS FORTRAN, AND EVEN IN THE ANCIENT SCRIPT KNOWN AS DIRECT
 MACHINE CODE. SOME PEOPLE MIGHT LOOK ON SUCH RELICS AS LIVING
 FOSSILS; OTHERS WOULD POINT OUT THAT EVEN A VERY OLD SPECIES
 MIGHT STILL BE FILLING A PARTICULAR ECOLOGICAL NICHE."
     -- ALAN KAY, SCI.AM. SEPTEMBER 1984
 Job cpu time:       0 days  0 hours  7 minutes 35.4 seconds.
 File lengths (MBytes):  RWF=      5 Int=      0 D2E=      0 Chk=      2 Scr=      1
 Normal termination of Gaussian 09 at Fri Jul  9 19:23:47 2021.
