 Entering Gaussian System, Link 0=g09
 Initial command:
 /home/minenky/programs//g09/l1.exe "/local/scratch/minenky/m1_00_110-82-70_C6H12_wB97XD/Gau-178588.inp" -scrdir="/local/scratch/minenky/m1_00_110-82-70_C6H12_wB97XD/"
 Entering Link 1 = /home/minenky/programs//g09/l1.exe PID=    178604.
  
 Copyright (c) 1988,1990,1992,1993,1995,1998,2003,2009,2013,
            Gaussian, Inc.  All Rights Reserved.
  
 This is part of the Gaussian(R) 09 program.  It is based on
 the Gaussian(R) 03 system (copyright 2003, Gaussian, Inc.),
 the Gaussian(R) 98 system (copyright 1998, Gaussian, Inc.),
 the Gaussian(R) 94 system (copyright 1995, Gaussian, Inc.),
 the Gaussian 92(TM) system (copyright 1992, Gaussian, Inc.),
 the Gaussian 90(TM) system (copyright 1990, Gaussian, Inc.),
 the Gaussian 88(TM) system (copyright 1988, Gaussian, Inc.),
 the Gaussian 86(TM) system (copyright 1986, Carnegie Mellon
 University), and the Gaussian 82(TM) system (copyright 1983,
 Carnegie Mellon University). Gaussian is a federally registered
 trademark of Gaussian, Inc.
  
 This software contains proprietary and confidential information,
 including trade secrets, belonging to Gaussian, Inc.
  
 This software is provided under written license and may be
 used, copied, transmitted, or stored only in accord with that
 written license.
  
 The following legend is applicable only to US Government
 contracts under FAR:
  
                    RESTRICTED RIGHTS LEGEND
  
 Use, reproduction and disclosure by the US Government is
 subject to restrictions as set forth in subparagraphs (a)
 and (c) of the Commercial Computer Software - Restricted
 Rights clause in FAR 52.227-19.
  
 Gaussian, Inc.
 340 Quinnipiac St., Bldg. 40, Wallingford CT 06492
  
  
 ---------------------------------------------------------------
 Warning -- This program may not be used in any manner that
 competes with the business of Gaussian, Inc. or will provide
 assistance to any competitor of Gaussian, Inc.  The licensee
 of this program is prohibited from giving any competitor of
 Gaussian, Inc. access to this program.  By using this program,
 the user acknowledges that Gaussian, Inc. is engaged in the
 business of creating and licensing software in the field of
 computational chemistry and represents and warrants to the
 licensee that it is not a competitor of Gaussian, Inc. and that
 it will not use this program in any manner prohibited above.
 ---------------------------------------------------------------
  

 Cite this work as:
 Gaussian 09, Revision D.01,
 M. J. Frisch, G. W. Trucks, H. B. Schlegel, G. E. Scuseria, 
 M. A. Robb, J. R. Cheeseman, G. Scalmani, V. Barone, B. Mennucci, 
 G. A. Petersson, H. Nakatsuji, M. Caricato, X. Li, H. P. Hratchian, 
 A. F. Izmaylov, J. Bloino, G. Zheng, J. L. Sonnenberg, M. Hada, 
 M. Ehara, K. Toyota, R. Fukuda, J. Hasegawa, M. Ishida, T. Nakajima, 
 Y. Honda, O. Kitao, H. Nakai, T. Vreven, J. A. Montgomery, Jr., 
 J. E. Peralta, F. Ogliaro, M. Bearpark, J. J. Heyd, E. Brothers, 
 K. N. Kudin, V. N. Staroverov, T. Keith, R. Kobayashi, J. Normand, 
 K. Raghavachari, A. Rendell, J. C. Burant, S. S. Iyengar, J. Tomasi, 
 M. Cossi, N. Rega, J. M. Millam, M. Klene, J. E. Knox, J. B. Cross, 
 V. Bakken, C. Adamo, J. Jaramillo, R. Gomperts, R. E. Stratmann, 
 O. Yazyev, A. J. Austin, R. Cammi, C. Pomelli, J. W. Ochterski, 
 R. L. Martin, K. Morokuma, V. G. Zakrzewski, G. A. Voth, 
 P. Salvador, J. J. Dannenberg, S. Dapprich, A. D. Daniels, 
 O. Farkas, J. B. Foresman, J. V. Ortiz, J. Cioslowski, 
 and D. J. Fox, Gaussian, Inc., Wallingford CT, 2013.
 
 ******************************************
 Gaussian 09:  AM64L-G09RevD.01 24-Apr-2013
                 9-Jul-2021 
 ******************************************
 %Mem=32000MB
 %NProcShared=16
 Will use up to   16 processors via shared memory.
 %Chk=m1_00_110-82-70_C6H12_wB97XD
 ----------------------------------------------------------------------
 #P wB97XD/def2tzvp opt=(tight) freq integral(Grid=ultrafine) # SCF(Max
 Cycle=380) 5d 7f GFPrint
 ----------------------------------------------------------------------
 1/7=10,14=-1,18=20,19=15,26=4,38=1/1,3;
 2/9=110,12=2,17=6,18=5,40=1/2;
 3/5=44,7=101,8=11,11=2,16=1,24=100,25=1,30=1,71=1,74=-58,75=-5/1,2,3;
 4//1;
 5/5=2,7=380,38=5/2;
 6/7=2,8=2,9=2,10=2,28=1/1;
 7//1,2,3,16;
 1/7=10,14=-1,18=20,19=15,26=4/3(2);
 2/9=110/2;
 99//99;
 2/9=110/2;
 3/5=44,7=101,8=11,11=2,16=1,25=1,30=1,71=1,74=-58,75=-5/1,2,3;
 4/5=5,16=3,69=1/1;
 5/5=2,7=380,38=5/2;
 7//1,2,3,16;
 1/7=10,14=-1,18=20,19=15,26=4/3(-5);
 2/9=110/2;
 6/7=2,8=2,9=2,10=2,19=2,28=1/1;
 99/9=1/99;
 Leave Link    1 at Fri Jul  9 19:19:35 2021, MaxMem=  4194304000 cpu:         1.7
 (Enter /home/minenky/programs//g09/l101.exe)
 ---------------------------------------
 The PBEPBE optimization and frequencies
 ---------------------------------------
 Symbolic Z-matrix:
 Charge =  0 Multiplicity = 1
 C                     1.26438   0.72999   0.22923 
 H                     1.31974   0.76195   1.32345 
 H                     2.15434   1.24381  -0.14301 
 C                    -1.26438   0.72999   0.22923 
 H                    -1.31974   0.76195   1.32345 
 H                    -2.15434   1.24381  -0.14301 
 C                     0.       -1.45998   0.22923 
 H                     0.       -1.52391   1.32345 
 H                     0.       -2.48762  -0.14301 
 C                     0.        1.45998  -0.22923 
 H                     0.        1.52391  -1.32345 
 H                     0.        2.48762   0.14301 
 C                    -1.26438  -0.72999  -0.22923 
 H                    -1.31974  -0.76195  -1.32345 
 H                    -2.15434  -1.24381   0.14301 
 C                     1.26438  -0.72999  -0.22923 
 H                     1.31974  -0.76195  -1.32345 
 H                     2.15434  -1.24381   0.14301 
 
 NAtoms=     18 NQM=       18 NQMF=       0 NMMI=      0 NMMIF=      0
                NMic=       0 NMicF=      0.
                    Isotopes and Nuclear Properties:
 (Nuclear quadrupole moments (NQMom) in fm**2, nuclear magnetic moments (NMagM)
  in nuclear magnetons)

  Atom         1           2           3           4           5           6           7           8           9          10
 IAtWgt=          12           1           1          12           1           1          12           1           1          12
 AtmWgt=  12.0000000   1.0078250   1.0078250  12.0000000   1.0078250   1.0078250  12.0000000   1.0078250   1.0078250  12.0000000
 NucSpn=           0           1           1           0           1           1           0           1           1           0
 AtZEff=   0.0000000   0.0000000   0.0000000   0.0000000   0.0000000   0.0000000   0.0000000   0.0000000   0.0000000   0.0000000
 NQMom=    0.0000000   0.0000000   0.0000000   0.0000000   0.0000000   0.0000000   0.0000000   0.0000000   0.0000000   0.0000000
 NMagM=    0.0000000   2.7928460   2.7928460   0.0000000   2.7928460   2.7928460   0.0000000   2.7928460   2.7928460   0.0000000
 AtZNuc=   6.0000000   1.0000000   1.0000000   6.0000000   1.0000000   1.0000000   6.0000000   1.0000000   1.0000000   6.0000000

  Atom        11          12          13          14          15          16          17          18
 IAtWgt=           1           1          12           1           1          12           1           1
 AtmWgt=   1.0078250   1.0078250  12.0000000   1.0078250   1.0078250  12.0000000   1.0078250   1.0078250
 NucSpn=           1           1           0           1           1           0           1           1
 AtZEff=   0.0000000   0.0000000   0.0000000   0.0000000   0.0000000   0.0000000   0.0000000   0.0000000
 NQMom=    0.0000000   0.0000000   0.0000000   0.0000000   0.0000000   0.0000000   0.0000000   0.0000000
 NMagM=    2.7928460   2.7928460   0.0000000   2.7928460   2.7928460   0.0000000   2.7928460   2.7928460
 AtZNuc=   1.0000000   1.0000000   6.0000000   1.0000000   1.0000000   6.0000000   1.0000000   1.0000000
 Leave Link  101 at Fri Jul  9 19:19:36 2021, MaxMem=  4194304000 cpu:         1.2
 (Enter /home/minenky/programs//g09/l103.exe)

 GradGradGradGradGradGradGradGradGradGradGradGradGradGradGradGradGradGrad
 Berny optimization.
 Initialization pass.
                           ----------------------------
                           !    Initial Parameters    !
                           ! (Angstroms and Degrees)  !
 --------------------------                            --------------------------
 ! Name  Definition              Value          Derivative Info.                !
 --------------------------------------------------------------------------------
 ! R1    R(1,2)                  1.0961         estimate D2E/DX2                !
 ! R2    R(1,3)                  1.093          estimate D2E/DX2                !
 ! R3    R(1,10)                 1.5303         estimate D2E/DX2                !
 ! R4    R(1,16)                 1.5303         estimate D2E/DX2                !
 ! R5    R(4,5)                  1.0961         estimate D2E/DX2                !
 ! R6    R(4,6)                  1.093          estimate D2E/DX2                !
 ! R7    R(4,10)                 1.5303         estimate D2E/DX2                !
 ! R8    R(4,13)                 1.5303         estimate D2E/DX2                !
 ! R9    R(7,8)                  1.0961         estimate D2E/DX2                !
 ! R10   R(7,9)                  1.093          estimate D2E/DX2                !
 ! R11   R(7,13)                 1.5303         estimate D2E/DX2                !
 ! R12   R(7,16)                 1.5303         estimate D2E/DX2                !
 ! R13   R(10,11)                1.0961         estimate D2E/DX2                !
 ! R14   R(10,12)                1.093          estimate D2E/DX2                !
 ! R15   R(13,14)                1.0961         estimate D2E/DX2                !
 ! R16   R(13,15)                1.093          estimate D2E/DX2                !
 ! R17   R(16,17)                1.0961         estimate D2E/DX2                !
 ! R18   R(16,18)                1.093          estimate D2E/DX2                !
 ! A1    A(2,1,3)              106.5686         estimate D2E/DX2                !
 ! A2    A(2,1,10)             109.0814         estimate D2E/DX2                !
 ! A3    A(2,1,16)             109.0814         estimate D2E/DX2                !
 ! A4    A(3,1,10)             110.272          estimate D2E/DX2                !
 ! A5    A(3,1,16)             110.272          estimate D2E/DX2                !
 ! A6    A(10,1,16)            111.4298         estimate D2E/DX2                !
 ! A7    A(5,4,6)              106.5686         estimate D2E/DX2                !
 ! A8    A(5,4,10)             109.0814         estimate D2E/DX2                !
 ! A9    A(5,4,13)             109.0814         estimate D2E/DX2                !
 ! A10   A(6,4,10)             110.272          estimate D2E/DX2                !
 ! A11   A(6,4,13)             110.272          estimate D2E/DX2                !
 ! A12   A(10,4,13)            111.4298         estimate D2E/DX2                !
 ! A13   A(8,7,9)              106.5686         estimate D2E/DX2                !
 ! A14   A(8,7,13)             109.0813         estimate D2E/DX2                !
 ! A15   A(8,7,16)             109.0813         estimate D2E/DX2                !
 ! A16   A(9,7,13)             110.272          estimate D2E/DX2                !
 ! A17   A(9,7,16)             110.272          estimate D2E/DX2                !
 ! A18   A(13,7,16)            111.4298         estimate D2E/DX2                !
 ! A19   A(1,10,4)             111.4298         estimate D2E/DX2                !
 ! A20   A(1,10,11)            109.0813         estimate D2E/DX2                !
 ! A21   A(1,10,12)            110.272          estimate D2E/DX2                !
 ! A22   A(4,10,11)            109.0813         estimate D2E/DX2                !
 ! A23   A(4,10,12)            110.272          estimate D2E/DX2                !
 ! A24   A(11,10,12)           106.5686         estimate D2E/DX2                !
 ! A25   A(4,13,7)             111.4298         estimate D2E/DX2                !
 ! A26   A(4,13,14)            109.0814         estimate D2E/DX2                !
 ! A27   A(4,13,15)            110.272          estimate D2E/DX2                !
 ! A28   A(7,13,14)            109.0814         estimate D2E/DX2                !
 ! A29   A(7,13,15)            110.272          estimate D2E/DX2                !
 ! A30   A(14,13,15)           106.5686         estimate D2E/DX2                !
 ! A31   A(1,16,7)             111.4298         estimate D2E/DX2                !
 ! A32   A(1,16,17)            109.0814         estimate D2E/DX2                !
 ! A33   A(1,16,18)            110.272          estimate D2E/DX2                !
 ! A34   A(7,16,17)            109.0814         estimate D2E/DX2                !
 ! A35   A(7,16,18)            110.272          estimate D2E/DX2                !
 ! A36   A(17,16,18)           106.5686         estimate D2E/DX2                !
 ! D1    D(2,1,10,4)           -65.6381         estimate D2E/DX2                !
 ! D2    D(2,1,10,11)          173.8726         estimate D2E/DX2                !
 ! D3    D(2,1,10,12)           57.1653         estimate D2E/DX2                !
 ! D4    D(3,1,10,4)           177.6547         estimate D2E/DX2                !
 ! D5    D(3,1,10,11)           57.1653         estimate D2E/DX2                !
 ! D6    D(3,1,10,12)          -59.542          estimate D2E/DX2                !
 ! D7    D(16,1,10,4)           54.8513         estimate D2E/DX2                !
 ! D8    D(16,1,10,11)         -65.638          estimate D2E/DX2                !
 ! D9    D(16,1,10,12)         177.6547         estimate D2E/DX2                !
 ! D10   D(2,1,16,7)            65.6381         estimate D2E/DX2                !
 ! D11   D(2,1,16,17)         -173.8726         estimate D2E/DX2                !
 ! D12   D(2,1,16,18)          -57.1653         estimate D2E/DX2                !
 ! D13   D(3,1,16,7)          -177.6547         estimate D2E/DX2                !
 ! D14   D(3,1,16,17)          -57.1653         estimate D2E/DX2                !
 ! D15   D(3,1,16,18)           59.542          estimate D2E/DX2                !
 ! D16   D(10,1,16,7)          -54.8513         estimate D2E/DX2                !
 ! D17   D(10,1,16,17)          65.6381         estimate D2E/DX2                !
 ! D18   D(10,1,16,18)        -177.6547         estimate D2E/DX2                !
 ! D19   D(5,4,10,1)            65.6381         estimate D2E/DX2                !
 ! D20   D(5,4,10,11)         -173.8726         estimate D2E/DX2                !
 ! D21   D(5,4,10,12)          -57.1653         estimate D2E/DX2                !
 ! D22   D(6,4,10,1)          -177.6547         estimate D2E/DX2                !
 ! D23   D(6,4,10,11)          -57.1653         estimate D2E/DX2                !
 ! D24   D(6,4,10,12)           59.542          estimate D2E/DX2                !
 ! D25   D(13,4,10,1)          -54.8513         estimate D2E/DX2                !
 ! D26   D(13,4,10,11)          65.638          estimate D2E/DX2                !
 ! D27   D(13,4,10,12)        -177.6547         estimate D2E/DX2                !
 ! D28   D(5,4,13,7)           -65.6381         estimate D2E/DX2                !
 ! D29   D(5,4,13,14)          173.8726         estimate D2E/DX2                !
 ! D30   D(5,4,13,15)           57.1653         estimate D2E/DX2                !
 ! D31   D(6,4,13,7)           177.6547         estimate D2E/DX2                !
 ! D32   D(6,4,13,14)           57.1653         estimate D2E/DX2                !
 ! D33   D(6,4,13,15)          -59.542          estimate D2E/DX2                !
 ! D34   D(10,4,13,7)           54.8513         estimate D2E/DX2                !
 ! D35   D(10,4,13,14)         -65.6381         estimate D2E/DX2                !
 ! D36   D(10,4,13,15)         177.6547         estimate D2E/DX2                !
 ! D37   D(8,7,13,4)            65.638          estimate D2E/DX2                !
 ! D38   D(8,7,13,14)         -173.8726         estimate D2E/DX2                !
 ! D39   D(8,7,13,15)          -57.1653         estimate D2E/DX2                !
 ! D40   D(9,7,13,4)          -177.6547         estimate D2E/DX2                !
 ! D41   D(9,7,13,14)          -57.1653         estimate D2E/DX2                !
 ! D42   D(9,7,13,15)           59.542          estimate D2E/DX2                !
 ! D43   D(16,7,13,4)          -54.8513         estimate D2E/DX2                !
 ! D44   D(16,7,13,14)          65.6381         estimate D2E/DX2                !
 ! D45   D(16,7,13,15)        -177.6547         estimate D2E/DX2                !
 ! D46   D(8,7,16,1)           -65.638          estimate D2E/DX2                !
 ! D47   D(8,7,16,17)          173.8726         estimate D2E/DX2                !
 ! D48   D(8,7,16,18)           57.1653         estimate D2E/DX2                !
 ! D49   D(9,7,16,1)           177.6547         estimate D2E/DX2                !
 ! D50   D(9,7,16,17)           57.1653         estimate D2E/DX2                !
 ! D51   D(9,7,16,18)          -59.542          estimate D2E/DX2                !
 ! D52   D(13,7,16,1)           54.8513         estimate D2E/DX2                !
 ! D53   D(13,7,16,17)         -65.6381         estimate D2E/DX2                !
 ! D54   D(13,7,16,18)         177.6547         estimate D2E/DX2                !
 --------------------------------------------------------------------------------
 Trust Radius=3.00D-01 FncErr=1.00D-07 GrdErr=1.00D-06
 Number of steps in this run=    108 maximum allowed number of steps=    108.
 GradGradGradGradGradGradGradGradGradGradGradGradGradGradGradGradGradGrad

 Leave Link  103 at Fri Jul  9 19:19:36 2021, MaxMem=  4194304000 cpu:         0.0
 (Enter /home/minenky/programs//g09/l202.exe)
                          Input orientation:                          
 ---------------------------------------------------------------------
 Center     Atomic      Atomic             Coordinates (Angstroms)
 Number     Number       Type             X           Y           Z
 ---------------------------------------------------------------------
      1          6           0        1.264378    0.729989    0.229233
      2          1           0        1.319741    0.761953    1.323449
      3          1           0        2.154339    1.243808   -0.143014
      4          6           0       -1.264378    0.729989    0.229233
      5          1           0       -1.319741    0.761953    1.323449
      6          1           0       -2.154339    1.243808   -0.143014
      7          6           0        0.000000   -1.459978    0.229233
      8          1           0        0.000000   -1.523905    1.323449
      9          1           0        0.000000   -2.487616   -0.143014
     10          6           0        0.000000    1.459978   -0.229233
     11          1           0        0.000000    1.523905   -1.323449
     12          1           0        0.000000    2.487616    0.143014
     13          6           0       -1.264378   -0.729989   -0.229233
     14          1           0       -1.319741   -0.761953   -1.323449
     15          1           0       -2.154339   -1.243808    0.143014
     16          6           0        1.264378   -0.729989   -0.229233
     17          1           0        1.319741   -0.761953   -1.323449
     18          1           0        2.154339   -1.243808    0.143014
 ---------------------------------------------------------------------
                    Distance matrix (angstroms):
                    1          2          3          4          5
     1  C    0.000000
     2  H    1.096082   0.000000
     3  H    1.092981   1.754780   0.000000
     4  C    2.528756   2.806421   3.477097   0.000000
     5  H    2.806421   2.639482   3.801569   1.096082   0.000000
     6  H    3.477097   3.801569   4.308678   1.092981   1.754780
     7  C    2.528756   2.806422   3.477097   2.528756   2.806422
     8  H    2.806421   2.639482   3.801569   2.806421   2.639482
     9  H    3.477097   3.801569   4.308677   3.477097   3.801569
    10  C    1.530270   2.154014   2.166873   1.530270   2.154014
    11  H    2.154014   3.054236   2.472460   2.154014   3.054236
    12  H    2.166873   2.472459   2.504006   2.166873   2.472459
    13  C    2.955729   3.363686   3.948536   1.530270   2.154014
    14  H    3.363686   4.036734   4.181595   2.154014   3.054236
    15  H    3.948536   4.181595   4.983448   2.166873   2.472460
    16  C    1.530270   2.154014   2.166873   2.955729   3.363686
    17  H    2.154014   3.054236   2.472460   3.363686   4.036734
    18  H    2.166873   2.472460   2.504006   3.948536   4.181595
                    6          7          8          9         10
     6  H    0.000000
     7  C    3.477097   0.000000
     8  H    3.801569   1.096082   0.000000
     9  H    4.308677   1.092981   1.754780   0.000000
    10  C    2.166873   2.955729   3.363685   3.948535   0.000000
    11  H    2.472460   3.363685   4.036733   4.181594   1.096082
    12  H    2.504006   3.948535   4.181594   4.983447   1.092981
    13  C    2.166873   1.530270   2.154014   2.166873   2.528756
    14  H    2.472460   2.154014   3.054236   2.472459   2.806422
    15  H    2.504006   2.166873   2.472460   2.504006   3.477097
    16  C    3.948536   1.530270   2.154014   2.166873   2.528756
    17  H    4.181595   2.154014   3.054236   2.472459   2.806422
    18  H    4.983448   2.166873   2.472460   2.504006   3.477097
                   11         12         13         14         15
    11  H    0.000000
    12  H    1.754780   0.000000
    13  C    2.806421   3.477097   0.000000
    14  H    2.639482   3.801569   1.096082   0.000000
    15  H    3.801569   4.308677   1.092981   1.754780   0.000000
    16  C    2.806421   3.477097   2.528756   2.806421   3.477097
    17  H    2.639482   3.801569   2.806421   2.639482   3.801569
    18  H    3.801569   4.308677   3.477097   3.801569   4.308678
                   16         17         18
    16  C    0.000000
    17  H    1.096082   0.000000
    18  H    1.092981   1.754780   0.000000
 Stoichiometry    C6H12
 Framework group  D3D[3SGD(C2H4)]
 Deg. of freedom     6
 Full point group                 D3D     NOp  12
 Largest Abelian subgroup         C2H     NOp   4
 Largest concise Abelian subgroup C2H     NOp   4
                         Standard orientation:                         
 ---------------------------------------------------------------------
 Center     Atomic      Atomic             Coordinates (Angstroms)
 Number     Number       Type             X           Y           Z
 ---------------------------------------------------------------------
      1          6           0        1.264378    0.729989    0.229233
      2          1           0        1.319741    0.761953    1.323449
      3          1           0        2.154339    1.243808   -0.143014
      4          6           0       -1.264378    0.729989    0.229233
      5          1           0       -1.319741    0.761953    1.323449
      6          1           0       -2.154339    1.243808   -0.143014
      7          6           0        0.000000   -1.459978    0.229233
      8          1           0        0.000000   -1.523906    1.323449
      9          1           0        0.000000   -2.487616   -0.143014
     10          6           0        0.000000    1.459978   -0.229233
     11          1           0        0.000000    1.523906   -1.323449
     12          1           0        0.000000    2.487616    0.143014
     13          6           0       -1.264378   -0.729989   -0.229233
     14          1           0       -1.319741   -0.761953   -1.323449
     15          1           0       -2.154339   -1.243808    0.143014
     16          6           0        1.264378   -0.729989   -0.229233
     17          1           0        1.319741   -0.761953   -1.323449
     18          1           0        2.154339   -1.243808    0.143014
 ---------------------------------------------------------------------
 Rotational constants (GHZ):      4.3207677      4.3207677      2.4660660
 Leave Link  202 at Fri Jul  9 19:19:36 2021, MaxMem=  4194304000 cpu:         0.8
 (Enter /home/minenky/programs//g09/l301.exe)
 Standard basis: def2TZVP (5D, 7F)
 ======================================================================================================
                                       Pseudopotential Parameters
 ======================================================================================================
  Center     Atomic      Valence      Angular      Power
  Number     Number     Electrons     Momentum     of R      Exponent        Coefficient   SO-Coeffient
 ======================================================================================================
    1          6
                                   No pseudopotential on this center.
    2          1
                                   No pseudopotential on this center.
    3          1
                                   No pseudopotential on this center.
    4          6
                                   No pseudopotential on this center.
    5          1
                                   No pseudopotential on this center.
    6          1
                                   No pseudopotential on this center.
    7          6
                                   No pseudopotential on this center.
    8          1
                                   No pseudopotential on this center.
    9          1
                                   No pseudopotential on this center.
   10          6
                                   No pseudopotential on this center.
   11          1
                                   No pseudopotential on this center.
   12          1
                                   No pseudopotential on this center.
   13          6
                                   No pseudopotential on this center.
   14          1
                                   No pseudopotential on this center.
   15          1
                                   No pseudopotential on this center.
   16          6
                                   No pseudopotential on this center.
   17          1
                                   No pseudopotential on this center.
   18          1
                                   No pseudopotential on this center.
 ======================================================================================================
 Ernie: Thresh=  0.10000D-02 Tol=  0.10000D-05 Strict=F.
 AO basis set (Overlap normalization):
 Atom C1       Shell     1 S   6     bf    1 -     1          2.389328165910          1.379479259770          0.433187590620
      0.1357534968D+05  0.6064550360D-03
      0.2035233368D+04  0.4697908888D-02
      0.4632256236D+03  0.2433247765D-01
      0.1312001960D+03  0.9739996831D-01
      0.4285301589D+02  0.3019558425D+00
      0.1558418577D+02  0.6623360914D+00
 Atom C1       Shell     2 S   2     bf    2 -     2          2.389328165910          1.379479259770          0.433187590620
      0.6206713851D+01  0.6559530854D+00
      0.2576489653D+01  0.3758563329D+00
 Atom C1       Shell     3 S   1     bf    3 -     3          2.389328165910          1.379479259770          0.433187590620
      0.5769633942D+00  0.1000000000D+01
 Atom C1       Shell     4 S   1     bf    4 -     4          2.389328165910          1.379479259770          0.433187590620
      0.2297283136D+00  0.1000000000D+01
 Atom C1       Shell     5 S   1     bf    5 -     5          2.389328165910          1.379479259770          0.433187590620
      0.9516444003D-01  0.1000000000D+01
 Atom C1       Shell     6 P   4     bf    6 -     8          2.389328165910          1.379479259770          0.433187590620
      0.3469723224D+02  0.1132722000D-01
      0.7958262283D+01  0.7616965920D-01
      0.2378082688D+01  0.3019225220D+00
      0.8143320818D+00  0.7278502735D+00
 Atom C1       Shell     7 P   1     bf    9 -    11          2.389328165910          1.379479259770          0.433187590620
      0.2888754725D+00  0.1000000000D+01
 Atom C1       Shell     8 P   1     bf   12 -    14          2.389328165910          1.379479259770          0.433187590620
      0.1005682367D+00  0.1000000000D+01
 Atom C1       Shell     9 D   1     bf   15 -    19          2.389328165910          1.379479259770          0.433187590620
      0.1097000000D+01  0.1000000000D+01
 Atom C1       Shell    10 D   1     bf   20 -    24          2.389328165910          1.379479259770          0.433187590620
      0.3180000000D+00  0.1000000000D+01
 Atom C1       Shell    11 F   1     bf   25 -    31          2.389328165910          1.379479259770          0.433187590620
      0.7610000000D+00  0.1000000000D+01
 Atom H2       Shell    12 S   3     bf   32 -    32          2.493949202312          1.439882243300          2.500956160841
      0.3406134100D+02  0.2543930721D-01
      0.5123574600D+01  0.1900859489D+00
      0.1164662600D+01  0.8524411301D+00
 Atom H2       Shell    13 S   1     bf   33 -    33          2.493949202312          1.439882243300          2.500956160841
      0.3272304100D+00  0.1000000000D+01
 Atom H2       Shell    14 S   1     bf   34 -    34          2.493949202312          1.439882243300          2.500956160841
      0.1030724100D+00  0.1000000000D+01
 Atom H2       Shell    15 P   1     bf   35 -    37          2.493949202312          1.439882243300          2.500956160841
      0.8000000000D+00  0.1000000000D+01
 Atom H3       Shell    16 S   3     bf   38 -    38          4.071110542450          2.350456767584         -0.270257293169
      0.3406134100D+02  0.2543930721D-01
      0.5123574600D+01  0.1900859489D+00
      0.1164662600D+01  0.8524411301D+00
 Atom H3       Shell    17 S   1     bf   39 -    39          4.071110542450          2.350456767584         -0.270257293169
      0.3272304100D+00  0.1000000000D+01
 Atom H3       Shell    18 S   1     bf   40 -    40          4.071110542450          2.350456767584         -0.270257293169
      0.1030724100D+00  0.1000000000D+01
 Atom H3       Shell    19 P   1     bf   41 -    43          4.071110542450          2.350456767584         -0.270257293169
      0.8000000000D+00  0.1000000000D+01
 Atom C4       Shell    20 S   6     bf   44 -    44         -2.389328165910          1.379479259770          0.433187590620
      0.1357534968D+05  0.6064550360D-03
      0.2035233368D+04  0.4697908888D-02
      0.4632256236D+03  0.2433247765D-01
      0.1312001960D+03  0.9739996831D-01
      0.4285301589D+02  0.3019558425D+00
      0.1558418577D+02  0.6623360914D+00
 Atom C4       Shell    21 S   2     bf   45 -    45         -2.389328165910          1.379479259770          0.433187590620
      0.6206713851D+01  0.6559530854D+00
      0.2576489653D+01  0.3758563329D+00
 Atom C4       Shell    22 S   1     bf   46 -    46         -2.389328165910          1.379479259770          0.433187590620
      0.5769633942D+00  0.1000000000D+01
 Atom C4       Shell    23 S   1     bf   47 -    47         -2.389328165910          1.379479259770          0.433187590620
      0.2297283136D+00  0.1000000000D+01
 Atom C4       Shell    24 S   1     bf   48 -    48         -2.389328165910          1.379479259770          0.433187590620
      0.9516444003D-01  0.1000000000D+01
 Atom C4       Shell    25 P   4     bf   49 -    51         -2.389328165910          1.379479259770          0.433187590620
      0.3469723224D+02  0.1132722000D-01
      0.7958262283D+01  0.7616965920D-01
      0.2378082688D+01  0.3019225220D+00
      0.8143320818D+00  0.7278502735D+00
 Atom C4       Shell    26 P   1     bf   52 -    54         -2.389328165910          1.379479259770          0.433187590620
      0.2888754725D+00  0.1000000000D+01
 Atom C4       Shell    27 P   1     bf   55 -    57         -2.389328165910          1.379479259770          0.433187590620
      0.1005682367D+00  0.1000000000D+01
 Atom C4       Shell    28 D   1     bf   58 -    62         -2.389328165910          1.379479259770          0.433187590620
      0.1097000000D+01  0.1000000000D+01
 Atom C4       Shell    29 D   1     bf   63 -    67         -2.389328165910          1.379479259770          0.433187590620
      0.3180000000D+00  0.1000000000D+01
 Atom C4       Shell    30 F   1     bf   68 -    74         -2.389328165910          1.379479259770          0.433187590620
      0.7610000000D+00  0.1000000000D+01
 Atom H5       Shell    31 S   3     bf   75 -    75         -2.493949202312          1.439882243300          2.500956160841
      0.3406134100D+02  0.2543930721D-01
      0.5123574600D+01  0.1900859489D+00
      0.1164662600D+01  0.8524411301D+00
 Atom H5       Shell    32 S   1     bf   76 -    76         -2.493949202312          1.439882243300          2.500956160841
      0.3272304100D+00  0.1000000000D+01
 Atom H5       Shell    33 S   1     bf   77 -    77         -2.493949202312          1.439882243300          2.500956160841
      0.1030724100D+00  0.1000000000D+01
 Atom H5       Shell    34 P   1     bf   78 -    80         -2.493949202312          1.439882243300          2.500956160841
      0.8000000000D+00  0.1000000000D+01
 Atom H6       Shell    35 S   3     bf   81 -    81         -4.071110542450          2.350456767584         -0.270257293169
      0.3406134100D+02  0.2543930721D-01
      0.5123574600D+01  0.1900859489D+00
      0.1164662600D+01  0.8524411301D+00
 Atom H6       Shell    36 S   1     bf   82 -    82         -4.071110542450          2.350456767584         -0.270257293169
      0.3272304100D+00  0.1000000000D+01
 Atom H6       Shell    37 S   1     bf   83 -    83         -4.071110542450          2.350456767584         -0.270257293169
      0.1030724100D+00  0.1000000000D+01
 Atom H6       Shell    38 P   1     bf   84 -    86         -4.071110542450          2.350456767584         -0.270257293169
      0.8000000000D+00  0.1000000000D+01
 Atom C7       Shell    39 S   6     bf   87 -    87          0.000000000000         -2.758958519541          0.433187590620
      0.1357534968D+05  0.6064550360D-03
      0.2035233368D+04  0.4697908888D-02
      0.4632256236D+03  0.2433247765D-01
      0.1312001960D+03  0.9739996831D-01
      0.4285301589D+02  0.3019558425D+00
      0.1558418577D+02  0.6623360914D+00
 Atom C7       Shell    40 S   2     bf   88 -    88          0.000000000000         -2.758958519541          0.433187590620
      0.6206713851D+01  0.6559530854D+00
      0.2576489653D+01  0.3758563329D+00
 Atom C7       Shell    41 S   1     bf   89 -    89          0.000000000000         -2.758958519541          0.433187590620
      0.5769633942D+00  0.1000000000D+01
 Atom C7       Shell    42 S   1     bf   90 -    90          0.000000000000         -2.758958519541          0.433187590620
      0.2297283136D+00  0.1000000000D+01
 Atom C7       Shell    43 S   1     bf   91 -    91          0.000000000000         -2.758958519541          0.433187590620
      0.9516444003D-01  0.1000000000D+01
 Atom C7       Shell    44 P   4     bf   92 -    94          0.000000000000         -2.758958519541          0.433187590620
      0.3469723224D+02  0.1132722000D-01
      0.7958262283D+01  0.7616965920D-01
      0.2378082688D+01  0.3019225220D+00
      0.8143320818D+00  0.7278502735D+00
 Atom C7       Shell    45 P   1     bf   95 -    97          0.000000000000         -2.758958519541          0.433187590620
      0.2888754725D+00  0.1000000000D+01
 Atom C7       Shell    46 P   1     bf   98 -   100          0.000000000000         -2.758958519541          0.433187590620
      0.1005682367D+00  0.1000000000D+01
 Atom C7       Shell    47 D   1     bf  101 -   105          0.000000000000         -2.758958519541          0.433187590620
      0.1097000000D+01  0.1000000000D+01
 Atom C7       Shell    48 D   1     bf  106 -   110          0.000000000000         -2.758958519541          0.433187590620
      0.3180000000D+00  0.1000000000D+01
 Atom C7       Shell    49 F   1     bf  111 -   117          0.000000000000         -2.758958519541          0.433187590620
      0.7610000000D+00  0.1000000000D+01
 Atom H8       Shell    50 S   3     bf  118 -   118          0.000000000000         -2.879764486601          2.500956160841
      0.3406134100D+02  0.2543930721D-01
      0.5123574600D+01  0.1900859489D+00
      0.1164662600D+01  0.8524411301D+00
 Atom H8       Shell    51 S   1     bf  119 -   119          0.000000000000         -2.879764486601          2.500956160841
      0.3272304100D+00  0.1000000000D+01
 Atom H8       Shell    52 S   1     bf  120 -   120          0.000000000000         -2.879764486601          2.500956160841
      0.1030724100D+00  0.1000000000D+01
 Atom H8       Shell    53 P   1     bf  121 -   123          0.000000000000         -2.879764486601          2.500956160841
      0.8000000000D+00  0.1000000000D+01
 Atom H9       Shell    54 S   3     bf  124 -   124          0.000000000000         -4.700913535169         -0.270257293169
      0.3406134100D+02  0.2543930721D-01
      0.5123574600D+01  0.1900859489D+00
      0.1164662600D+01  0.8524411301D+00
 Atom H9       Shell    55 S   1     bf  125 -   125          0.000000000000         -4.700913535169         -0.270257293169
      0.3272304100D+00  0.1000000000D+01
 Atom H9       Shell    56 S   1     bf  126 -   126          0.000000000000         -4.700913535169         -0.270257293169
      0.1030724100D+00  0.1000000000D+01
 Atom H9       Shell    57 P   1     bf  127 -   129          0.000000000000         -4.700913535169         -0.270257293169
      0.8000000000D+00  0.1000000000D+01
 Atom C10      Shell    58 S   6     bf  130 -   130          0.000000000000          2.758958519541         -0.433187590620
      0.1357534968D+05  0.6064550360D-03
      0.2035233368D+04  0.4697908888D-02
      0.4632256236D+03  0.2433247765D-01
      0.1312001960D+03  0.9739996831D-01
      0.4285301589D+02  0.3019558425D+00
      0.1558418577D+02  0.6623360914D+00
 Atom C10      Shell    59 S   2     bf  131 -   131          0.000000000000          2.758958519541         -0.433187590620
      0.6206713851D+01  0.6559530854D+00
      0.2576489653D+01  0.3758563329D+00
 Atom C10      Shell    60 S   1     bf  132 -   132          0.000000000000          2.758958519541         -0.433187590620
      0.5769633942D+00  0.1000000000D+01
 Atom C10      Shell    61 S   1     bf  133 -   133          0.000000000000          2.758958519541         -0.433187590620
      0.2297283136D+00  0.1000000000D+01
 Atom C10      Shell    62 S   1     bf  134 -   134          0.000000000000          2.758958519541         -0.433187590620
      0.9516444003D-01  0.1000000000D+01
 Atom C10      Shell    63 P   4     bf  135 -   137          0.000000000000          2.758958519541         -0.433187590620
      0.3469723224D+02  0.1132722000D-01
      0.7958262283D+01  0.7616965920D-01
      0.2378082688D+01  0.3019225220D+00
      0.8143320818D+00  0.7278502735D+00
 Atom C10      Shell    64 P   1     bf  138 -   140          0.000000000000          2.758958519541         -0.433187590620
      0.2888754725D+00  0.1000000000D+01
 Atom C10      Shell    65 P   1     bf  141 -   143          0.000000000000          2.758958519541         -0.433187590620
      0.1005682367D+00  0.1000000000D+01
 Atom C10      Shell    66 D   1     bf  144 -   148          0.000000000000          2.758958519541         -0.433187590620
      0.1097000000D+01  0.1000000000D+01
 Atom C10      Shell    67 D   1     bf  149 -   153          0.000000000000          2.758958519541         -0.433187590620
      0.3180000000D+00  0.1000000000D+01
 Atom C10      Shell    68 F   1     bf  154 -   160          0.000000000000          2.758958519541         -0.433187590620
      0.7610000000D+00  0.1000000000D+01
 Atom H11      Shell    69 S   3     bf  161 -   161          0.000000000000          2.879764486601         -2.500956160841
      0.3406134100D+02  0.2543930721D-01
      0.5123574600D+01  0.1900859489D+00
      0.1164662600D+01  0.8524411301D+00
 Atom H11      Shell    70 S   1     bf  162 -   162          0.000000000000          2.879764486601         -2.500956160841
      0.3272304100D+00  0.1000000000D+01
 Atom H11      Shell    71 S   1     bf  163 -   163          0.000000000000          2.879764486601         -2.500956160841
      0.1030724100D+00  0.1000000000D+01
 Atom H11      Shell    72 P   1     bf  164 -   166          0.000000000000          2.879764486601         -2.500956160841
      0.8000000000D+00  0.1000000000D+01
 Atom H12      Shell    73 S   3     bf  167 -   167          0.000000000000          4.700913535169          0.270257293169
      0.3406134100D+02  0.2543930721D-01
      0.5123574600D+01  0.1900859489D+00
      0.1164662600D+01  0.8524411301D+00
 Atom H12      Shell    74 S   1     bf  168 -   168          0.000000000000          4.700913535169          0.270257293169
      0.3272304100D+00  0.1000000000D+01
 Atom H12      Shell    75 S   1     bf  169 -   169          0.000000000000          4.700913535169          0.270257293169
      0.1030724100D+00  0.1000000000D+01
 Atom H12      Shell    76 P   1     bf  170 -   172          0.000000000000          4.700913535169          0.270257293169
      0.8000000000D+00  0.1000000000D+01
 Atom C13      Shell    77 S   6     bf  173 -   173         -2.389328165910         -1.379479259770         -0.433187590620
      0.1357534968D+05  0.6064550360D-03
      0.2035233368D+04  0.4697908888D-02
      0.4632256236D+03  0.2433247765D-01
      0.1312001960D+03  0.9739996831D-01
      0.4285301589D+02  0.3019558425D+00
      0.1558418577D+02  0.6623360914D+00
 Atom C13      Shell    78 S   2     bf  174 -   174         -2.389328165910         -1.379479259770         -0.433187590620
      0.6206713851D+01  0.6559530854D+00
      0.2576489653D+01  0.3758563329D+00
 Atom C13      Shell    79 S   1     bf  175 -   175         -2.389328165910         -1.379479259770         -0.433187590620
      0.5769633942D+00  0.1000000000D+01
 Atom C13      Shell    80 S   1     bf  176 -   176         -2.389328165910         -1.379479259770         -0.433187590620
      0.2297283136D+00  0.1000000000D+01
 Atom C13      Shell    81 S   1     bf  177 -   177         -2.389328165910         -1.379479259770         -0.433187590620
      0.9516444003D-01  0.1000000000D+01
 Atom C13      Shell    82 P   4     bf  178 -   180         -2.389328165910         -1.379479259770         -0.433187590620
      0.3469723224D+02  0.1132722000D-01
      0.7958262283D+01  0.7616965920D-01
      0.2378082688D+01  0.3019225220D+00
      0.8143320818D+00  0.7278502735D+00
 Atom C13      Shell    83 P   1     bf  181 -   183         -2.389328165910         -1.379479259770         -0.433187590620
      0.2888754725D+00  0.1000000000D+01
 Atom C13      Shell    84 P   1     bf  184 -   186         -2.389328165910         -1.379479259770         -0.433187590620
      0.1005682367D+00  0.1000000000D+01
 Atom C13      Shell    85 D   1     bf  187 -   191         -2.389328165910         -1.379479259770         -0.433187590620
      0.1097000000D+01  0.1000000000D+01
 Atom C13      Shell    86 D   1     bf  192 -   196         -2.389328165910         -1.379479259770         -0.433187590620
      0.3180000000D+00  0.1000000000D+01
 Atom C13      Shell    87 F   1     bf  197 -   203         -2.389328165910         -1.379479259770         -0.433187590620
      0.7610000000D+00  0.1000000000D+01
 Atom H14      Shell    88 S   3     bf  204 -   204         -2.493949202312         -1.439882243300         -2.500956160841
      0.3406134100D+02  0.2543930721D-01
      0.5123574600D+01  0.1900859489D+00
      0.1164662600D+01  0.8524411301D+00
 Atom H14      Shell    89 S   1     bf  205 -   205         -2.493949202312         -1.439882243300         -2.500956160841
      0.3272304100D+00  0.1000000000D+01
 Atom H14      Shell    90 S   1     bf  206 -   206         -2.493949202312         -1.439882243300         -2.500956160841
      0.1030724100D+00  0.1000000000D+01
 Atom H14      Shell    91 P   1     bf  207 -   209         -2.493949202312         -1.439882243300         -2.500956160841
      0.8000000000D+00  0.1000000000D+01
 Atom H15      Shell    92 S   3     bf  210 -   210         -4.071110542450         -2.350456767584          0.270257293169
      0.3406134100D+02  0.2543930721D-01
      0.5123574600D+01  0.1900859489D+00
      0.1164662600D+01  0.8524411301D+00
 Atom H15      Shell    93 S   1     bf  211 -   211         -4.071110542450         -2.350456767584          0.270257293169
      0.3272304100D+00  0.1000000000D+01
 Atom H15      Shell    94 S   1     bf  212 -   212         -4.071110542450         -2.350456767584          0.270257293169
      0.1030724100D+00  0.1000000000D+01
 Atom H15      Shell    95 P   1     bf  213 -   215         -4.071110542450         -2.350456767584          0.270257293169
      0.8000000000D+00  0.1000000000D+01
 Atom C16      Shell    96 S   6     bf  216 -   216          2.389328165910         -1.379479259770         -0.433187590620
      0.1357534968D+05  0.6064550360D-03
      0.2035233368D+04  0.4697908888D-02
      0.4632256236D+03  0.2433247765D-01
      0.1312001960D+03  0.9739996831D-01
      0.4285301589D+02  0.3019558425D+00
      0.1558418577D+02  0.6623360914D+00
 Atom C16      Shell    97 S   2     bf  217 -   217          2.389328165910         -1.379479259770         -0.433187590620
      0.6206713851D+01  0.6559530854D+00
      0.2576489653D+01  0.3758563329D+00
 Atom C16      Shell    98 S   1     bf  218 -   218          2.389328165910         -1.379479259770         -0.433187590620
      0.5769633942D+00  0.1000000000D+01
 Atom C16      Shell    99 S   1     bf  219 -   219          2.389328165910         -1.379479259770         -0.433187590620
      0.2297283136D+00  0.1000000000D+01
 Atom C16      Shell   100 S   1     bf  220 -   220          2.389328165910         -1.379479259770         -0.433187590620
      0.9516444003D-01  0.1000000000D+01
 Atom C16      Shell   101 P   4     bf  221 -   223          2.389328165910         -1.379479259770         -0.433187590620
      0.3469723224D+02  0.1132722000D-01
      0.7958262283D+01  0.7616965920D-01
      0.2378082688D+01  0.3019225220D+00
      0.8143320818D+00  0.7278502735D+00
 Atom C16      Shell   102 P   1     bf  224 -   226          2.389328165910         -1.379479259770         -0.433187590620
      0.2888754725D+00  0.1000000000D+01
 Atom C16      Shell   103 P   1     bf  227 -   229          2.389328165910         -1.379479259770         -0.433187590620
      0.1005682367D+00  0.1000000000D+01
 Atom C16      Shell   104 D   1     bf  230 -   234          2.389328165910         -1.379479259770         -0.433187590620
      0.1097000000D+01  0.1000000000D+01
 Atom C16      Shell   105 D   1     bf  235 -   239          2.389328165910         -1.379479259770         -0.433187590620
      0.3180000000D+00  0.1000000000D+01
 Atom C16      Shell   106 F   1     bf  240 -   246          2.389328165910         -1.379479259770         -0.433187590620
      0.7610000000D+00  0.1000000000D+01
 Atom H17      Shell   107 S   3     bf  247 -   247          2.493949202312         -1.439882243300         -2.500956160841
      0.3406134100D+02  0.2543930721D-01
      0.5123574600D+01  0.1900859489D+00
      0.1164662600D+01  0.8524411301D+00
 Atom H17      Shell   108 S   1     bf  248 -   248          2.493949202312         -1.439882243300         -2.500956160841
      0.3272304100D+00  0.1000000000D+01
 Atom H17      Shell   109 S   1     bf  249 -   249          2.493949202312         -1.439882243300         -2.500956160841
      0.1030724100D+00  0.1000000000D+01
 Atom H17      Shell   110 P   1     bf  250 -   252          2.493949202312         -1.439882243300         -2.500956160841
      0.8000000000D+00  0.1000000000D+01
 Atom H18      Shell   111 S   3     bf  253 -   253          4.071110542450         -2.350456767584          0.270257293169
      0.3406134100D+02  0.2543930721D-01
      0.5123574600D+01  0.1900859489D+00
      0.1164662600D+01  0.8524411301D+00
 Atom H18      Shell   112 S   1     bf  254 -   254          4.071110542450         -2.350456767584          0.270257293169
      0.3272304100D+00  0.1000000000D+01
 Atom H18      Shell   113 S   1     bf  255 -   255          4.071110542450         -2.350456767584          0.270257293169
      0.1030724100D+00  0.1000000000D+01
 Atom H18      Shell   114 P   1     bf  256 -   258          4.071110542450         -2.350456767584          0.270257293169
      0.8000000000D+00  0.1000000000D+01
 There are    83 symmetry adapted cartesian basis functions of AG  symmetry.
 There are    61 symmetry adapted cartesian basis functions of BG  symmetry.
 There are    61 symmetry adapted cartesian basis functions of AU  symmetry.
 There are    83 symmetry adapted cartesian basis functions of BU  symmetry.
 There are    74 symmetry adapted basis functions of AG  symmetry.
 There are    55 symmetry adapted basis functions of BG  symmetry.
 There are    55 symmetry adapted basis functions of AU  symmetry.
 There are    74 symmetry adapted basis functions of BU  symmetry.
   258 basis functions,   402 primitive gaussians,   288 cartesian basis functions
    24 alpha electrons       24 beta electrons
       nuclear repulsion energy       256.1013476586 Hartrees.
 IExCor= 4639 DFT=T Ex+Corr=wB97XD ExCW=0 ScaHFX=  1.000000
 ScaDFX=  1.000000  1.000000  1.000000  1.000000 ScalE2=  1.000000  1.000000
 IRadAn=      5 IRanWt=     -1 IRanGd=            0 ICorTp=0 IEmpDi=121
  HFx wShort=  0.000000 wLong=  0.200000 cFull=  0.222036 cShort=  0.000000 cLong=  0.777964
  DFx wShort=  0.000000 wLong=  0.200000 cFull=  0.000000 cShort=  0.000000 cLong=  1.000000
 NAtoms=   18 NActive=   18 NUniq=    3 SFac= 4.00D+00 NAtFMM=   60 NAOKFM=F Big=F
 Integral buffers will be    131072 words long.
 Raffenetti 2 integral format.
 Two-electron integral symmetry is turned on.
 R6Disp:  Grimme-D2 Dispersion energy=       -0.0115497212 Hartrees.
 Nuclear repulsion after empirical dispersion term =      256.0897979374 Hartrees.
 Leave Link  301 at Fri Jul  9 19:19:36 2021, MaxMem=  4194304000 cpu:         0.2
 (Enter /home/minenky/programs//g09/l302.exe)
 NPDir=0 NMtPBC=     1 NCelOv=     1 NCel=       1 NClECP=     1 NCelD=      1
         NCelK=      1 NCelE2=     1 NClLst=     1 CellRange=     0.0.
 One-electron integrals computed using PRISM.
 One-electron integral symmetry used in STVInt
  12 Symmetry operations used in ECPInt.
 ECPInt:  NShTT=    6555 NPrTT=   18696 LenC2=    6529 LenP2D=   15741.
 LDataN:  DoStor=T MaxTD1= 6 Len=  172
 NBasis=   258 RedAO= T EigKep=  6.62D-05  NBF=    74    55    55    74
 NBsUse=   258 1.00D-06 EigRej= -1.00D+00 NBFU=    74    55    55    74
 Precomputing XC quadrature grid using
 IXCGrd= 4 IRadAn=           5 IRanWt=          -1 IRanGd=           0 AccXCQ= 0.00D+00.
 Generated NRdTot=       0 NPtTot=           0 NUsed=           0 NTot=          32
 NSgBfM=   287   287   287   287   287 MxSgAt=    18 MxSgA2=    18.
 Leave Link  302 at Fri Jul  9 19:19:54 2021, MaxMem=  4194304000 cpu:       238.5
 (Enter /home/minenky/programs//g09/l303.exe)
 DipDrv:  MaxL=1.
 Leave Link  303 at Fri Jul  9 19:19:55 2021, MaxMem=  4194304000 cpu:         3.2
 (Enter /home/minenky/programs//g09/l401.exe)
 ExpMin= 9.52D-02 ExpMax= 1.36D+04 ExpMxC= 4.63D+02 IAcc=3 IRadAn=         5 AccDes= 0.00D+00
 Harris functional with IExCor= 4639 and IRadAn=       5 diagonalized for initial guess.
 HarFok:  IExCor= 4639 AccDes= 0.00D+00 IRadAn=         5 IDoV= 1 UseB2=F ITyADJ=14
 ICtDFT=  3500011 ScaDFX=  1.000000  1.000000  1.000000  1.000000
 FoFCou: FMM=F IPFlag=           0 FMFlag=      100000 FMFlg1=           0
         NFxFlg=           0 DoJE=T BraDBF=F KetDBF=T FulRan=T
         wScrn=  0.000000 ICntrl=     500 IOpCl=  0 I1Cent=   200000004 NGrid=           0
         NMat0=    1 NMatS0=      1 NMatT0=    0 NMatD0=    1 NMtDS0=    0 NMtDT0=    0
 Petite list used in FoFCou.
 Harris En= -224.150661956245    
 JPrj=0 DoOrth=F DoCkMO=F.
 Initial guess orbital symmetries:
       Occupied  (A1G) (EU) (EU) (EG) (EG) (A2U) (A1G) (EU) (EU)
                 (EG) (EG) (A2U) (A1G) (EG) (EG) (A2U) (A1U) (EU)
                 (EU) (EU) (EU) (A1G) (EG) (EG)
       Virtual   (A1G) (A2U) (EU) (EU) (EG) (EG) (A1G) (A2U) (EG)
                 (EG) (EU) (EU) (A2U) (EG) (EG) (EU) (EU) (A1U)
                 (A2G) (EU) (EU) (EG) (EG) (A1G) (A2U) (A1G) (EG)
                 (EG) (EG) (EG) (A2U) (A1G) (EU) (EU) (EU) (EU)
                 (A1G) (A2U) (A2G) (EG) (EG) (A2U) (EU) (EU) (EG)
                 (EG) (EU) (EU) (A1G) (EU) (EU) (A2U) (EU) (EU)
                 (A1G) (EG) (EG) (A2G) (EG) (EG) (A1U) (A2U) (EU)
                 (EU) (A1G) (EG) (EG) (A1U) (EG) (EG) (A1G) (EU)
                 (EU) (EG) (EG) (A2U) (A2G) (EU) (EU) (A2U) (EU)
                 (EU) (EG) (EG) (A1G) (A2U) (EU) (EU) (EG) (EG)
                 (EU) (EU) (A2G) (A1G) (EG) (EG) (A2U) (A1G) (EU)
                 (EU) (EG) (EG) (A2U) (EG) (EG) (EU) (EU) (A1U)
                 (A1G) (EU) (EU) (A2G) (A1U) (EU) (EU) (A2U) (EG)
                 (EG) (EG) (EG) (A1G) (A1U) (EG) (EG) (A2U) (EU)
                 (EU) (EG) (EG) (EU) (EU) (A1G) (EG) (EG) (EU)
                 (EU) (A1G) (A1G) (A2U) (EU) (EU) (A1U) (EG) (EG)
                 (A2U) (EG) (EG) (EU) (EU) (A2U) (A1G) (EG) (EG)
                 (A2U) (EU) (EU) (EG) (EG) (A2G) (A2U) (A1G) (EU)
                 (EU) (A2G) (EG) (EG) (A1U) (A2G) (EU) (EU) (EG)
                 (EG) (EU) (EU) (A1G) (EU) (EU) (A2U) (A1U) (A1G)
                 (EG) (EG) (EU) (EU) (EG) (EG) (EG) (EG) (A2G)
                 (A2U) (EU) (EU) (A1G) (A2U) (EU) (EU) (A1U) (EG)
                 (EG) (EU) (EU) (EG) (EG) (EG) (EG) (A1U) (A1G)
                 (EU) (EU) (A2G) (EG) (EG) (A2U) (A2U) (A1G) (EU)
                 (EU) (A1G) (EG) (EG) (A2U) (A2G) (EU) (EU) (EU)
                 (EU) (EG) (EG) (A1G) (A2U) (EU) (EU) (EG) (EG)
 The electronic state of the initial guess is 1-A1G.
 Leave Link  401 at Fri Jul  9 19:20:11 2021, MaxMem=  4194304000 cpu:       229.7
 (Enter /home/minenky/programs//g09/l502.exe)
 Closed shell SCF:
 Using DIIS extrapolation, IDIIS=  1040.
 Integral symmetry usage will be decided dynamically.
 Keep R1 ints in memory in symmetry-blocked form, NReq=1396100892.
 IVT=      405442 IEndB=      405442 NGot=  4194304000 MDV=  4054179955
 LenX=  4054179955 LenY=  4054096570
 Requested convergence on RMS density matrix=1.00D-08 within 380 cycles.
 Requested convergence on MAX density matrix=1.00D-06.
 Requested convergence on             energy=1.00D-06.
 No special actions if energy rises.
 FoFCou: FMM=F IPFlag=           0 FMFlag=           0 FMFlg1=           0
         NFxFlg=           0 DoJE=F BraDBF=F KetDBF=F FulRan=T
         wScrn=  0.000000 ICntrl=     600 IOpCl=  0 I1Cent=           0 NGrid=           0
         NMat0=    1 NMatS0=  33411 NMatT0=    0 NMatD0=    1 NMtDS0=    0 NMtDT0=    0
 Petite list used in FoFCou.
 Integral accuracy reduced to 1.0D-05 until final iterations.

 Cycle   1  Pass 0  IDiag  1:
 E= -235.818669072839    
 DIIS: error= 6.48D-02 at cycle   1 NSaved=   1.
 NSaved= 1 IEnMin= 1 EnMin= -235.818669072839     IErMin= 1 ErrMin= 6.48D-02
 ErrMax= 6.48D-02  0.00D+00 EMaxC= 1.00D-01 BMatC= 5.02D-01 BMatP= 5.02D-01
 IDIUse=3 WtCom= 3.52D-01 WtEn= 6.48D-01
 Coeff-Com:  0.100D+01
 Coeff-En:   0.100D+01
 Coeff:      0.100D+01
 Gap=     0.449 Goal=   None    Shift=    0.000
 GapD=    0.449 DampG=2.000 DampE=0.500 DampFc=1.0000 IDamp=-1.
 RMSDP=1.67D-03 MaxDP=4.87D-02              OVMax= 5.37D-02

 Cycle   2  Pass 0  IDiag  1:
 E= -235.875593248723     Delta-E=       -0.056924175885 Rises=F Damp=F
 DIIS: error= 8.91D-03 at cycle   2 NSaved=   2.
 NSaved= 2 IEnMin= 2 EnMin= -235.875593248723     IErMin= 2 ErrMin= 8.91D-03
 ErrMax= 8.91D-03  0.00D+00 EMaxC= 1.00D-01 BMatC= 1.85D-02 BMatP= 5.02D-01
 IDIUse=3 WtCom= 9.11D-01 WtEn= 8.91D-02
 Coeff-Com:  0.868D-01 0.913D+00
 Coeff-En:   0.000D+00 0.100D+01
 Coeff:      0.791D-01 0.921D+00
 Gap=     0.511 Goal=   None    Shift=    0.000
 RMSDP=6.99D-04 MaxDP=1.19D-02 DE=-5.69D-02 OVMax= 3.85D-02

 Cycle   3  Pass 0  IDiag  1:
 E= -235.882508884463     Delta-E=       -0.006915635740 Rises=F Damp=F
 DIIS: error= 8.46D-03 at cycle   3 NSaved=   3.
 NSaved= 3 IEnMin= 3 EnMin= -235.882508884463     IErMin= 3 ErrMin= 8.46D-03
 ErrMax= 8.46D-03  0.00D+00 EMaxC= 1.00D-01 BMatC= 1.18D-02 BMatP= 1.85D-02
 IDIUse=3 WtCom= 9.15D-01 WtEn= 8.46D-02
 Coeff-Com:  0.261D-01 0.446D+00 0.528D+00
 Coeff-En:   0.000D+00 0.375D+00 0.625D+00
 Coeff:      0.239D-01 0.440D+00 0.536D+00
 Gap=     0.485 Goal=   None    Shift=    0.000
 RMSDP=2.67D-04 MaxDP=5.12D-03 DE=-6.92D-03 OVMax= 1.81D-02

 Cycle   4  Pass 0  IDiag  1:
 E= -235.893785754506     Delta-E=       -0.011276870043 Rises=F Damp=F
 DIIS: error= 3.48D-04 at cycle   4 NSaved=   4.
 NSaved= 4 IEnMin= 4 EnMin= -235.893785754506     IErMin= 4 ErrMin= 3.48D-04
 ErrMax= 3.48D-04  0.00D+00 EMaxC= 1.00D-01 BMatC= 1.53D-05 BMatP= 1.18D-02
 IDIUse=3 WtCom= 9.97D-01 WtEn= 3.48D-03
 Coeff-Com:  0.732D-03 0.108D-01 0.315D-01 0.957D+00
 Coeff-En:   0.000D+00 0.000D+00 0.000D+00 0.100D+01
 Coeff:      0.729D-03 0.107D-01 0.313D-01 0.957D+00
 Gap=     0.484 Goal=   None    Shift=    0.000
 RMSDP=3.23D-05 MaxDP=4.21D-04 DE=-1.13D-02 OVMax= 1.07D-03

 Cycle   5  Pass 0  IDiag  1:
 E= -235.893807254488     Delta-E=       -0.000021499982 Rises=F Damp=F
 DIIS: error= 8.52D-05 at cycle   5 NSaved=   5.
 NSaved= 5 IEnMin= 5 EnMin= -235.893807254488     IErMin= 5 ErrMin= 8.52D-05
 ErrMax= 8.52D-05  0.00D+00 EMaxC= 1.00D-01 BMatC= 1.34D-06 BMatP= 1.53D-05
 IDIUse=1 WtCom= 1.00D+00 WtEn= 0.00D+00
 Coeff-Com: -0.178D-02-0.288D-01-0.304D-01 0.139D+00 0.922D+00
 Coeff:     -0.178D-02-0.288D-01-0.304D-01 0.139D+00 0.922D+00
 Gap=     0.484 Goal=   None    Shift=    0.000
 RMSDP=8.88D-06 MaxDP=1.22D-04 DE=-2.15D-05 OVMax= 3.15D-04

 Initial convergence to 1.0D-05 achieved.  Increase integral accuracy.
 Cycle   6  Pass 1  IDiag  1:
 E= -235.893901990852     Delta-E=       -0.000094736364 Rises=F Damp=F
 DIIS: error= 1.96D-05 at cycle   1 NSaved=   1.
 NSaved= 1 IEnMin= 1 EnMin= -235.893901990852     IErMin= 1 ErrMin= 1.96D-05
 ErrMax= 1.96D-05  0.00D+00 EMaxC= 1.00D-01 BMatC= 1.83D-07 BMatP= 1.83D-07
 IDIUse=1 WtCom= 1.00D+00 WtEn= 0.00D+00
 Coeff-Com:  0.100D+01
 Coeff:      0.100D+01
 Gap=     0.484 Goal=   None    Shift=    0.000
 RMSDP=8.88D-06 MaxDP=1.22D-04 DE=-9.47D-05 OVMax= 6.89D-05

 Cycle   7  Pass 1  IDiag  1:
 E= -235.893902132790     Delta-E=       -0.000000141939 Rises=F Damp=F
 DIIS: error= 8.33D-06 at cycle   2 NSaved=   2.
 NSaved= 2 IEnMin= 2 EnMin= -235.893902132790     IErMin= 2 ErrMin= 8.33D-06
 ErrMax= 8.33D-06  0.00D+00 EMaxC= 1.00D-01 BMatC= 6.50D-09 BMatP= 1.83D-07
 IDIUse=1 WtCom= 1.00D+00 WtEn= 0.00D+00
 Coeff-Com: -0.148D-01 0.101D+01
 Coeff:     -0.148D-01 0.101D+01
 Gap=     0.484 Goal=   None    Shift=    0.000
 RMSDP=6.81D-07 MaxDP=1.12D-05 DE=-1.42D-07 OVMax= 2.72D-05

 Cycle   8  Pass 1  IDiag  1:
 E= -235.893902137441     Delta-E=       -0.000000004651 Rises=F Damp=F
 DIIS: error= 5.10D-06 at cycle   3 NSaved=   3.
 NSaved= 3 IEnMin= 3 EnMin= -235.893902137441     IErMin= 3 ErrMin= 5.10D-06
 ErrMax= 5.10D-06  0.00D+00 EMaxC= 1.00D-01 BMatC= 4.18D-09 BMatP= 6.50D-09
 IDIUse=1 WtCom= 1.00D+00 WtEn= 0.00D+00
 Coeff-Com: -0.443D-01 0.459D+00 0.585D+00
 Coeff:     -0.443D-01 0.459D+00 0.585D+00
 Gap=     0.484 Goal=   None    Shift=    0.000
 RMSDP=2.04D-07 MaxDP=3.14D-06 DE=-4.65D-09 OVMax= 1.15D-05

 Cycle   9  Pass 1  IDiag  1:
 E= -235.893902141482     Delta-E=       -0.000000004041 Rises=F Damp=F
 DIIS: error= 5.02D-07 at cycle   4 NSaved=   4.
 NSaved= 4 IEnMin= 4 EnMin= -235.893902141482     IErMin= 4 ErrMin= 5.02D-07
 ErrMax= 5.02D-07  0.00D+00 EMaxC= 1.00D-01 BMatC= 4.68D-11 BMatP= 4.18D-09
 IDIUse=1 WtCom= 1.00D+00 WtEn= 0.00D+00
 Coeff-Com: -0.162D-02-0.282D-01 0.367D-01 0.993D+00
 Coeff:     -0.162D-02-0.282D-01 0.367D-01 0.993D+00
 Gap=     0.484 Goal=   None    Shift=    0.000
 RMSDP=9.32D-08 MaxDP=1.45D-06 DE=-4.04D-09 OVMax= 2.91D-06

 Cycle  10  Pass 1  IDiag  1:
 E= -235.893902141579     Delta-E=       -0.000000000097 Rises=F Damp=F
 DIIS: error= 1.18D-07 at cycle   5 NSaved=   5.
 NSaved= 5 IEnMin= 5 EnMin= -235.893902141579     IErMin= 5 ErrMin= 1.18D-07
 ErrMax= 1.18D-07  0.00D+00 EMaxC= 1.00D-01 BMatC= 4.06D-12 BMatP= 4.68D-11
 IDIUse=1 WtCom= 1.00D+00 WtEn= 0.00D+00
 Coeff-Com:  0.329D-02-0.416D-01-0.438D-01 0.152D+00 0.930D+00
 Coeff:      0.329D-02-0.416D-01-0.438D-01 0.152D+00 0.930D+00
 Gap=     0.484 Goal=   None    Shift=    0.000
 RMSDP=2.65D-08 MaxDP=4.46D-07 DE=-9.69D-11 OVMax= 7.38D-07

 Cycle  11  Pass 1  IDiag  1:
 E= -235.893902141579     Delta-E=        0.000000000000 Rises=F Damp=F
 DIIS: error= 1.23D-08 at cycle   6 NSaved=   6.
 NSaved= 6 IEnMin= 5 EnMin= -235.893902141579     IErMin= 6 ErrMin= 1.23D-08
 ErrMax= 1.23D-08  0.00D+00 EMaxC= 1.00D-01 BMatC= 3.39D-14 BMatP= 4.06D-12
 IDIUse=1 WtCom= 1.00D+00 WtEn= 0.00D+00
 Coeff-Com:  0.189D-03-0.868D-03-0.227D-02-0.154D-01 0.202D-01 0.998D+00
 Coeff:      0.189D-03-0.868D-03-0.227D-02-0.154D-01 0.202D-01 0.998D+00
 Gap=     0.484 Goal=   None    Shift=    0.000
 RMSDP=4.01D-09 MaxDP=6.54D-08 DE= 1.71D-13 OVMax= 1.05D-07

 SCF Done:  E(RwB97XD) =  -235.893902142     A.U. after   11 cycles
            NFock= 11  Conv=0.40D-08     -V/T= 2.0059
 KE= 2.345187793327D+02 PE=-1.058044977227D+03 EE= 3.315424978149D+02
 Leave Link  502 at Fri Jul  9 19:23:51 2021, MaxMem=  4194304000 cpu:      3081.7
 (Enter /home/minenky/programs//g09/l601.exe)
 Copying SCF densities to generalized density rwf, IOpCl= 0 IROHF=0.

 **********************************************************************

            Population analysis using the SCF density.

 **********************************************************************

 Orbital symmetries:
       Occupied  (A1G) (EU) (EU) (EG) (EG) (A2U) (A1G) (EU) (EU)
                 (EG) (EG) (A2U) (A1G) (A2U) (EG) (EG) (EU) (EU)
                 (A1U) (EU) (EU) (A1G) (EG) (EG)
       Virtual   (A1G) (A2U) (EU) (EU) (EG) (EG) (A1G) (A2U) (EG)
                 (EG) (EU) (EU) (A2U) (EG) (EG) (A1U) (EU) (EU)
                 (EU) (EU) (A2G) (EG) (EG) (A1G) (A2U) (A1G) (EG)
                 (EG) (A2U) (EG) (EG) (A1G) (EU) (EU) (EU) (EU)
                 (A1G) (EG) (EG) (A2U) (A2G) (A2U) (EG) (EG) (EU)
                 (EU) (EU) (EU) (A1G) (A2U) (EU) (EU) (EU) (EU)
                 (EG) (EG) (A1G) (A2G) (EG) (EG) (A1U) (A2U) (EU)
                 (EU) (A1G) (EG) (EG) (A1U) (EG) (EG) (A1G) (EU)
                 (EU) (EG) (EG) (A2U) (EU) (EU) (A2G) (A2U) (EU)
                 (EU) (EG) (EG) (A1G) (A2U) (EU) (EU) (EG) (EG)
                 (EU) (EU) (A2G) (A1G) (EG) (EG) (A2U) (A1G) (EU)
                 (EU) (EG) (EG) (A2U) (EG) (EG) (EU) (EU) (A1G)
                 (A1U) (EU) (EU) (A2G) (A1U) (EU) (EU) (A2U) (EG)
                 (EG) (EG) (EG) (A1G) (A1U) (EG) (EG) (A2U) (EU)
                 (EU) (EG) (EG) (EU) (EU) (A1G) (EG) (EG) (EU)
                 (EU) (A1G) (A1G) (A2U) (EU) (EU) (A1U) (EG) (EG)
                 (A2U) (EG) (EG) (EU) (EU) (A2U) (A1G) (EG) (EG)
                 (A2U) (EU) (EU) (EG) (EG) (A2G) (A2U) (A1G) (EU)
                 (EU) (A2G) (EG) (EG) (A1U) (A2G) (EU) (EU) (EG)
                 (EG) (EU) (EU) (A1G) (EU) (EU) (A2U) (A1U) (A1G)
                 (EG) (EG) (EU) (EU) (EG) (EG) (EG) (EG) (A2G)
                 (A2U) (EU) (EU) (A1G) (A2U) (EU) (EU) (A1U) (EG)
                 (EG) (EU) (EU) (EG) (EG) (EG) (EG) (A1U) (A1G)
                 (EU) (EU) (A2G) (A2U) (EG) (EG) (A2U) (A1G) (EU)
                 (EU) (A1G) (EG) (EG) (A2U) (EU) (EU) (A2G) (EU)
                 (EU) (EG) (EG) (A1G) (A2U) (EU) (EU) (EG) (EG)
 The electronic state is 1-A1G.
 Alpha  occ. eigenvalues --  -10.27070 -10.27061 -10.27061 -10.27040 -10.27040
 Alpha  occ. eigenvalues --  -10.27028  -0.92722  -0.83522  -0.83522  -0.69739
 Alpha  occ. eigenvalues --   -0.69739  -0.63949  -0.56615  -0.52586  -0.51947
 Alpha  occ. eigenvalues --   -0.51947  -0.45778  -0.45778  -0.45376  -0.41878
 Alpha  occ. eigenvalues --   -0.41878  -0.39178  -0.37421  -0.37421
 Alpha virt. eigenvalues --    0.10989   0.13086   0.14432   0.14432   0.17747
 Alpha virt. eigenvalues --    0.17747   0.18274   0.19292   0.19743   0.19743
 Alpha virt. eigenvalues --    0.21263   0.21263   0.23865   0.27167   0.27167
 Alpha virt. eigenvalues --    0.30024   0.30386   0.30386   0.31819   0.31819
 Alpha virt. eigenvalues --    0.31925   0.33844   0.33844   0.34873   0.40091
 Alpha virt. eigenvalues --    0.42720   0.44739   0.44739   0.48555   0.48579
 Alpha virt. eigenvalues --    0.48579   0.50004   0.50182   0.50182   0.51391
 Alpha virt. eigenvalues --    0.51391   0.52491   0.52651   0.52651   0.53359
 Alpha virt. eigenvalues --    0.55254   0.55279   0.57582   0.57582   0.57650
 Alpha virt. eigenvalues --    0.57650   0.67314   0.67314   0.69721   0.75308
 Alpha virt. eigenvalues --    0.76177   0.76177   0.83184   0.83184   0.86378
 Alpha virt. eigenvalues --    0.86378   0.87273   0.89458   0.93559   0.93559
 Alpha virt. eigenvalues --    0.96044   0.98555   1.01427   1.01427   1.04641
 Alpha virt. eigenvalues --    1.10365   1.10365   1.11013   1.16872   1.16872
 Alpha virt. eigenvalues --    1.19638   1.22419   1.22419   1.23309   1.23309
 Alpha virt. eigenvalues --    1.23707   1.33122   1.33122   1.33724   1.33988
 Alpha virt. eigenvalues --    1.36673   1.36673   1.48751   1.48751   1.56459
 Alpha virt. eigenvalues --    1.62165   1.63511   1.63511   1.67213   1.67213
 Alpha virt. eigenvalues --    1.70011   1.70011   1.72166   1.72804   1.73899
 Alpha virt. eigenvalues --    1.73899   1.77276   1.79413   1.84357   1.84357
 Alpha virt. eigenvalues --    1.85401   1.85401   1.89303   1.95215   1.95215
 Alpha virt. eigenvalues --    1.98181   1.98181   2.02694   2.05021   2.08321
 Alpha virt. eigenvalues --    2.08321   2.09164   2.13556   2.20859   2.20859
 Alpha virt. eigenvalues --    2.22853   2.25898   2.25898   2.30270   2.30270
 Alpha virt. eigenvalues --    2.35695   2.43954   2.50555   2.50555   2.51378
 Alpha virt. eigenvalues --    2.52084   2.52084   2.59675   2.59675   2.60612
 Alpha virt. eigenvalues --    2.60612   2.60721   2.63605   2.63605   2.66621
 Alpha virt. eigenvalues --    2.66621   2.67925   2.72193   2.72695   2.74185
 Alpha virt. eigenvalues --    2.74185   2.75980   2.79105   2.79105   2.79330
 Alpha virt. eigenvalues --    2.84881   2.84881   2.88326   2.88326   2.88543
 Alpha virt. eigenvalues --    2.92242   2.97465   2.97465   2.99437   3.04820
 Alpha virt. eigenvalues --    3.04820   3.05683   3.05683   3.12368   3.15798
 Alpha virt. eigenvalues --    3.18241   3.21692   3.21692   3.26572   3.26852
 Alpha virt. eigenvalues --    3.26852   3.29540   3.31066   3.36862   3.36862
 Alpha virt. eigenvalues --    3.41502   3.41502   3.43663   3.43663   3.44155
 Alpha virt. eigenvalues --    3.50342   3.50342   3.50366   3.52526   3.54966
 Alpha virt. eigenvalues --    3.56805   3.56805   3.61179   3.61179   3.62131
 Alpha virt. eigenvalues --    3.62131   3.70888   3.70888   3.71789   3.72197
 Alpha virt. eigenvalues --    3.73718   3.73718   3.75610   3.93417   3.99327
 Alpha virt. eigenvalues --    3.99327   4.05158   4.06561   4.06561   4.09693
 Alpha virt. eigenvalues --    4.09693   4.13969   4.13969   4.18992   4.18992
 Alpha virt. eigenvalues --    4.25409   4.28800   4.30192   4.30192   4.37797
 Alpha virt. eigenvalues --    4.42933   4.43134   4.43134   4.51106   4.59918
 Alpha virt. eigenvalues --    4.62254   4.62254   4.74552   4.76688   4.76688
 Alpha virt. eigenvalues --    4.86447   4.90267   4.90267   4.90417   5.06248
 Alpha virt. eigenvalues --    5.06248   5.13229   5.13229  22.51299  22.57237
 Alpha virt. eigenvalues --   22.58516  22.58516  22.70026  22.70026
          Condensed to atoms (all electrons):
               1          2          3          4          5          6
     1  C    4.911637   0.415101   0.416257  -0.026973  -0.001701   0.008306
     2  H    0.415101   0.602369  -0.025426  -0.001701   0.002584  -0.000019
     3  H    0.416257  -0.025426   0.584467   0.008306  -0.000019  -0.000353
     4  C   -0.026973  -0.001701   0.008306   4.911637   0.415101   0.416257
     5  H   -0.001701   0.002584  -0.000019   0.415101   0.602369  -0.025426
     6  H    0.008306  -0.000019  -0.000353   0.416257  -0.025426   0.584467
     7  C   -0.026973  -0.001701   0.008306  -0.026973  -0.001701   0.008306
     8  H   -0.001701   0.002584  -0.000019  -0.001701   0.002584  -0.000019
     9  H    0.008306  -0.000019  -0.000353   0.008306  -0.000019  -0.000353
    10  C    0.326669  -0.042385  -0.035551   0.326669  -0.042385  -0.035551
    11  H   -0.042385   0.007267  -0.004321  -0.042385   0.007267  -0.004321
    12  H   -0.035551  -0.004321  -0.005038  -0.035551  -0.004321  -0.005038
    13  C   -0.010457  -0.001349  -0.001460   0.326669  -0.042385  -0.035551
    14  H   -0.001349   0.000146  -0.000068  -0.042385   0.007267  -0.004321
    15  H   -0.001460  -0.000068   0.000103  -0.035551  -0.004321  -0.005038
    16  C    0.326669  -0.042385  -0.035551  -0.010457  -0.001349  -0.001460
    17  H   -0.042385   0.007267  -0.004321  -0.001349   0.000146  -0.000068
    18  H   -0.035551  -0.004321  -0.005038  -0.001460  -0.000068   0.000103
               7          8          9         10         11         12
     1  C   -0.026973  -0.001701   0.008306   0.326669  -0.042385  -0.035551
     2  H   -0.001701   0.002584  -0.000019  -0.042385   0.007267  -0.004321
     3  H    0.008306  -0.000019  -0.000353  -0.035551  -0.004321  -0.005038
     4  C   -0.026973  -0.001701   0.008306   0.326669  -0.042385  -0.035551
     5  H   -0.001701   0.002584  -0.000019  -0.042385   0.007267  -0.004321
     6  H    0.008306  -0.000019  -0.000353  -0.035551  -0.004321  -0.005038
     7  C    4.911637   0.415101   0.416257  -0.010457  -0.001349  -0.001460
     8  H    0.415101   0.602369  -0.025426  -0.001349   0.000146  -0.000068
     9  H    0.416257  -0.025426   0.584467  -0.001460  -0.000068   0.000103
    10  C   -0.010457  -0.001349  -0.001460   4.911637   0.415101   0.416257
    11  H   -0.001349   0.000146  -0.000068   0.415101   0.602369  -0.025426
    12  H   -0.001460  -0.000068   0.000103   0.416257  -0.025426   0.584467
    13  C    0.326669  -0.042385  -0.035551  -0.026973  -0.001701   0.008306
    14  H   -0.042385   0.007267  -0.004321  -0.001701   0.002584  -0.000019
    15  H   -0.035551  -0.004321  -0.005038   0.008306  -0.000019  -0.000353
    16  C    0.326669  -0.042385  -0.035551  -0.026973  -0.001701   0.008306
    17  H   -0.042385   0.007267  -0.004321  -0.001701   0.002584  -0.000019
    18  H   -0.035551  -0.004321  -0.005038   0.008306  -0.000019  -0.000353
              13         14         15         16         17         18
     1  C   -0.010457  -0.001349  -0.001460   0.326669  -0.042385  -0.035551
     2  H   -0.001349   0.000146  -0.000068  -0.042385   0.007267  -0.004321
     3  H   -0.001460  -0.000068   0.000103  -0.035551  -0.004321  -0.005038
     4  C    0.326669  -0.042385  -0.035551  -0.010457  -0.001349  -0.001460
     5  H   -0.042385   0.007267  -0.004321  -0.001349   0.000146  -0.000068
     6  H   -0.035551  -0.004321  -0.005038  -0.001460  -0.000068   0.000103
     7  C    0.326669  -0.042385  -0.035551   0.326669  -0.042385  -0.035551
     8  H   -0.042385   0.007267  -0.004321  -0.042385   0.007267  -0.004321
     9  H   -0.035551  -0.004321  -0.005038  -0.035551  -0.004321  -0.005038
    10  C   -0.026973  -0.001701   0.008306  -0.026973  -0.001701   0.008306
    11  H   -0.001701   0.002584  -0.000019  -0.001701   0.002584  -0.000019
    12  H    0.008306  -0.000019  -0.000353   0.008306  -0.000019  -0.000353
    13  C    4.911637   0.415101   0.416257  -0.026973  -0.001701   0.008306
    14  H    0.415101   0.602369  -0.025426  -0.001701   0.002584  -0.000019
    15  H    0.416257  -0.025426   0.584467   0.008306  -0.000019  -0.000353
    16  C   -0.026973  -0.001701   0.008306   4.911637   0.415101   0.416257
    17  H   -0.001701   0.002584  -0.000019   0.415101   0.602369  -0.025426
    18  H    0.008306  -0.000019  -0.000353   0.416257  -0.025426   0.584467
 Mulliken charges:
               1
     1  C   -0.186458
     2  H    0.086377
     3  H    0.100081
     4  C   -0.186458
     5  H    0.086377
     6  H    0.100081
     7  C   -0.186458
     8  H    0.086377
     9  H    0.100081
    10  C   -0.186458
    11  H    0.086377
    12  H    0.100081
    13  C   -0.186458
    14  H    0.086377
    15  H    0.100081
    16  C   -0.186458
    17  H    0.086377
    18  H    0.100081
 Sum of Mulliken charges =   0.00000
 Mulliken charges with hydrogens summed into heavy atoms:
               1
     1  C    0.000000
     4  C    0.000000
     7  C    0.000000
    10  C    0.000000
    13  C    0.000000
    16  C    0.000000
 Electronic spatial extent (au):  <R**2>=            590.3913
 Charge=              0.0000 electrons
 Dipole moment (field-independent basis, Debye):
    X=              0.0000    Y=              0.0000    Z=              0.0000  Tot=              0.0000
 Quadrupole moment (field-independent basis, Debye-Ang):
   XX=            -40.2540   YY=            -40.2540   ZZ=            -39.5934
   XY=              0.0000   XZ=              0.0000   YZ=              0.0000
 Traceless Quadrupole moment (field-independent basis, Debye-Ang):
   XX=             -0.2202   YY=             -0.2202   ZZ=              0.4404
   XY=              0.0000   XZ=              0.0000   YZ=              0.0000
 Octapole moment (field-independent basis, Debye-Ang**2):
  XXX=              0.0000  YYY=              0.0000  ZZZ=              0.0000  XYY=              0.0000
  XXY=              0.0000  XXZ=              0.0000  XZZ=              0.0000  YZZ=              0.0000
  YYZ=              0.0000  XYZ=              0.0000
 Hexadecapole moment (field-independent basis, Debye-Ang**3):
 XXXX=           -358.9604 YYYY=           -358.9604 ZZZZ=            -99.2735 XXXY=              0.0000
 XXXZ=              0.0000 YYYX=              0.0000 YYYZ=              3.2078 ZZZX=              0.0000
 ZZZY=              0.0000 XXYY=           -119.6535 XXZZ=            -78.5022 YYZZ=            -78.5022
 XXYZ=             -3.2078 YYXZ=              0.0000 ZZXY=              0.0000
 N-N= 2.560897979374D+02 E-N=-1.058044976121D+03  KE= 2.345187793327D+02
 Symmetry AG   KE= 7.775277726006D+01
 Symmetry BG   KE= 3.930152800102D+01
 Symmetry AU   KE= 4.195567729508D+01
 Symmetry BU   KE= 7.550879677649D+01
 No NMR shielding tensors so no spin-rotation constants.
 Leave Link  601 at Fri Jul  9 19:24:08 2021, MaxMem=  4194304000 cpu:        79.5
 (Enter /home/minenky/programs//g09/l701.exe)
 Compute integral first derivatives.
 ... and contract with generalized density number  0.
 R6Disp: Adding Grimme-D2 dispersion energy 1st derivatives to the gradient.
  12 Symmetry operations used in ECPInt.
 ECPInt:  NShTT=    6555 NPrTT=   18696 LenC2=    6529 LenP2D=   15741.
 LDataN:  DoStor=T MaxTD1= 7 Len=  274
 Leave Link  701 at Fri Jul  9 19:25:00 2021, MaxMem=  4194304000 cpu:       262.4
 (Enter /home/minenky/programs//g09/l702.exe)
 L702 exits ... SP integral derivatives will be done elsewhere.
 Leave Link  702 at Fri Jul  9 19:25:01 2021, MaxMem=  4194304000 cpu:         0.2
 (Enter /home/minenky/programs//g09/l703.exe)
 Compute integral first derivatives, UseDBF=F ICtDFT=           0.
 Integral derivatives from FoFJK, PRISM(SPDF).
 Calling FoFJK, ICntrl=      2127 FMM=F ISym2X=1 I1Cent= 0 IOpClX= 0 NMat=1 NMatS=1 NMatT=0.
 FoFJK:  IHMeth= 1 ICntrl=    2127 DoSepK=T KAlg= 0 I1Cent=   0 FoldK=F
 IRaf=         1 NMat=   1 IRICut=       1 DoRegI=T DoRafI=F ISym2E= 1.
 FoFCou: FMM=F IPFlag=           0 FMFlag=      100000 FMFlg1=         800
         NFxFlg=           0 DoJE=F BraDBF=F KetDBF=F FulRan=T
         wScrn=  0.000000 ICntrl=    2527 IOpCl=  0 I1Cent=           0 NGrid=           0
         NMat0=    1 NMatS0=      1 NMatT0=    0 NMatD0=    1 NMtDS0=    0 NMtDT0=    0
 Petite list used in FoFCou.
 Leave Link  703 at Fri Jul  9 19:25:35 2021, MaxMem=  4194304000 cpu:       206.5
 (Enter /home/minenky/programs//g09/l716.exe)
 Dipole        = 6.21724894D-15-1.33226763D-15-1.66533454D-15
 ***** Axes restored to original set *****
 -------------------------------------------------------------------
 Center     Atomic                   Forces (Hartrees/Bohr)
 Number     Number              X              Y              Z
 -------------------------------------------------------------------
      1        6          -0.001089854   -0.000629228   -0.000567101
      2        1          -0.000194410   -0.000112243   -0.000093209
      3        1          -0.000322071   -0.000185948   -0.000084377
      4        6           0.001089854   -0.000629228   -0.000567101
      5        1           0.000194410   -0.000112243   -0.000093209
      6        1           0.000322071   -0.000185948   -0.000084377
      7        6           0.000000000    0.001258455   -0.000567101
      8        1           0.000000000    0.000224486   -0.000093209
      9        1           0.000000000    0.000371896   -0.000084377
     10        6           0.000000000   -0.001258455    0.000567101
     11        1           0.000000000   -0.000224486    0.000093209
     12        1           0.000000000   -0.000371896    0.000084377
     13        6           0.001089854    0.000629228    0.000567101
     14        1           0.000194410    0.000112243    0.000093209
     15        1           0.000322071    0.000185948    0.000084377
     16        6          -0.001089854    0.000629228    0.000567101
     17        1          -0.000194410    0.000112243    0.000093209
     18        1          -0.000322071    0.000185948    0.000084377
 -------------------------------------------------------------------
 Cartesian Forces:  Max     0.001258455 RMS     0.000484174
 Leave Link  716 at Fri Jul  9 19:25:35 2021, MaxMem=  4194304000 cpu:         0.1
 (Enter /home/minenky/programs//g09/l103.exe)

 GradGradGradGradGradGradGradGradGradGradGradGradGradGradGradGradGradGrad
 Berny optimization.
 FormGI is forming the generalized inverse of G from B-inverse, IUseBI=4.
 Internal  Forces:  Max     0.001881189 RMS     0.000454605
 Search for a local minimum.
 Step number   1 out of a maximum of  108
 All quantities printed in internal units (Hartrees-Bohrs-Radians)
 RMS Force = .45460D-03 SwitMx=.10000D-02 MixMth= 2
 Mixed Optimization -- En-DIIS/RFO-DIIS
 Second derivative matrix not updated -- first step.
 ITU=  0
     Eigenvalues ---    0.00549   0.00549   0.00642   0.01898   0.01898
     Eigenvalues ---    0.03631   0.03894   0.03894   0.04177   0.04822
     Eigenvalues ---    0.04822   0.04865   0.05530   0.05530   0.05985
     Eigenvalues ---    0.06074   0.08028   0.08028   0.08141   0.08141
     Eigenvalues ---    0.08141   0.08148   0.08193   0.08193   0.12064
     Eigenvalues ---    0.12095   0.12095   0.16081   0.16081   0.21878
     Eigenvalues ---    0.27847   0.28125   0.28125   0.29398   0.29398
     Eigenvalues ---    0.29398   0.34119   0.34119   0.34119   0.34119
     Eigenvalues ---    0.34119   0.34119   0.34470   0.34470   0.34470
     Eigenvalues ---    0.34470   0.34470   0.34470
 RFO step:  Lambda=-8.65719776D-05 EMin= 5.48578095D-03
 Linear search not attempted -- first point.
 Iteration  1 RMS(Cart)=  0.00424350 RMS(Int)=  0.00000325
 Iteration  2 RMS(Cart)=  0.00000350 RMS(Int)=  0.00000123
 Iteration  3 RMS(Cart)=  0.00000000 RMS(Int)=  0.00000123
[...]
 395,0.0103129,-0.0157011,0.0547579,-0.0061034,-0.0073197,0.0042926,0.1
 41513,0.0392961,-0.0231781,-0.0122422,-0.023203,0.0127111,0.0074537,0.
 042815,-0.0246756,-0.1829063,-0.1428718,0.0908593,-0.0385826,0.0907848
 ,-0.0373939,0.0221643,-0.0728774,0.042004,0.0414317,0.0458886,-0.00009
 83,0.0000646,-0.0001791,0.0822136,0.0118142,-0.0000288,-0.0084957,0.14
 14262,-0.0008221,0.0000481,-0.000167,0.0000356,0.0527963,-0.0141678,-0
 .0000189,0.0493256,-0.1829785,0.0151062,0.0001497,0.0000482,0.0001125,
 -0.1951498,-0.0445818,0.0000311,-0.0840432,0.0415331,0.0458886,-0.0000
 983,0.0000646,-0.0001791,0.0822137,0.0118142,-0.0000289,-0.0084956,0.1
 414262,-0.0008221,0.000048,-0.000167,0.0000356,0.0527963,-0.0141678,-0
 .0000189,0.0493255,-0.1829785,0.0151062,0.0001497,0.0000482,0.0001125,
 -0.1951499,-0.0445818,0.0000311,-0.0840432,0.0415331,0.0734352,0.01553
 94,-0.0103129,0.015701,0.0547579,-0.0061034,0.0073197,0.0042927,0.1415
 13,0.0392961,0.0231781,0.0122422,0.023203,0.0127111,0.0074537,-0.04281
 5,-0.0246756,-0.1829063,-0.1428718,-0.0908593,0.0385825,-0.0907848,-0.
 0373939,0.0221643,0.0728774,0.042004,0.0414317,0.0734352,-0.0155395,0.
 0103129,-0.0157011,0.0547579,-0.0061034,-0.0073197,0.0042927,0.141513,
 0.0392961,-0.0231781,-0.0122422,-0.023203,0.0127111,0.0074537,0.042815
 ,-0.0246756,-0.1829063,-0.1428718,0.0908593,-0.0385826,0.0907848,-0.03
 73939,0.0221643,-0.0728774,0.042004,0.0414317\Polar=71.2814031,-0.0000
 003,71.2701539,0.,0.0033641,62.692322\PG=D03D [3SGD(C2H4)]\NImag=0\\0.
 54467337,0.05385141,0.48253792,-0.02937620,-0.01693946,0.57496864,-0.0
 4995043,-0.00207319,-0.00891702,0.05267435,-0.00207363,-0.04755796,-0.
 00515660,-0.00198853,0.05500482,-0.00996689,-0.00575283,-0.29937984,0.
 01266935,0.00733385,0.32771105,-0.21966773,-0.09944697,0.07411587,0.00
 143266,0.00119445,-0.00027143,0.23986077,-0.09945535,-0.10483770,0.042
 79037,0.00119649,0.00004204,-0.00016203,0.10694407,0.11640086,0.075761
 33,0.04374454,-0.08204453,0.02643557,0.01526002,-0.01108182,-0.0804277
 8,-0.04643011,0.08454702,-0.03253991,-0.01177051,0.00850317,0.00157749
 ,-0.00096037,0.00070249,-0.00334200,0.00278399,-0.00127425,0.54467337,
 0.01177051,0.01100288,-0.00583145,-0.00018005,0.00021803,-0.00030001,0
 .00453848,-0.00162327,0.00120389,-0.05385141,0.48253792,-0.00850317,-0
 .00583145,0.00450265,-0.00127471,-0.00039831,0.00043931,-0.00309051,0.
 00144392,-0.00031026,0.02937620,-0.01693946,0.57496864,0.00157749,0.00
 018005,0.00127471,-0.00032484,0.00008509,-0.00068785,0.00032408,-0.000
 16320,-0.00039042,-0.04995043,0.00207319,0.00891702,0.05267435,0.00096
 037,0.00021803,-0.00039831,-0.00008509,0.00026732,-0.00042334,0.000154
 08,-0.00013275,-0.00011105,0.00207363,-0.04755796,-0.00515660,0.001988
 53,0.05500482,-0.00070249,-0.00030001,0.00043931,0.00068785,-0.0004233
 4,0.00045546,0.00000962,0.00004497,0.00036392,0.00996689,-0.00575283,-
 0.29937984,-0.01266935,0.00733385,0.32771105,-0.00334200,-0.00453848,0
 .00309051,0.00032408,-0.00015408,-0.00000962,-0.00157624,0.00100934,-0
 .00040061,-0.21966773,0.09944697,-0.07411587,0.00143266,-0.00119445,0.
 00027143,0.23986077,-0.00278399,-0.00162327,0.00144392,0.00016320,-0.0
 0013275,0.00004497,-0.00100934,0.00052406,-0.00009473,0.09945535,-0.10
 483770,0.04279037,-0.00119649,0.00004204,-0.00016203,-0.10694407,0.116
 40086,0.00127425,0.00120389,-0.00031026,0.00039042,-0.00011105,0.00036
 392,0.00040061,-0.00009473,0.00044804,-0.07576133,0.04374454,-0.082044
 53,-0.02643557,0.01526002,-0.01108182,0.08042778,-0.04643011,0.0845470
 2,0.00012770,-0.00710291,-0.00079274,0.00006438,0.00069529,0.00009128,
 0.00111720,0.00196774,0.00040783,0.00012458,0.00709226,0.00079384,0.00
 006412,-0.00069412,-0.00009138,0.00111660,-0.00196540,-0.00040624,0.45
 143510,-0.03062633,-0.02165528,0.01028544,-0.00008595,0.00173526,0.000
 76034,0.00021373,-0.00608199,-0.00170694,0.03062448,-0.02165688,0.0102
 8230,0.00008544,0.00172681,0.00075612,-0.00021279,-0.00607217,-0.00170
 337,0.00002026,0.57577619,-0.00930382,-0.00445619,0.00450423,-0.000981
 84,-0.00090188,0.00044046,-0.00029063,-0.00339337,-0.00030875,0.009303
 94,-0.00445076,0.00450344,0.00098194,-0.00090540,0.00043891,0.00029213
 ,-0.00339281,-0.00030864,-0.00001810,0.03391026,0.57496864,0.00105369,
 0.00126647,0.00029013,0.00011903,-0.00033839,-0.00070873,-0.00002218,0
 .00035435,-0.00029047,0.00105782,-0.00126849,-0.00028940,0.00011914,0.
 00033996,0.00070960,-0.00002238,-0.00035461,0.00029101,-0.04636046,-0.
 00000095,0.00000724,0.05614431,0.00048523,0.00074595,0.00130123,-0.000
 17204,-0.00017568,-0.00038380,0.00003741,0.00021421,-0.00028209,-0.000
 48647,0.00074640,0.00130124,0.00017169,-0.00017623,-0.00038394,-0.0000
 3708,0.00021386,-0.00028259,-0.00000051,-0.05114794,0.01030066,0.00001
 486,0.05153485,-0.00061283,-0.00045922,0.00044046,-0.00002198,0.000805
 68,0.00045499,0.00004293,-0.00001494,0.00036317,0.00061476,-0.00046039
 ,0.00044086,0.00002238,0.00080654,0.00045522,-0.00004332,-0.00001501,0
 .00036356,-0.00000135,0.01150800,-0.29937984,-0.00001663,-0.01463891,0
 .32771105,-0.00522680,-0.00169497,0.00279343,-0.00001452,0.00035877,0.
 00003440,0.00000120,-0.00191672,-0.00028253,-0.00523230,0.00170060,-0.
 00279696,-0.00001431,-0.00035852,-0.00003388,0.00000049,0.00191753,0.0
 0028239,-0.04741797,-0.00000690,0.00000039,-0.00064562,-0.00000340,0.0
 0000461,0.05464956,-0.00344898,0.00026201,0.00194838,0.00004183,0.0002
 0656,-0.00002971,0.00010067,-0.00104730,-0.00029837,0.00345648,0.00025
 782,0.00195349,-0.00004184,0.00020619,-0.00003052,-0.00010051,-0.00104
 963,-0.00029900,0.00000147,-0.27708745,-0.08558141,-0.00000544,0.00212
 031,0.00031608,0.00001233,0.30161208,0.00168217,0.00050028,-0.00030875
 ,0.00009906,0.00039260,0.00036317,0.00011713,0.00039387,0.00044728,-0.
 00168361,0.00050200,-0.00031036,-0.00009888,0.00039291,0.00036352,-0.0
 0011765,0.00039411,0.00044766,-0.00000322,-0.08748351,-0.08204453,0.00
 000222,-0.03052388,-0.01108182,-0.00000424,0.09286755,0.08454702,-0.15
 517846,0.04243720,-0.02976407,-0.00272554,0.00156820,-0.00058822,-0.02
 205981,0.01457611,-0.01037087,-0.15517426,-0.04242690,0.02976410,-0.00
 271898,-0.00157061,0.00059376,-0.02205858,-0.01458257,0.01037493,0.000
 33978,-0.00001236,0.00000120,-0.00018221,0.00000144,-0.00000142,-0.000
 49246,0.00000110,-0.00000156,0.45143510,0.04115382,-0.10691716,0.01611
 964,0.00013575,-0.00076291,0.00057073,-0.01343253,0.00835940,-0.005563
 59,-0.04114720,-0.10693753,0.01611504,-0.00013912,-0.00075348,0.000575
 34,0.01343201,0.00836219,-0.00556516,-0.00001236,0.00254887,0.00113689
 ,-0.00000160,-0.00025023,0.00013556,-0.00000109,0.00078400,-0.00013992
 ,0.00002026,0.57577619,-0.02884206,0.01771662,-0.09330882,-0.02915794,
 0.01797530,-0.01127543,0.01049009,-0.00671598,0.00318866,0.02883985,0.
 01772003,-0.09331568,0.02916321,0.01797853,-0.01127333,-0.01048999,-0.
 00671883,0.00318857,0.00000120,0.00113689,-0.00019965,-0.00000091,-0.0
 0003624,0.00018495,0.00000044,-0.00018766,0.00000054,-0.00001810,0.033
 91026,0.57496864,-0.00199140,0.00199206,-0.03014604,-0.00446348,0.0034
 5527,-0.00188463,0.00084603,-0.00074406,0.00019314,-0.00198159,-0.0019
 9742,0.03015343,-0.00445421,-0.00344925,0.00187674,0.00083778,0.000740
 96,-0.00019112,-0.00018221,-0.00000160,-0.00000091,-0.00017334,-0.0000
 0020,0.00000031,0.00011632,-0.00000034,0.00000043,-0.04636046,-0.00000
 095,0.00000724,0.05614431,0.00055961,-0.00149704,0.01626386,0.00267726
 ,-0.00092287,0.00125265,-0.00043282,0.00048709,-0.00059241,-0.00056501
 ,-0.00148948,0.01626493,-0.00266886,-0.00091835,0.00124682,0.00042493,
 0.00048338,-0.00059047,0.00000144,-0.00025023,-0.00003624,-0.00000020,
 0.00006919,-0.00020742,0.00000011,-0.00004329,-0.00001454,-0.00000051,
 -0.05114794,0.01030066,0.00001486,0.05153485,-0.00078838,0.00022404,-0
 .01127543,-0.00202714,0.00100581,0.00077692,-0.00055495,-0.00016952,0.
 00053337,0.00079575,0.00022372,-0.01127270,0.00201827,0.00100047,0.000
 78299,0.00056185,-0.00016624,0.00053189,-0.00000142,0.00013556,0.00018
 495,0.00000031,-0.00020742,-0.00000899,-0.00000018,0.00009592,-0.00002
 473,-0.00000135,0.01150800,-0.29937984,-0.00001663,-0.01463891,0.32771
 105,0.00025941,0.02746212,0.01106125,0.00108643,-0.00060526,-0.0001306
 7,0.00068275,-0.00052349,0.00071465,0.00026259,-0.02746830,-0.01106105
 ,0.00108260,0.00060476,0.00013313,0.00068031,0.00052313,-0.00071467,-0
 .00049246,-0.00000109,0.00000044,0.00011632,0.00000011,-0.00000018,0.0
 0022691,-0.00000035,0.,-0.04741797,-0.00000690,0.00000039,-0.00064562,
 -0.00000340,0.00000461,0.05464956,-0.00054652,-0.01395982,-0.00572670,
 -0.00029402,0.00024669,0.00056536,0.00037041,0.00059437,-0.00020166,0.
 00054116,-0.01394977,-0.00572337,0.00029087,0.00024573,0.00056715,-0.0
 0037394,0.00059282,-0.00020093,0.00000110,0.00078400,-0.00018766,-0.00
 000034,-0.00004329,0.00009592,-0.00000035,0.00000827,-0.00003781,0.000
 00147,-0.27708745,-0.08558141,-0.00000544,0.00212031,0.00031608,0.0000
 1233,0.30161208,-0.00036722,0.01176323,0.00318866,0.00060961,0.0001289
 4,0.00053337,0.00053197,-0.00051808,0.00009752,0.00037041,0.01176821,0
 .00318939,-0.00060837,0.00012906,0.00053236,-0.00053143,-0.00051787,0.
 00009759,-0.00000156,-0.00013992,0.00000054,0.00000043,-0.00001454,-0.
 00002473,0.,-0.00003781,-0.00003780,-0.00000322,-0.08748351,-0.0820445
 3,0.00000222,-0.03052388,-0.01108182,-0.00000424,0.09286755,0.08454702
 ,0.00200730,0.00095039,-0.00098398,-0.00023315,-0.00003101,-0.00011811
 ,0.00046488,0.00055163,0.00012039,-0.08282962,0.00063800,0.00093008,-0
 .00049173,0.00114304,-0.00020534,0.00126853,0.02689255,0.01000976,-0.1
 5517846,0.04115382,-0.02884206,-0.00199140,0.00055961,-0.00078838,0.00
 025941,-0.00054652,-0.00036722,0.00012770,-0.03062633,-0.00930382,0.00
 105369,0.00048523,-0.00061283,-0.00522680,-0.00344898,0.00168217,0.544
 67337,0.00095039,0.00088135,-0.00056948,-0.00002797,-0.00019929,-0.000
 06655,0.00055382,-0.00017334,0.00007131,-0.00063800,-0.17929834,-0.033
 83378,-0.00028840,-0.00296336,-0.00080810,-0.00112286,-0.01495168,-0.0
 0620763,0.04243720,-0.10691716,0.01771662,0.00199206,-0.00149704,0.000
 22404,0.02746212,-0.01395982,0.01176323,-0.00710291,-0.02165528,-0.004
 45619,0.00126647,0.00074595,-0.00045922,-0.00169497,0.00026201,0.00050
 028,0.05385141,0.48253792,-0.00098398,-0.00056948,-0.00019965,0.000030
 93,0.00001891,0.00018495,0.00016274,0.00009345,0.00000054,-0.00093008,
 -0.03383378,-0.09332253,-0.00099103,-0.03425228,-0.01127059,0.00057647
 ,0.01244217,0.00318930,-0.02976407,0.01611964,-0.09330882,-0.03014604,
 0.01626386,-0.01127543,0.01106125,-0.00572670,0.00318866,-0.00079274,0
 .01028544,0.00450423,0.00029013,0.00130123,0.00044046,0.00279343,0.001
 94838,-0.00030875,-0.02937620,-0.01693946,0.57496864,-0.00023315,-0.00
 002797,0.00003093,0.00000874,0.00010492,0.00017978,-0.00000329,-0.0000
 6894,0.00001281,-0.00049173,0.00028840,0.00099103,0.00084636,0.0003913
 9,-0.00014159,0.00006704,-0.00002165,0.00041528,-0.00272554,0.00013575
 ,-0.02915794,-0.00446348,0.00267726,-0.00202714,0.00108643,-0.00029402
 ,0.00060961,0.00006438,-0.00008595,-0.00098184,0.00011903,-0.00017204,
 -0.00002198,-0.00001452,0.00004183,0.00009906,-0.04995043,-0.00207319,
 -0.00891702,0.05267435,-0.00003101,-0.00019929,0.00001891,0.00010492,-
 0.00011288,0.00010344,-0.00006940,0.00007632,0.00000690,-0.00114304,-0
 .00296336,-0.03425228,-0.00039139,-0.00620514,-0.00223836,0.00029702,0
 .00124934,0.00045962,0.00156820,-0.00076291,0.01797530,0.00345527,-0.0
 0092287,0.00100581,-0.00060526,0.00024669,0.00012894,0.00069529,0.0017
 3526,-0.00090188,-0.00033839,-0.00017568,0.00080568,0.00035877,0.00020
 656,0.00039260,-0.00207363,-0.04755796,-0.00515660,-0.00198853,0.05500
 482,-0.00011811,-0.00006655,0.00018495,0.00017978,0.00010344,-0.000008
 99,-0.00008316,-0.00004781,-0.00002473,0.00020534,-0.00080810,-0.01127
 059,0.00014159,-0.00223836,0.00078906,0.00042522,-0.00040647,0.0005308
 9,-0.00058822,0.00057073,-0.01127543,-0.00188463,0.00125265,0.00077692
 ,-0.00013067,0.00056536,0.00053337,0.00009128,0.00076034,0.00044046,-0
 .00070873,-0.00038380,0.00045499,0.00003440,-0.00002971,0.00036317,-0.
 00996689,-0.00575283,-0.29937984,0.01266935,0.00733385,0.32771105,0.00
 046488,0.00055382,0.00016274,-0.00000329,-0.00006940,-0.00008316,0.000
 06323,-0.00009485,0.00003274,0.00126853,0.00112286,-0.00057647,0.00006
 704,-0.00029702,-0.00042522,0.00055000,-0.00045013,-0.00018341,-0.0220
 5981,-0.01343253,0.01049009,0.00084603,-0.00043282,-0.00055495,0.00068
 275,0.00037041,0.00053197,0.00111720,0.00021373,-0.00029063,-0.0000221
 8,0.00003741,0.00004293,0.00000120,0.00010067,0.00011713,-0.21966773,-
 0.09944697,0.07411587,0.00143266,0.00119445,-0.00027143,0.23986077,0.0
 0055163,-0.00017334,0.00009345,-0.00006894,0.00007632,-0.00004781,-0.0
 0009485,0.00017195,0.00001891,-0.02689255,-0.01495168,0.01244217,0.000
 02165,0.00124934,-0.00040647,0.00045013,0.00071913,0.00071882,0.014576
 11,0.00835940,-0.00671598,-0.00074406,0.00048709,-0.00016952,-0.000523
 49,0.00059437,-0.00051808,0.00196774,-0.00608199,-0.00339337,0.0003543
 5,0.00021421,-0.00001494,-0.00191672,-0.00104730,0.00039387,-0.0994553
 5,-0.10483770,0.04279037,0.00119649,0.00004204,-0.00016203,0.10694407,
 0.11640086,0.00012039,0.00007131,0.00000054,0.00001281,0.00000690,-0.0
 0002473,0.00003274,0.00001891,-0.00003780,-0.01000976,-0.00620763,0.00
 318930,-0.00041528,0.00045962,0.00053089,0.00018341,0.00071882,0.00009
 767,-0.01037087,-0.00556359,0.00318866,0.00019314,-0.00059241,0.000533
 37,0.00071465,-0.00020166,0.00009752,0.00040783,-0.00170694,-0.0003087
 5,-0.00029047,-0.00028209,0.00036317,-0.00028253,-0.00029837,0.0004472
 8,0.07576133,0.04374454,-0.08204453,0.02643557,0.01526002,-0.01108182,
 -0.08042778,-0.04643011,0.08454702,-0.08282962,-0.00063800,-0.00093008
 ,-0.00049173,-0.00114304,0.00020534,0.00126853,-0.02689255,-0.01000976
 ,0.00200730,-0.00095039,0.00098398,-0.00023315,0.00003101,0.00011811,0
 .00046488,-0.00055163,-0.00012039,-0.15517426,-0.04114720,0.02883985,-
 0.00198159,-0.00056501,0.00079575,0.00026259,0.00054116,0.00037041,0.0
 0012458,0.03062448,0.00930394,0.00105782,-0.00048647,0.00061476,-0.005
 23230,0.00345648,-0.00168361,-0.03253991,-0.01177051,0.00850317,0.0015
 7749,-0.00096037,0.00070249,-0.00334200,0.00278399,-0.00127425,0.54467
 337,0.00063800,-0.17929834,-0.03383378,0.00028840,-0.00296336,-0.00080
 810,0.00112286,-0.01495168,-0.00620763,-0.00095039,0.00088135,-0.00056
 948,0.00002797,-0.00019929,-0.00006655,-0.00055382,-0.00017334,0.00007
 131,-0.04242690,-0.10693753,0.01772003,-0.00199742,-0.00148948,0.00022
 372,-0.02746830,-0.01394977,0.01176821,0.00709226,-0.02165688,-0.00445
 076,-0.00126849,0.00074640,-0.00046039,0.00170060,0.00025782,0.0005020
 0,0.01177051,0.01100288,-0.00583145,-0.00018005,0.00021803,-0.00030001
 ,0.00453848,-0.00162327,0.00120389,-0.05385141,0.48253792,0.00093008,-
 0.03383378,-0.09332253,0.00099103,-0.03425228,-0.01127059,-0.00057647,
 0.01244217,0.00318930,0.00098398,-0.00056948,-0.00019965,-0.00003093,0
 .00001891,0.00018495,-0.00016274,0.00009345,0.00000054,0.02976410,0.01
 611504,-0.09331568,0.03015343,0.01626493,-0.01127270,-0.01106105,-0.00
 572337,0.00318939,0.00079384,0.01028230,0.00450344,-0.00028940,0.00130
 124,0.00044086,-0.00279696,0.00195349,-0.00031036,-0.00850317,-0.00583
 145,0.00450265,-0.00127471,-0.00039831,0.00043931,-0.00309051,0.001443
 92,-0.00031026,0.02937620,-0.01693946,0.57496864,-0.00049173,-0.000288
 40,-0.00099103,0.00084636,-0.00039139,0.00014159,0.00006704,0.00002165
 ,-0.00041528,-0.00023315,0.00002797,-0.00003093,0.00000874,-0.00010492
 ,-0.00017978,-0.00000329,0.00006894,-0.00001281,-0.00271898,-0.0001391
 2,0.02916321,-0.00445421,-0.00266886,0.00201827,0.00108260,0.00029087,
 -0.00060837,0.00006412,0.00008544,0.00098194,0.00011914,0.00017169,0.0
 0002238,-0.00001431,-0.00004184,-0.00009888,0.00157749,0.00018005,0.00
 127471,-0.00032484,0.00008509,-0.00068785,0.00032408,-0.00016320,-0.00
 039042,-0.04995043,0.00207319,0.00891702,0.05267435,0.00114304,-0.0029
 6336,-0.03425228,0.00039139,-0.00620514,-0.00223836,-0.00029702,0.0012
 4934,0.00045962,0.00003101,-0.00019929,0.00001891,-0.00010492,-0.00011
 288,0.00010344,0.00006940,0.00007632,0.00000690,-0.00157061,-0.0007534
 8,0.01797853,-0.00344925,-0.00091835,0.00100047,0.00060476,0.00024573,
 0.00012906,-0.00069412,0.00172681,-0.00090540,0.00033996,-0.00017623,0
 .00080654,-0.00035852,0.00020619,0.00039291,0.00096037,0.00021803,-0.0
 0039831,-0.00008509,0.00026732,-0.00042334,0.00015408,-0.00013275,-0.0
 0011105,0.00207363,-0.04755796,-0.00515660,0.00198853,0.05500482,-0.00
 020534,-0.00080810,-0.01127059,-0.00014159,-0.00223836,0.00078906,-0.0
 0042522,-0.00040647,0.00053089,0.00011811,-0.00006655,0.00018495,-0.00
 017978,0.00010344,-0.00000899,0.00008316,-0.00004781,-0.00002473,0.000
 59376,0.00057534,-0.01127333,0.00187674,0.00124682,0.00078299,0.000133
 13,0.00056715,0.00053236,-0.00009138,0.00075612,0.00043891,0.00070960,
 -0.00038394,0.00045522,-0.00003388,-0.00003052,0.00036352,-0.00070249,
 -0.00030001,0.00043931,0.00068785,-0.00042334,0.00045546,0.00000962,0.
 00004497,0.00036392,0.00996689,-0.00575283,-0.29937984,-0.01266935,0.0
 0733385,0.32771105,0.00126853,-0.00112286,0.00057647,0.00006704,0.0002
 9702,0.00042522,0.00055000,0.00045013,0.00018341,0.00046488,-0.0005538
 2,-0.00016274,-0.00000329,0.00006940,0.00008316,0.00006323,0.00009485,
 -0.00003274,-0.02205858,0.01343201,-0.01048999,0.00083778,0.00042493,0
 .00056185,0.00068031,-0.00037394,-0.00053143,0.00111660,-0.00021279,0.
 00029213,-0.00002238,-0.00003708,-0.00004332,0.00000049,-0.00010051,-0
 .00011765,-0.00334200,-0.00453848,0.00309051,0.00032408,-0.00015408,-0
 .00000962,-0.00157624,0.00100934,-0.00040061,-0.21966773,0.09944697,-0
 .07411587,0.00143266,-0.00119445,0.00027143,0.23986077,0.02689255,-0.0
 1495168,0.01244217,-0.00002165,0.00124934,-0.00040647,-0.00045013,0.00
 071913,0.00071882,-0.00055163,-0.00017334,0.00009345,0.00006894,0.0000
 7632,-0.00004781,0.00009485,0.00017195,0.00001891,-0.01458257,0.008362
 19,-0.00671883,0.00074096,0.00048338,-0.00016624,0.00052313,0.00059282
 ,-0.00051787,-0.00196540,-0.00607217,-0.00339281,-0.00035461,0.0002138
 6,-0.00001501,0.00191753,-0.00104963,0.00039411,-0.00278399,-0.0016232
 7,0.00144392,0.00016320,-0.00013275,0.00004497,-0.00100934,0.00052406,
 -0.00009473,0.09945535,-0.10483770,0.04279037,-0.00119649,0.00004204,-
 0.00016203,-0.10694407,0.11640086,0.01000976,-0.00620763,0.00318930,0.
 00041528,0.00045962,0.00053089,-0.00018341,0.00071882,0.00009767,-0.00
 012039,0.00007131,0.00000054,-0.00001281,0.00000690,-0.00002473,-0.000
 03274,0.00001891,-0.00003780,0.01037493,-0.00556516,0.00318857,-0.0001
 9112,-0.00059047,0.00053189,-0.00071467,-0.00020093,0.00009759,-0.0004
 0624,-0.00170337,-0.00030864,0.00029101,-0.00028259,0.00036356,0.00028
 239,-0.00029900,0.00044766,0.00127425,0.00120389,-0.00031026,0.0003904
 2,-0.00011105,0.00036392,0.00040061,-0.00009473,0.00044804,-0.07576133
 ,0.04374454,-0.08204453,-0.02643557,0.01526002,-0.01108182,0.08042778,
 -0.04643011,0.08454702\\0.00000861,0.00000497,0.00000828,-0.00000143,-
 0.00000082,-0.00000177,-0.00000160,-0.00000092,-0.00000206,-0.00000861
 ,0.00000497,0.00000828,0.00000143,-0.00000082,-0.00000177,0.00000160,-
 0.00000092,-0.00000206,0.,-0.00000995,0.00000828,0.,0.00000165,-0.0000
 0177,0.,0.00000184,-0.00000206,0.,0.00000995,-0.00000828,0.,-0.0000016
 5,0.00000177,0.,-0.00000184,0.00000206,-0.00000861,-0.00000497,-0.0000
 0828,0.00000143,0.00000082,0.00000177,0.00000160,0.00000092,0.00000206
 ,0.00000861,-0.00000497,-0.00000828,-0.00000143,0.00000082,0.00000177,
 -0.00000160,0.00000092,0.00000206\\\@


 THE PROGRESS OF RIVERS TO THE SEA IS NOT AS RAPID
 AS THAT OF MAN TO ERROR.
                                              -- VOLTAIRE
 Job cpu time:       0 days  0 hours 50 minutes 38.5 seconds.
 File lengths (MBytes):  RWF=     49 Int=      0 D2E=      0 Chk=      6 Scr=      1
 Normal termination of Gaussian 09 at Fri Jul  9 19:39:19 2021.
