 Entering Gaussian System, Link 0=g09
 Initial command:
 /home/minenky/programs//g09/l1.exe "/local/scratch/minenky/m1_00_581-42-0-C12H12_wB97XD/Gau-127533.inp" -scrdir="/local/scratch/minenky/m1_00_581-42-0-C12H12_wB97XD/"
 Entering Link 1 = /home/minenky/programs//g09/l1.exe PID=    127534.
  
 Copyright (c) 1988,1990,1992,1993,1995,1998,2003,2009,2013,
            Gaussian, Inc.  All Rights Reserved.
  
 This is part of the Gaussian(R) 09 program.  It is based on
 the Gaussian(R) 03 system (copyright 2003, Gaussian, Inc.),
 the Gaussian(R) 98 system (copyright 1998, Gaussian, Inc.),
 the Gaussian(R) 94 system (copyright 1995, Gaussian, Inc.),
 the Gaussian 92(TM) system (copyright 1992, Gaussian, Inc.),
 the Gaussian 90(TM) system (copyright 1990, Gaussian, Inc.),
 the Gaussian 88(TM) system (copyright 1988, Gaussian, Inc.),
 the Gaussian 86(TM) system (copyright 1986, Carnegie Mellon
 University), and the Gaussian 82(TM) system (copyright 1983,
 Carnegie Mellon University). Gaussian is a federally registered
 trademark of Gaussian, Inc.
  
 This software contains proprietary and confidential information,
 including trade secrets, belonging to Gaussian, Inc.
  
 This software is provided under written license and may be
 used, copied, transmitted, or stored only in accord with that
 written license.
  
 The following legend is applicable only to US Government
 contracts under FAR:
  
                    RESTRICTED RIGHTS LEGEND
  
 Use, reproduction and disclosure by the US Government is
 subject to restrictions as set forth in subparagraphs (a)
 and (c) of the Commercial Computer Software - Restricted
 Rights clause in FAR 52.227-19.
  
 Gaussian, Inc.
 340 Quinnipiac St., Bldg. 40, Wallingford CT 06492
  
  
 ---------------------------------------------------------------
 Warning -- This program may not be used in any manner that
 competes with the business of Gaussian, Inc. or will provide
 assistance to any competitor of Gaussian, Inc.  The licensee
 of this program is prohibited from giving any competitor of
 Gaussian, Inc. access to this program.  By using this program,
 the user acknowledges that Gaussian, Inc. is engaged in the
 business of creating and licensing software in the field of
 computational chemistry and represents and warrants to the
 licensee that it is not a competitor of Gaussian, Inc. and that
 it will not use this program in any manner prohibited above.
 ---------------------------------------------------------------
  

 Cite this work as:
 Gaussian 09, Revision D.01,
 M. J. Frisch, G. W. Trucks, H. B. Schlegel, G. E. Scuseria, 
 M. A. Robb, J. R. Cheeseman, G. Scalmani, V. Barone, B. Mennucci, 
 G. A. Petersson, H. Nakatsuji, M. Caricato, X. Li, H. P. Hratchian, 
 A. F. Izmaylov, J. Bloino, G. Zheng, J. L. Sonnenberg, M. Hada, 
 M. Ehara, K. Toyota, R. Fukuda, J. Hasegawa, M. Ishida, T. Nakajima, 
 Y. Honda, O. Kitao, H. Nakai, T. Vreven, J. A. Montgomery, Jr., 
 J. E. Peralta, F. Ogliaro, M. Bearpark, J. J. Heyd, E. Brothers, 
 K. N. Kudin, V. N. Staroverov, T. Keith, R. Kobayashi, J. Normand, 
 K. Raghavachari, A. Rendell, J. C. Burant, S. S. Iyengar, J. Tomasi, 
 M. Cossi, N. Rega, J. M. Millam, M. Klene, J. E. Knox, J. B. Cross, 
 V. Bakken, C. Adamo, J. Jaramillo, R. Gomperts, R. E. Stratmann, 
 O. Yazyev, A. J. Austin, R. Cammi, C. Pomelli, J. W. Ochterski, 
 R. L. Martin, K. Morokuma, V. G. Zakrzewski, G. A. Voth, 
 P. Salvador, J. J. Dannenberg, S. Dapprich, A. D. Daniels, 
 O. Farkas, J. B. Foresman, J. V. Ortiz, J. Cioslowski, 
 and D. J. Fox, Gaussian, Inc., Wallingford CT, 2013.
 
 ******************************************
 Gaussian 09:  AM64L-G09RevD.01 24-Apr-2013
                 9-Jul-2021 
 ******************************************
 %Mem=32000MB
 %NProcShared=16
 Will use up to   16 processors via shared memory.
 %Chk=m1_00_581-42-0-C12H12_wB97XD
 ----------------------------------------------------------------------
 #P wB97XD/def2tzvp opt=(tight) freq integral(Grid=ultrafine) # SCF(Max
 Cycle=380) 5d 7f GFPrint
 ----------------------------------------------------------------------
 1/7=10,14=-1,18=20,19=15,26=4,38=1/1,3;
 2/9=110,12=2,17=6,18=5,40=1/2;
 3/5=44,7=101,8=11,11=2,16=1,24=100,25=1,30=1,71=1,74=-58,75=-5/1,2,3;
 4//1;
 5/5=2,7=380,38=5/2;
 6/7=2,8=2,9=2,10=2,28=1/1;
 7//1,2,3,16;
 1/7=10,14=-1,18=20,19=15,26=4/3(2);
 2/9=110/2;
 99//99;
 2/9=110/2;
 3/5=44,7=101,8=11,11=2,16=1,25=1,30=1,71=1,74=-58,75=-5/1,2,3;
 4/5=5,16=3,69=1/1;
 5/5=2,7=380,38=5/2;
 7//1,2,3,16;
 1/7=10,14=-1,18=20,19=15,26=4/3(-5);
 2/9=110/2;
 6/7=2,8=2,9=2,10=2,19=2,28=1/1;
 99/9=1/99;
 Leave Link    1 at Fri Jul  9 19:19:35 2021, MaxMem=  4194304000 cpu:         0.9
 (Enter /home/minenky/programs//g09/l101.exe)
 ---------------------------------------
 The PBEPBE optimization and frequencies
 ---------------------------------------
 Symbolic Z-matrix:
 Charge =  0 Multiplicity = 1
 C                     2.54295  -0.07676   0. 
 C                     4.00072  -0.44314   0. 
 C                     1.55695  -1.03224   0. 
 C                     2.16124   1.28829   0. 
 C                     0.18497  -0.68729   0. 
 C                     0.84387   1.6589    0. 
 C                    -0.18497   0.68729   0. 
 C                    -0.84387  -1.6589    0. 
 C                    -1.55695   1.03224   0. 
 C                    -2.16124  -1.28829   0. 
 C                    -2.54295   0.07676   0. 
 C                    -4.00072   0.44314   0. 
 H                     4.5085   -0.03779  -0.87897 
 H                     4.5085   -0.0378    0.87898 
 H                     4.13822  -1.52421  -0.00001 
 H                     1.82482  -2.083     0. 
 H                     2.93379   2.04845  0. 
 H                     0.57188   2.70773   0. 
 H                    -0.57188  -2.70773   0. 
 H                    -1.82482   2.083     0. 
 H                    -2.93379  -2.04845   0. 
 H                    -4.5085    0.03781  -0.87898 
 H                    -4.5085    0.03779   0.87897 
 H                    -4.13822   1.52421   0.00001 
 
 NAtoms=     24 NQM=       24 NQMF=       0 NMMI=      0 NMMIF=      0
                NMic=       0 NMicF=      0.
                    Isotopes and Nuclear Properties:
 (Nuclear quadrupole moments (NQMom) in fm**2, nuclear magnetic moments (NMagM)
  in nuclear magnetons)

  Atom         1           2           3           4           5           6           7           8           9          10
 IAtWgt=          12          12          12          12          12          12          12          12          12          12
 AtmWgt=  12.0000000  12.0000000  12.0000000  12.0000000  12.0000000  12.0000000  12.0000000  12.0000000  12.0000000  12.0000000
 NucSpn=           0           0           0           0           0           0           0           0           0           0
 AtZEff=   0.0000000   0.0000000   0.0000000   0.0000000   0.0000000   0.0000000   0.0000000   0.0000000   0.0000000   0.0000000
 NQMom=    0.0000000   0.0000000   0.0000000   0.0000000   0.0000000   0.0000000   0.0000000   0.0000000   0.0000000   0.0000000
 NMagM=    0.0000000   0.0000000   0.0000000   0.0000000   0.0000000   0.0000000   0.0000000   0.0000000   0.0000000   0.0000000
 AtZNuc=   6.0000000   6.0000000   6.0000000   6.0000000   6.0000000   6.0000000   6.0000000   6.0000000   6.0000000   6.0000000

  Atom        11          12          13          14          15          16          17          18          19          20
 IAtWgt=          12          12           1           1           1           1           1           1           1           1
 AtmWgt=  12.0000000  12.0000000   1.0078250   1.0078250   1.0078250   1.0078250   1.0078250   1.0078250   1.0078250   1.0078250
 NucSpn=           0           0           1           1           1           1           1           1           1           1
 AtZEff=   0.0000000   0.0000000   0.0000000   0.0000000   0.0000000   0.0000000   0.0000000   0.0000000   0.0000000   0.0000000
 NQMom=    0.0000000   0.0000000   0.0000000   0.0000000   0.0000000   0.0000000   0.0000000   0.0000000   0.0000000   0.0000000
 NMagM=    0.0000000   0.0000000   2.7928460   2.7928460   2.7928460   2.7928460   2.7928460   2.7928460   2.7928460   2.7928460
 AtZNuc=   6.0000000   6.0000000   1.0000000   1.0000000   1.0000000   1.0000000   1.0000000   1.0000000   1.0000000   1.0000000

  Atom        21          22          23          24
 IAtWgt=           1           1           1           1
 AtmWgt=   1.0078250   1.0078250   1.0078250   1.0078250
 NucSpn=           1           1           1           1
 AtZEff=   0.0000000   0.0000000   0.0000000   0.0000000
 NQMom=    0.0000000   0.0000000   0.0000000   0.0000000
 NMagM=    2.7928460   2.7928460   2.7928460   2.7928460
 AtZNuc=   1.0000000   1.0000000   1.0000000   1.0000000
 Leave Link  101 at Fri Jul  9 19:19:35 2021, MaxMem=  4194304000 cpu:         1.7
 (Enter /home/minenky/programs//g09/l103.exe)

 GradGradGradGradGradGradGradGradGradGradGradGradGradGradGradGradGradGrad
 Berny optimization.
 Initialization pass.
                           ----------------------------
                           !    Initial Parameters    !
                           ! (Angstroms and Degrees)  !
 --------------------------                            --------------------------
 ! Name  Definition              Value          Derivative Info.                !
 --------------------------------------------------------------------------------
 ! R1    R(1,2)                  1.5031         estimate D2E/DX2                !
 ! R2    R(1,3)                  1.373          estimate D2E/DX2                !
 ! R3    R(1,4)                  1.4174         estimate D2E/DX2                !
 ! R4    R(2,13)                 1.093          estimate D2E/DX2                !
 ! R5    R(2,14)                 1.093          estimate D2E/DX2                !
 ! R6    R(2,15)                 1.0898         estimate D2E/DX2                !
 ! R7    R(3,5)                  1.4147         estimate D2E/DX2                !
 ! R8    R(3,16)                 1.0844         estimate D2E/DX2                !
 ! R9    R(4,6)                  1.3685         estimate D2E/DX2                !
 ! R10   R(4,17)                 1.0838         estimate D2E/DX2                !
 ! R11   R(5,7)                  1.4235         estimate D2E/DX2                !
 ! R12   R(5,8)                  1.4151         estimate D2E/DX2                !
 ! R13   R(6,7)                  1.4151         estimate D2E/DX2                !
 ! R14   R(6,18)                 1.0835         estimate D2E/DX2                !
 ! R15   R(7,9)                  1.4147         estimate D2E/DX2                !
 ! R16   R(8,10)                 1.3685         estimate D2E/DX2                !
 ! R17   R(8,19)                 1.0835         estimate D2E/DX2                !
 ! R18   R(9,11)                 1.373          estimate D2E/DX2                !
 ! R19   R(9,20)                 1.0844         estimate D2E/DX2                !
 ! R20   R(10,11)                1.4174         estimate D2E/DX2                !
 ! R21   R(10,21)                1.0838         estimate D2E/DX2                !
 ! R22   R(11,12)                1.5031         estimate D2E/DX2                !
 ! R23   R(12,22)                1.093          estimate D2E/DX2                !
 ! R24   R(12,23)                1.093          estimate D2E/DX2                !
 ! R25   R(12,24)                1.0898         estimate D2E/DX2                !
 ! A1    A(2,1,3)              121.7927         estimate D2E/DX2                !
 ! A2    A(2,1,4)              119.7305         estimate D2E/DX2                !
 ! A3    A(3,1,4)              118.4768         estimate D2E/DX2                !
 ! A4    A(1,2,13)             111.1098         estimate D2E/DX2                !
 ! A5    A(1,2,14)             111.1097         estimate D2E/DX2                !
 ! A6    A(1,2,15)             111.3564         estimate D2E/DX2                !
 ! A7    A(13,2,14)            107.0575         estimate D2E/DX2                !
 ! A8    A(13,2,15)            108.0146         estimate D2E/DX2                !
 ! A9    A(14,2,15)            108.0146         estimate D2E/DX2                !
 ! A10   A(1,3,5)              121.7875         estimate D2E/DX2                !
 ! A11   A(1,3,16)             119.7979         estimate D2E/DX2                !
 ! A12   A(5,3,16)             118.4146         estimate D2E/DX2                !
 ! A13   A(1,4,6)              121.335          estimate D2E/DX2                !
 ! A14   A(1,4,17)             118.914          estimate D2E/DX2                !
 ! A15   A(6,4,17)             119.751          estimate D2E/DX2                !
 ! A16   A(3,5,7)              119.1762         estimate D2E/DX2                !
 ! A17   A(3,5,8)              122.5259         estimate D2E/DX2                !
 ! A18   A(7,5,8)              118.2979         estimate D2E/DX2                !
 ! A19   A(4,6,7)              120.9265         estimate D2E/DX2                !
 ! A20   A(4,6,18)             120.2505         estimate D2E/DX2                !
 ! A21   A(7,6,18)             118.823          estimate D2E/DX2                !
 ! A22   A(5,7,6)              118.2979         estimate D2E/DX2                !
 ! A23   A(5,7,9)              119.1762         estimate D2E/DX2                !
 ! A24   A(6,7,9)              122.5259         estimate D2E/DX2                !
 ! A25   A(5,8,10)             120.9265         estimate D2E/DX2                !
 ! A26   A(5,8,19)             118.823          estimate D2E/DX2                !
 ! A27   A(10,8,19)            120.2505         estimate D2E/DX2                !
 ! A28   A(7,9,11)             121.7875         estimate D2E/DX2                !
 ! A29   A(7,9,20)             118.4146         estimate D2E/DX2                !
 ! A30   A(11,9,20)            119.7979         estimate D2E/DX2                !
 ! A31   A(8,10,11)            121.3351         estimate D2E/DX2                !
 ! A32   A(8,10,21)            119.7509         estimate D2E/DX2                !
 ! A33   A(11,10,21)           118.914          estimate D2E/DX2                !
 ! A34   A(9,11,10)            118.4768         estimate D2E/DX2                !
 ! A35   A(9,11,12)            121.7927         estimate D2E/DX2                !
 ! A36   A(10,11,12)           119.7305         estimate D2E/DX2                !
 ! A37   A(11,12,22)           111.1098         estimate D2E/DX2                !
 ! A38   A(11,12,23)           111.1098         estimate D2E/DX2                !
 ! A39   A(11,12,24)           111.3563         estimate D2E/DX2                !
 ! A40   A(22,12,23)           107.0575         estimate D2E/DX2                !
 ! A41   A(22,12,24)           108.0145         estimate D2E/DX2                !
 ! A42   A(23,12,24)           108.0145         estimate D2E/DX2                !
 ! D1    D(3,1,2,13)           120.4582         estimate D2E/DX2                !
 ! D2    D(3,1,2,14)          -120.4575         estimate D2E/DX2                !
 ! D3    D(3,1,2,15)             0.0003         estimate D2E/DX2                !
 ! D4    D(4,1,2,13)           -59.5418         estimate D2E/DX2                !
 ! D5    D(4,1,2,14)            59.5425         estimate D2E/DX2                !
 ! D6    D(4,1,2,15)          -179.9997         estimate D2E/DX2                !
 ! D7    D(2,1,3,5)            180.0            estimate D2E/DX2                !
 ! D8    D(2,1,3,16)             0.0            estimate D2E/DX2                !
 ! D9    D(4,1,3,5)              0.0            estimate D2E/DX2                !
 ! D10   D(4,1,3,16)           180.0            estimate D2E/DX2                !
 ! D11   D(2,1,4,6)            180.0            estimate D2E/DX2                !
 ! D12   D(2,1,4,17)             0.0001         estimate D2E/DX2                !
 ! D13   D(3,1,4,6)              0.0            estimate D2E/DX2                !
 ! D14   D(3,1,4,17)          -179.9999         estimate D2E/DX2                !
 ! D15   D(1,3,5,7)              0.0            estimate D2E/DX2                !
 ! D16   D(1,3,5,8)            180.0            estimate D2E/DX2                !
 ! D17   D(16,3,5,7)           180.0            estimate D2E/DX2                !
 ! D18   D(16,3,5,8)             0.0            estimate D2E/DX2                !
 ! D19   D(1,4,6,7)              0.0            estimate D2E/DX2                !
 ! D20   D(1,4,6,18)           180.0            estimate D2E/DX2                !
 ! D21   D(17,4,6,7)           179.9999         estimate D2E/DX2                !
 ! D22   D(17,4,6,18)           -0.0001         estimate D2E/DX2                !
 ! D23   D(3,5,7,6)              0.0            estimate D2E/DX2                !
 ! D24   D(3,5,7,9)            180.0            estimate D2E/DX2                !
 ! D25   D(8,5,7,6)            180.0            estimate D2E/DX2                !
 ! D26   D(8,5,7,9)              0.0            estimate D2E/DX2                !
 ! D27   D(3,5,8,10)           180.0            estimate D2E/DX2                !
 ! D28   D(3,5,8,19)             0.0            estimate D2E/DX2                !
 ! D29   D(7,5,8,10)             0.0            estimate D2E/DX2                !
 ! D30   D(7,5,8,19)           180.0            estimate D2E/DX2                !
 ! D31   D(4,6,7,5)              0.0            estimate D2E/DX2                !
 ! D32   D(4,6,7,9)            180.0            estimate D2E/DX2                !
 ! D33   D(18,6,7,5)           180.0            estimate D2E/DX2                !
 ! D34   D(18,6,7,9)             0.0            estimate D2E/DX2                !
 ! D35   D(5,7,9,11)             0.0            estimate D2E/DX2                !
 ! D36   D(5,7,9,20)           179.9999         estimate D2E/DX2                !
 ! D37   D(6,7,9,11)           180.0            estimate D2E/DX2                !
 ! D38   D(6,7,9,20)            -0.0001         estimate D2E/DX2                !
 ! D39   D(5,8,10,11)            0.0            estimate D2E/DX2                !
 ! D40   D(5,8,10,21)         -179.9999         estimate D2E/DX2                !
 ! D41   D(19,8,10,11)         180.0            estimate D2E/DX2                !
 ! D42   D(19,8,10,21)           0.0001         estimate D2E/DX2                !
 ! D43   D(7,9,11,10)            0.0            estimate D2E/DX2                !
 ! D44   D(7,9,11,12)          180.0            estimate D2E/DX2                !
 ! D45   D(20,9,11,10)        -179.9999         estimate D2E/DX2                !
 ! D46   D(20,9,11,12)           0.0001         estimate D2E/DX2                !
 ! D47   D(8,10,11,9)            0.0            estimate D2E/DX2                !
 ! D48   D(8,10,11,12)         180.0            estimate D2E/DX2                !
 ! D49   D(21,10,11,9)         179.9999         estimate D2E/DX2                !
 ! D50   D(21,10,11,12)         -0.0001         estimate D2E/DX2                !
 ! D51   D(9,11,12,22)         120.4574         estimate D2E/DX2                !
 ! D52   D(9,11,12,23)        -120.4582         estimate D2E/DX2                !
 ! D53   D(9,11,12,24)          -0.0004         estimate D2E/DX2                !
 ! D54   D(10,11,12,22)        -59.5426         estimate D2E/DX2                !
 ! D55   D(10,11,12,23)         59.5418         estimate D2E/DX2                !
 ! D56   D(10,11,12,24)        179.9996         estimate D2E/DX2                !
 --------------------------------------------------------------------------------
 Trust Radius=3.00D-01 FncErr=1.00D-07 GrdErr=1.00D-06
 Number of steps in this run=    133 maximum allowed number of steps=    144.
 GradGradGradGradGradGradGradGradGradGradGradGradGradGradGradGradGradGrad

 Leave Link  103 at Fri Jul  9 19:19:35 2021, MaxMem=  4194304000 cpu:         0.0
 (Enter /home/minenky/programs//g09/l202.exe)
                          Input orientation:                          
 ---------------------------------------------------------------------
 Center     Atomic      Atomic             Coordinates (Angstroms)
 Number     Number       Type             X           Y           Z
 ---------------------------------------------------------------------
      1          6           0        2.542948   -0.076758    0.000000
      2          6           0        4.000719   -0.443137    0.000000
      3          6           0        1.556949   -1.032239    0.000000
      4          6           0        2.161238    1.288292    0.000000
      5          6           0        0.184971   -0.687290    0.000000
      6          6           0        0.843872    1.658895    0.000000
      7          6           0       -0.184971    0.687290    0.000000
      8          6           0       -0.843872   -1.658895    0.000000
      9          6           0       -1.556949    1.032239    0.000000
     10          6           0       -2.161238   -1.288291    0.000000
     11          6           0       -2.542948    0.076758    0.000000
     12          6           0       -4.000719    0.443137    0.000000
     13          1           0        4.508500   -0.037793   -0.878969
     14          1           0        4.508497   -0.037803    0.878976
     15          1           0        4.138220   -1.524208   -0.000006
     16          1           0        1.824816   -2.083001    0.000000
     17          1           0        2.933789    2.048447   -0.000001
     18          1           0        0.571882    2.707726    0.000000
     19          1           0       -0.571882   -2.707726    0.000000
     20          1           0       -1.824816    2.083001    0.000001
     21          1           0       -2.933789   -2.048447    0.000001
     22          1           0       -4.508497    0.037805   -0.878976
     23          1           0       -4.508501    0.037793    0.878968
     24          1           0       -4.138219    1.524208    0.000007
 ---------------------------------------------------------------------
                    Distance matrix (angstroms):
                    1          2          3          4          5
     1  C    0.000000
     2  C    1.503107   0.000000
     3  C    1.373003   2.513773   0.000000
     4  C    1.417415   2.526170   2.397922   0.000000
     5  C    2.435735   3.823551   1.414678   2.794379   0.000000
     6  C    2.428858   3.792654   2.784004   1.368503   2.436952
     7  C    2.832898   4.335651   2.447665   2.421962   1.423491
     8  C    3.738142   4.994810   2.481258   4.209109   1.415109
     9  C    4.247238   5.750166   3.736098   3.726993   2.447665
    10  C    4.857693   6.219646   3.726993   5.032154   2.421962
    11  C    5.088212   6.564287   4.247238   4.857693   2.832898
    12  C    6.564287   8.050372   5.750166   6.219646   4.335651
    13  H    2.153485   1.093038   3.236227   2.835618   4.459522
    14  H    2.153485   1.093038   3.236223   2.835622   4.459519
    15  H    2.154067   1.089780   2.627735   3.437821   4.040867
    16  H    2.130898   2.724648   1.084368   3.388037   2.153393
    17  H    2.160845   2.710411   3.374361   1.083822   3.878177
    18  H    3.411518   4.656701   3.867518   2.130926   3.416992
    19  H    4.077273   5.102651   2.709092   4.841292   2.157542
    20  H    4.872568   6.349664   4.597940   4.064504   3.422536
    21  H    5.820842   7.117894   4.604281   6.090413   3.402854
    22  H    7.106940   8.568002   6.221513   6.842637   4.829804
    23  H    7.106943   8.568005   6.221514   6.842642   4.829804
    24  H    6.870305   8.373336   6.242624   6.303873   4.855996
                    6          7          8          9         10
     6  C    0.000000
     7  C    1.415109   0.000000
     8  C    3.722393   2.436952   0.000000
     9  C    2.481258   1.414678   2.784004   0.000000
    10  C    4.209108   2.794379   1.368503   2.397921   0.000000
    11  C    3.738142   2.435735   2.428858   1.373003   1.417414
    12  C    4.994810   3.823551   3.792654   2.513773   2.526170
    13  H    4.132897   4.829804   5.661135   6.221513   6.842641
    14  H    4.132900   4.829803   5.661130   6.221513   6.842637
    15  H    4.580925   4.855997   4.983912   6.242625   6.303874
    16  H    3.868338   3.422536   2.702177   4.597940   4.064504
    17  H    2.125912   3.402854   5.292930   4.604281   6.090412
    18  H    1.083524   2.157542   4.590396   2.709092   4.841291
    19  H    4.590396   3.416992   1.083524   3.867518   2.130927
    20  H    2.702177   2.153393   3.868338   1.084368   3.388036
    21  H    5.292930   3.878177   2.125912   3.374361   1.083823
    22  H    5.661129   4.459519   4.132900   3.236222   2.835622
    23  H    5.661135   4.459523   4.132897   3.236227   2.835618
    24  H    4.983911   4.040866   4.580924   2.627734   3.437820
                   11         12         13         14         15
    11  C    0.000000
    12  C    1.503107   0.000000
    13  H    7.106942   8.568004   0.000000
    14  H    7.106940   8.568002   1.757945   0.000000
    15  H    6.870306   8.373337   1.766101   1.766101   0.000000
    16  H    4.872568   6.349664   3.486778   3.486772   2.379934
    17  H    5.820842   7.117894   2.757661   2.757670   3.770215
    18  H    4.077273   5.102651   4.879285   4.879289   5.534260
    19  H    3.411518   4.656701   5.806153   5.806147   4.856519
    20  H    2.130898   2.724648   6.736560   6.736561   6.969200
    21  H    2.160845   2.710411   7.759058   7.759053   7.091413
    22  H    2.153485   1.093038   9.017314   9.187072   8.830526
    23  H    2.153486   1.093038   9.187076   9.017315   8.830528
    24  H    2.154066   1.089780   8.830526   8.830524   8.819993
                   16         17         18         19         20
    16  H    0.000000
    17  H    4.277696   0.000000
    18  H    4.951859   2.452194   0.000000
    19  H    2.476781   5.908546   5.534918   0.000000
    20  H    5.538536   4.758730   2.476781   4.951859   0.000000
    21  H    4.758730   7.156327   5.908546   2.452194   4.277696
    22  H    6.736562   7.759053   5.806146   4.879291   3.486771
    23  H    6.736561   7.759059   5.806153   4.879286   3.486778
    24  H    6.969200   7.091412   4.856518   5.534259   2.379933
                   21         22         23         24
    21  H    0.000000
    22  H    2.757672   0.000000
    23  H    2.757662   1.757944   0.000000
    24  H    3.770214   1.766100   1.766100   0.000000
 Stoichiometry    C12H12
 Framework group  C1[X(C12H12)]
 Deg. of freedom    66
 Full point group                 C1      NOp   1
 Largest Abelian subgroup         C1      NOp   1
 Largest concise Abelian subgroup C1      NOp   1
                         Standard orientation:                         
 ---------------------------------------------------------------------
 Center     Atomic      Atomic             Coordinates (Angstroms)
 Number     Number       Type             X           Y           Z
 ---------------------------------------------------------------------
      1          6           0        2.542948    0.076758    0.000000
      2          6           0        4.000719    0.443137    0.000000
      3          6           0        1.556949    1.032239    0.000000
      4          6           0        2.161238   -1.288292    0.000000
      5          6           0        0.184971    0.687290    0.000000
      6          6           0        0.843872   -1.658895    0.000000
      7          6           0       -0.184971   -0.687290    0.000000
      8          6           0       -0.843872    1.658895    0.000000
      9          6           0       -1.556949   -1.032239    0.000000
     10          6           0       -2.161238    1.288291    0.000000
     11          6           0       -2.542948   -0.076758    0.000000
     12          6           0       -4.000719   -0.443137    0.000000
     13          1           0        4.508500    0.037793    0.878969
     14          1           0        4.508497    0.037803   -0.878976
     15          1           0        4.138220    1.524208    0.000006
     16          1           0        1.824816    2.083001    0.000000
     17          1           0        2.933789   -2.048447    0.000001
     18          1           0        0.571882   -2.707726    0.000000
     19          1           0       -0.571882    2.707726    0.000000
     20          1           0       -1.824816   -2.083001   -0.000001
     21          1           0       -2.933789    2.048447   -0.000001
     22          1           0       -4.508497   -0.037805    0.878976
     23          1           0       -4.508501   -0.037793   -0.878968
     24          1           0       -4.138219   -1.524208   -0.000007
 ---------------------------------------------------------------------
 Rotational constants (GHZ):      2.6970877      0.5796481      0.4799318
 Leave Link  202 at Fri Jul  9 19:19:35 2021, MaxMem=  4194304000 cpu:         0.2
 (Enter /home/minenky/programs//g09/l301.exe)
 Standard basis: def2TZVP (5D, 7F)
 ======================================================================================================
                                       Pseudopotential Parameters
 ======================================================================================================
  Center     Atomic      Valence      Angular      Power
  Number     Number     Electrons     Momentum     of R      Exponent        Coefficient   SO-Coeffient
 ======================================================================================================
    1          6
                                   No pseudopotential on this center.
    2          6
                                   No pseudopotential on this center.
    3          6
                                   No pseudopotential on this center.
    4          6
                                   No pseudopotential on this center.
    5          6
                                   No pseudopotential on this center.
    6          6
                                   No pseudopotential on this center.
    7          6
                                   No pseudopotential on this center.
    8          6
                                   No pseudopotential on this center.
    9          6
                                   No pseudopotential on this center.
   10          6
                                   No pseudopotential on this center.
   11          6
                                   No pseudopotential on this center.
   12          6
                                   No pseudopotential on this center.
   13          1
                                   No pseudopotential on this center.
   14          1
                                   No pseudopotential on this center.
   15          1
                                   No pseudopotential on this center.
   16          1
                                   No pseudopotential on this center.
   17          1
                                   No pseudopotential on this center.
   18          1
                                   No pseudopotential on this center.
   19          1
                                   No pseudopotential on this center.
   20          1
                                   No pseudopotential on this center.
   21          1
                                   No pseudopotential on this center.
   22          1
                                   No pseudopotential on this center.
   23          1
                                   No pseudopotential on this center.
   24          1
                                   No pseudopotential on this center.
 ======================================================================================================
 Ernie: Thresh=  0.10000D-02 Tol=  0.10000D-05 Strict=F.
 AO basis set (Overlap normalization):
 Atom C1       Shell     1 S   6     bf    1 -     1          4.805475292925          0.145051687181          0.000000022497
      0.1357534968D+05  0.6064550360D-03
      0.2035233368D+04  0.4697908888D-02
      0.4632256236D+03  0.2433247765D-01
      0.1312001960D+03  0.9739996831D-01
      0.4285301589D+02  0.3019558425D+00
      0.1558418577D+02  0.6623360914D+00
 Atom C1       Shell     2 S   2     bf    2 -     2          4.805475292925          0.145051687181          0.000000022497
      0.6206713851D+01  0.6559530854D+00
      0.2576489653D+01  0.3758563329D+00
 Atom C1       Shell     3 S   1     bf    3 -     3          4.805475292925          0.145051687181          0.000000022497
      0.5769633942D+00  0.1000000000D+01
 Atom C1       Shell     4 S   1     bf    4 -     4          4.805475292925          0.145051687181          0.000000022497
      0.2297283136D+00  0.1000000000D+01
 Atom C1       Shell     5 S   1     bf    5 -     5          4.805475292925          0.145051687181          0.000000022497
      0.9516444003D-01  0.1000000000D+01
 Atom C1       Shell     6 P   4     bf    6 -     8          4.805475292925          0.145051687181          0.000000022497
      0.3469723224D+02  0.1132722000D-01
      0.7958262283D+01  0.7616965920D-01
      0.2378082688D+01  0.3019225220D+00
      0.8143320818D+00  0.7278502735D+00
 Atom C1       Shell     7 P   1     bf    9 -    11          4.805475292925          0.145051687181          0.000000022497
      0.2888754725D+00  0.1000000000D+01
 Atom C1       Shell     8 P   1     bf   12 -    14          4.805475292925          0.145051687181          0.000000022497
      0.1005682367D+00  0.1000000000D+01
 Atom C1       Shell     9 D   1     bf   15 -    19          4.805475292925          0.145051687181          0.000000022497
      0.1097000000D+01  0.1000000000D+01
 Atom C1       Shell    10 D   1     bf   20 -    24          4.805475292925          0.145051687181          0.000000022497
      0.3180000000D+00  0.1000000000D+01
 Atom C1       Shell    11 F   1     bf   25 -    31          4.805475292925          0.145051687181          0.000000022497
      0.7610000000D+00  0.1000000000D+01
 Atom C2       Shell    12 S   6     bf   32 -    32          7.560263260542          0.837407605682          0.000000022497
      0.1357534968D+05  0.6064550360D-03
      0.2035233368D+04  0.4697908888D-02
      0.4632256236D+03  0.2433247765D-01
      0.1312001960D+03  0.9739996831D-01
      0.4285301589D+02  0.3019558425D+00
      0.1558418577D+02  0.6623360914D+00
 Atom C2       Shell    13 S   2     bf   33 -    33          7.560263260542          0.837407605682          0.000000022497
      0.6206713851D+01  0.6559530854D+00
      0.2576489653D+01  0.3758563329D+00
 Atom C2       Shell    14 S   1     bf   34 -    34          7.560263260542          0.837407605682          0.000000022497
      0.5769633942D+00  0.1000000000D+01
 Atom C2       Shell    15 S   1     bf   35 -    35          7.560263260542          0.837407605682          0.000000022497
      0.2297283136D+00  0.1000000000D+01
 Atom C2       Shell    16 S   1     bf   36 -    36          7.560263260542          0.837407605682          0.000000022497
      0.9516444003D-01  0.1000000000D+01
 Atom C2       Shell    17 P   4     bf   37 -    39          7.560263260542          0.837407605682          0.000000022497
      0.3469723224D+02  0.1132722000D-01
      0.7958262283D+01  0.7616965920D-01
      0.2378082688D+01  0.3019225220D+00
      0.8143320818D+00  0.7278502735D+00
 Atom C2       Shell    18 P   1     bf   40 -    42          7.560263260542          0.837407605682          0.000000022497
      0.2888754725D+00  0.1000000000D+01
 Atom C2       Shell    19 P   1     bf   43 -    45          7.560263260542          0.837407605682          0.000000022497
      0.1005682367D+00  0.1000000000D+01
 Atom C2       Shell    20 D   1     bf   46 -    50          7.560263260542          0.837407605682          0.000000022497
      0.1097000000D+01  0.1000000000D+01
 Atom C2       Shell    21 D   1     bf   51 -    55          7.560263260542          0.837407605682          0.000000022497
      0.3180000000D+00  0.1000000000D+01
 Atom C2       Shell    22 F   1     bf   56 -    62          7.560263260542          0.837407605682          0.000000022497
      0.7610000000D+00  0.1000000000D+01
 Atom C3       Shell    23 S   6     bf   63 -    63          2.942207249931          1.950649137758          0.000000022497
      0.1357534968D+05  0.6064550360D-03
      0.2035233368D+04  0.4697908888D-02
      0.4632256236D+03  0.2433247765D-01
      0.1312001960D+03  0.9739996831D-01
      0.4285301589D+02  0.3019558425D+00
      0.1558418577D+02  0.6623360914D+00
 Atom C3       Shell    24 S   2     bf   64 -    64          2.942207249931          1.950649137758          0.000000022497
      0.6206713851D+01  0.6559530854D+00
      0.2576489653D+01  0.3758563329D+00
 Atom C3       Shell    25 S   1     bf   65 -    65          2.942207249931          1.950649137758          0.000000022497
      0.5769633942D+00  0.1000000000D+01
 Atom C3       Shell    26 S   1     bf   66 -    66          2.942207249931          1.950649137758          0.000000022497
      0.2297283136D+00  0.1000000000D+01
 Atom C3       Shell    27 S   1     bf   67 -    67          2.942207249931          1.950649137758          0.000000022497
      0.9516444003D-01  0.1000000000D+01
 Atom C3       Shell    28 P   4     bf   68 -    70          2.942207249931          1.950649137758          0.000000022497
      0.3469723224D+02  0.1132722000D-01
      0.7958262283D+01  0.7616965920D-01
      0.2378082688D+01  0.3019225220D+00
      0.8143320818D+00  0.7278502735D+00
 Atom C3       Shell    29 P   1     bf   71 -    73          2.942207249931          1.950649137758          0.000000022497
      0.2888754725D+00  0.1000000000D+01
 Atom C3       Shell    30 P   1     bf   74 -    76          2.942207249931          1.950649137758          0.000000022497
      0.1005682367D+00  0.1000000000D+01
 Atom C3       Shell    31 D   1     bf   77 -    81          2.942207249931          1.950649137758          0.000000022497
      0.1097000000D+01  0.1000000000D+01
 Atom C3       Shell    32 D   1     bf   82 -    86          2.942207249931          1.950649137758          0.000000022497
      0.3180000000D+00  0.1000000000D+01
 Atom C3       Shell    33 F   1     bf   87 -    93          2.942207249931          1.950649137758          0.000000022497
      0.7610000000D+00  0.1000000000D+01
 Atom C4       Shell    34 S   6     bf   94 -    94          4.084147881731         -2.434518956810          0.000000022497
      0.1357534968D+05  0.6064550360D-03
      0.2035233368D+04  0.4697908888D-02
      0.4632256236D+03  0.2433247765D-01
      0.1312001960D+03  0.9739996831D-01
      0.4285301589D+02  0.3019558425D+00
      0.1558418577D+02  0.6623360914D+00
 Atom C4       Shell    35 S   2     bf   95 -    95          4.084147881731         -2.434518956810          0.000000022497
      0.6206713851D+01  0.6559530854D+00
      0.2576489653D+01  0.3758563329D+00
 Atom C4       Shell    36 S   1     bf   96 -    96          4.084147881731         -2.434518956810          0.000000022497
      0.5769633942D+00  0.1000000000D+01
 Atom C4       Shell    37 S   1     bf   97 -    97          4.084147881731         -2.434518956810          0.000000022497
      0.2297283136D+00  0.1000000000D+01
 Atom C4       Shell    38 S   1     bf   98 -    98          4.084147881731         -2.434518956810          0.000000022497
      0.9516444003D-01  0.1000000000D+01
 Atom C4       Shell    39 P   4     bf   99 -   101          4.084147881731         -2.434518956810          0.000000022497
      0.3469723224D+02  0.1132722000D-01
      0.7958262283D+01  0.7616965920D-01
      0.2378082688D+01  0.3019225220D+00
      0.8143320818D+00  0.7278502735D+00
 Atom C4       Shell    40 P   1     bf  102 -   104          4.084147881731         -2.434518956810          0.000000022497
      0.2888754725D+00  0.1000000000D+01
 Atom C4       Shell    41 P   1     bf  105 -   107          4.084147881731         -2.434518956810          0.000000022497
      0.1005682367D+00  0.1000000000D+01
 Atom C4       Shell    42 D   1     bf  108 -   112          4.084147881731         -2.434518956810          0.000000022497
      0.1097000000D+01  0.1000000000D+01
 Atom C4       Shell    43 D   1     bf  113 -   117          4.084147881731         -2.434518956810          0.000000022497
      0.3180000000D+00  0.1000000000D+01
 Atom C4       Shell    44 F   1     bf  118 -   124          4.084147881731         -2.434518956810          0.000000022497
      0.7610000000D+00  0.1000000000D+01
 Atom C5       Shell    45 S   6     bf  125 -   125          0.349544557202          1.298790047204          0.000000022497
      0.1357534968D+05  0.6064550360D-03
      0.2035233368D+04  0.4697908888D-02
      0.4632256236D+03  0.2433247765D-01
      0.1312001960D+03  0.9739996831D-01
      0.4285301589D+02  0.3019558425D+00
      0.1558418577D+02  0.6623360914D+00
 Atom C5       Shell    46 S   2     bf  126 -   126          0.349544557202          1.298790047204          0.000000022497
      0.6206713851D+01  0.6559530854D+00
      0.2576489653D+01  0.3758563329D+00
 Atom C5       Shell    47 S   1     bf  127 -   127          0.349544557202          1.298790047204          0.000000022497
      0.5769633942D+00  0.1000000000D+01
 Atom C5       Shell    48 S   1     bf  128 -   128          0.349544557202          1.298790047204          0.000000022497
      0.2297283136D+00  0.1000000000D+01
 Atom C5       Shell    49 S   1     bf  129 -   129          0.349544557202          1.298790047204          0.000000022497
      0.9516444003D-01  0.1000000000D+01
 Atom C5       Shell    50 P   4     bf  130 -   132          0.349544557202          1.298790047204          0.000000022497
      0.3469723224D+02  0.1132722000D-01
      0.7958262283D+01  0.7616965920D-01
      0.2378082688D+01  0.3019225220D+00
      0.8143320818D+00  0.7278502735D+00
 Atom C5       Shell    51 P   1     bf  133 -   135          0.349544557202          1.298790047204          0.000000022497
      0.2888754725D+00  0.1000000000D+01
 Atom C5       Shell    52 P   1     bf  136 -   138          0.349544557202          1.298790047204          0.000000022497
      0.1005682367D+00  0.1000000000D+01
 Atom C5       Shell    53 D   1     bf  139 -   143          0.349544557202          1.298790047204          0.000000022497
      0.1097000000D+01  0.1000000000D+01
 Atom C5       Shell    54 D   1     bf  144 -   148          0.349544557202          1.298790047204          0.000000022497
      0.3180000000D+00  0.1000000000D+01
 Atom C5       Shell    55 F   1     bf  149 -   155          0.349544557202          1.298790047204          0.000000022497
      0.7610000000D+00  0.1000000000D+01
 Atom C6       Shell    56 S   6     bf  156 -   156          1.594686911650         -3.134857083537          0.000000022497
      0.1357534968D+05  0.6064550360D-03
      0.2035233368D+04  0.4697908888D-02
      0.4632256236D+03  0.2433247765D-01
      0.1312001960D+03  0.9739996831D-01
      0.4285301589D+02  0.3019558425D+00
      0.1558418577D+02  0.6623360914D+00
 Atom C6       Shell    57 S   2     bf  157 -   157          1.594686911650         -3.134857083537          0.000000022497
      0.6206713851D+01  0.6559530854D+00
      0.2576489653D+01  0.3758563329D+00
 Atom C6       Shell    58 S   1     bf  158 -   158          1.594686911650         -3.134857083537          0.000000022497
      0.5769633942D+00  0.1000000000D+01
 Atom C6       Shell    59 S   1     bf  159 -   159          1.594686911650         -3.134857083537          0.000000022497
      0.2297283136D+00  0.1000000000D+01
 Atom C6       Shell    60 S   1     bf  160 -   160          1.594686911650         -3.134857083537          0.000000022497
      0.9516444003D-01  0.1000000000D+01
 Atom C6       Shell    61 P   4     bf  161 -   163          1.594686911650         -3.134857083537          0.000000022497
      0.3469723224D+02  0.1132722000D-01
      0.7958262283D+01  0.7616965920D-01
      0.2378082688D+01  0.3019225220D+00
      0.8143320818D+00  0.7278502735D+00
 Atom C6       Shell    62 P   1     bf  164 -   166          1.594686911650         -3.134857083537          0.000000022497
      0.2888754725D+00  0.1000000000D+01
 Atom C6       Shell    63 P   1     bf  167 -   169          1.594686911650         -3.134857083537          0.000000022497
      0.1005682367D+00  0.1000000000D+01
 Atom C6       Shell    64 D   1     bf  170 -   174          1.594686911650         -3.134857083537          0.000000022497
      0.1097000000D+01  0.1000000000D+01
 Atom C6       Shell    65 D   1     bf  175 -   179          1.594686911650         -3.134857083537          0.000000022497
      0.3180000000D+00  0.1000000000D+01
 Atom C6       Shell    66 F   1     bf  180 -   186          1.594686911650         -3.134857083537          0.000000022497
      0.7610000000D+00  0.1000000000D+01
 Atom C7       Shell    67 S   6     bf  187 -   187         -0.349544557202         -1.298789687256          0.000000022497
      0.1357534968D+05  0.6064550360D-03
      0.2035233368D+04  0.4697908888D-02
      0.4632256236D+03  0.2433247765D-01
      0.1312001960D+03  0.9739996831D-01
      0.4285301589D+02  0.3019558425D+00
      0.1558418577D+02  0.6623360914D+00
 Atom C7       Shell    68 S   2     bf  188 -   188         -0.349544557202         -1.298789687256          0.000000022497
      0.6206713851D+01  0.6559530854D+00
      0.2576489653D+01  0.3758563329D+00
 Atom C7       Shell    69 S   1     bf  189 -   189         -0.349544557202         -1.298789687256          0.000000022497
      0.5769633942D+00  0.1000000000D+01
 Atom C7       Shell    70 S   1     bf  190 -   190         -0.349544557202         -1.298789687256          0.000000022497
      0.2297283136D+00  0.1000000000D+01
 Atom C7       Shell    71 S   1     bf  191 -   191         -0.349544557202         -1.298789687256          0.000000022497
      0.9516444003D-01  0.1000000000D+01
 Atom C7       Shell    72 P   4     bf  192 -   194         -0.349544557202         -1.298789687256          0.000000022497
      0.3469723224D+02  0.1132722000D-01
      0.7958262283D+01  0.7616965920D-01
      0.2378082688D+01  0.3019225220D+00
      0.8143320818D+00  0.7278502735D+00
 Atom C7       Shell    73 P   1     bf  195 -   197         -0.349544557202         -1.298789687256          0.000000022497
      0.2888754725D+00  0.1000000000D+01
 Atom C7       Shell    74 P   1     bf  198 -   200         -0.349544557202         -1.298789687256          0.000000022497
      0.1005682367D+00  0.1000000000D+01
 Atom C7       Shell    75 D   1     bf  201 -   205         -0.349544557202         -1.298789687256          0.000000022497
      0.1097000000D+01  0.1000000000D+01
 Atom C7       Shell    76 D   1     bf  206 -   210         -0.349544557202         -1.298789687256          0.000000022497
      0.3180000000D+00  0.1000000000D+01
 Atom C7       Shell    77 F   1     bf  211 -   217         -0.349544557202         -1.298789687256          0.000000022497
      0.7610000000D+00  0.1000000000D+01
 Atom C8       Shell    78 S   6     bf  218 -   218         -1.594686911650          3.134857443485          0.000000022497
      0.1357534968D+05  0.6064550360D-03
      0.2035233368D+04  0.4697908888D-02
      0.4632256236D+03  0.2433247765D-01
      0.1312001960D+03  0.9739996831D-01
      0.4285301589D+02  0.3019558425D+00
      0.1558418577D+02  0.6623360914D+00
 Atom C8       Shell    79 S   2     bf  219 -   219         -1.594686911650          3.134857443485          0.000000022497
      0.6206713851D+01  0.6559530854D+00
      0.2576489653D+01  0.3758563329D+00
 Atom C8       Shell    80 S   1     bf  220 -   220         -1.594686911650          3.134857443485          0.000000022497
      0.5769633942D+00  0.1000000000D+01
 Atom C8       Shell    81 S   1     bf  221 -   221         -1.594686911650          3.134857443485          0.000000022497
      0.2297283136D+00  0.1000000000D+01
 Atom C8       Shell    82 S   1     bf  222 -   222         -1.594686911650          3.134857443485          0.000000022497
      0.9516444003D-01  0.1000000000D+01
 Atom C8       Shell    83 P   4     bf  223 -   225         -1.594686911650          3.134857443485          0.000000022497
      0.3469723224D+02  0.1132722000D-01
      0.7958262283D+01  0.7616965920D-01
      0.2378082688D+01  0.3019225220D+00
      0.8143320818D+00  0.7278502735D+00
 Atom C8       Shell    84 P   1     bf  226 -   228         -1.594686911650          3.134857443485          0.000000022497
      0.2888754725D+00  0.1000000000D+01
 Atom C8       Shell    85 P   1     bf  229 -   231         -1.594686911650          3.134857443485          0.000000022497
      0.1005682367D+00  0.1000000000D+01
 Atom C8       Shell    86 D   1     bf  232 -   236         -1.594686911650          3.134857443485          0.000000022497
      0.1097000000D+01  0.1000000000D+01
 Atom C8       Shell    87 D   1     bf  237 -   241         -1.594686911650          3.134857443485          0.000000022497
      0.3180000000D+00  0.1000000000D+01
 Atom C8       Shell    88 F   1     bf  242 -   248         -1.594686911650          3.134857443485          0.000000022497
      0.7610000000D+00  0.1000000000D+01
 Atom C9       Shell    89 S   6     bf  249 -   249         -2.942207249931         -1.950648777810          0.000000022497
      0.1357534968D+05  0.6064550360D-03
      0.2035233368D+04  0.4697908888D-02
      0.4632256236D+03  0.2433247765D-01
      0.1312001960D+03  0.9739996831D-01
      0.4285301589D+02  0.3019558425D+00
      0.1558418577D+02  0.6623360914D+00
 Atom C9       Shell    90 S   2     bf  250 -   250         -2.942207249931         -1.950648777810          0.000000022497
      0.6206713851D+01  0.6559530854D+00
      0.2576489653D+01  0.3758563329D+00
 Atom C9       Shell    91 S   1     bf  251 -   251         -2.942207249931         -1.950648777810          0.000000022497
      0.5769633942D+00  0.1000000000D+01
 Atom C9       Shell    92 S   1     bf  252 -   252         -2.942207249931         -1.950648777810          0.000000022497
      0.2297283136D+00  0.1000000000D+01
 Atom C9       Shell    93 S   1     bf  253 -   253         -2.942207249931         -1.950648777810          0.000000022497
      0.9516444003D-01  0.1000000000D+01
 Atom C9       Shell    94 P   4     bf  254 -   256         -2.942207249931         -1.950648777810          0.000000022497
      0.3469723224D+02  0.1132722000D-01
      0.7958262283D+01  0.7616965920D-01
      0.2378082688D+01  0.3019225220D+00
      0.8143320818D+00  0.7278502735D+00
 Atom C9       Shell    95 P   1     bf  257 -   259         -2.942207249931         -1.950648777810          0.000000022497
      0.2888754725D+00  0.1000000000D+01
 Atom C9       Shell    96 P   1     bf  260 -   262         -2.942207249931         -1.950648777810          0.000000022497
      0.1005682367D+00  0.1000000000D+01
 Atom C9       Shell    97 D   1     bf  263 -   267         -2.942207249931         -1.950648777810          0.000000022497
      0.1097000000D+01  0.1000000000D+01
 Atom C9       Shell    98 D   1     bf  268 -   272         -2.942207249931         -1.950648777810          0.000000022497
      0.3180000000D+00  0.1000000000D+01
 Atom C9       Shell    99 F   1     bf  273 -   279         -2.942207249931         -1.950648777810          0.000000022497
      0.7610000000D+00  0.1000000000D+01
 Atom C10      Shell   100 S   6     bf  280 -   280         -4.084147881731          2.434517427031          0.000000022497
      0.1357534968D+05  0.6064550360D-03
      0.2035233368D+04  0.4697908888D-02
      0.4632256236D+03  0.2433247765D-01
      0.1312001960D+03  0.9739996831D-01
      0.4285301589D+02  0.3019558425D+00
      0.1558418577D+02  0.6623360914D+00
 Atom C10      Shell   101 S   2     bf  281 -   281         -4.084147881731          2.434517427031          0.000000022497
      0.6206713851D+01  0.6559530854D+00
      0.2576489653D+01  0.3758563329D+00
 Atom C10      Shell   102 S   1     bf  282 -   282         -4.084147881731          2.434517427031          0.000000022497
      0.5769633942D+00  0.1000000000D+01
 Atom C10      Shell   103 S   1     bf  283 -   283         -4.084147881731          2.434517427031          0.000000022497
      0.2297283136D+00  0.1000000000D+01
 Atom C10      Shell   104 S   1     bf  284 -   284         -4.084147881731          2.434517427031          0.000000022497
      0.9516444003D-01  0.1000000000D+01
 Atom C10      Shell   105 P   4     bf  285 -   287         -4.084147881731          2.434517427031          0.000000022497
      0.3469723224D+02  0.1132722000D-01
      0.7958262283D+01  0.7616965920D-01
      0.2378082688D+01  0.3019225220D+00
      0.8143320818D+00  0.7278502735D+00
 Atom C10      Shell   106 P   1     bf  288 -   290         -4.084147881731          2.434517427031          0.000000022497
      0.2888754725D+00  0.1000000000D+01
 Atom C10      Shell   107 P   1     bf  291 -   293         -4.084147881731          2.434517427031          0.000000022497
      0.1005682367D+00  0.1000000000D+01
 Atom C10      Shell   108 D   1     bf  294 -   298         -4.084147881731          2.434517427031          0.000000022497
      0.1097000000D+01  0.1000000000D+01
 Atom C10      Shell   109 D   1     bf  299 -   303         -4.084147881731          2.434517427031          0.000000022497
      0.3180000000D+00  0.1000000000D+01
 Atom C10      Shell   110 F   1     bf  304 -   310         -4.084147881731          2.434517427031          0.000000022497
      0.7610000000D+00  0.1000000000D+01
 Atom C11      Shell   111 S   6     bf  311 -   311         -4.805475292925         -0.145051327233          0.000000022497
      0.1357534968D+05  0.6064550360D-03
      0.2035233368D+04  0.4697908888D-02
      0.4632256236D+03  0.2433247765D-01
      0.1312001960D+03  0.9739996831D-01
      0.4285301589D+02  0.3019558425D+00
      0.1558418577D+02  0.6623360914D+00
 Atom C11      Shell   112 S   2     bf  312 -   312         -4.805475292925         -0.145051327233          0.000000022497
      0.6206713851D+01  0.6559530854D+00
      0.2576489653D+01  0.3758563329D+00
 Atom C11      Shell   113 S   1     bf  313 -   313         -4.805475292925         -0.145051327233          0.000000022497
      0.5769633942D+00  0.1000000000D+01
 Atom C11      Shell   114 S   1     bf  314 -   314         -4.805475292925         -0.145051327233          0.000000022497
      0.2297283136D+00  0.1000000000D+01
 Atom C11      Shell   115 S   1     bf  315 -   315         -4.805475292925         -0.145051327233          0.000000022497
      0.9516444003D-01  0.1000000000D+01
 Atom C11      Shell   116 P   4     bf  316 -   318         -4.805475292925         -0.145051327233          0.000000022497
      0.3469723224D+02  0.1132722000D-01
      0.7958262283D+01  0.7616965920D-01
      0.2378082688D+01  0.3019225220D+00
      0.8143320818D+00  0.7278502735D+00
 Atom C11      Shell   117 P   1     bf  319 -   321         -4.805475292925         -0.145051327233          0.000000022497
      0.2888754725D+00  0.1000000000D+01
 Atom C11      Shell   118 P   1     bf  322 -   324         -4.805475292925         -0.145051327233          0.000000022497
      0.1005682367D+00  0.1000000000D+01
 Atom C11      Shell   119 D   1     bf  325 -   329         -4.805475292925         -0.145051327233          0.000000022497
      0.1097000000D+01  0.1000000000D+01
 Atom C11      Shell   120 D   1     bf  330 -   334         -4.805475292925         -0.145051327233          0.000000022497
      0.3180000000D+00  0.1000000000D+01
 Atom C11      Shell   121 F   1     bf  335 -   341         -4.805475292925         -0.145051327233          0.000000022497
      0.7610000000D+00  0.1000000000D+01
 Atom C12      Shell   122 S   6     bf  342 -   342         -7.560263260542         -0.837407245735          0.000000022497
      0.1357534968D+05  0.6064550360D-03
      0.2035233368D+04  0.4697908888D-02
      0.4632256236D+03  0.2433247765D-01
      0.1312001960D+03  0.9739996831D-01
      0.4285301589D+02  0.3019558425D+00
      0.1558418577D+02  0.6623360914D+00
 Atom C12      Shell   123 S   2     bf  343 -   343         -7.560263260542         -0.837407245735          0.000000022497
      0.6206713851D+01  0.6559530854D+00
      0.2576489653D+01  0.3758563329D+00
 Atom C12      Shell   124 S   1     bf  344 -   344         -7.560263260542         -0.837407245735          0.000000022497
      0.5769633942D+00  0.1000000000D+01
 Atom C12      Shell   125 S   1     bf  345 -   345         -7.560263260542         -0.837407245735          0.000000022497
      0.2297283136D+00  0.1000000000D+01
 Atom C12      Shell   126 S   1     bf  346 -   346         -7.560263260542         -0.837407245735          0.000000022497
      0.9516444003D-01  0.1000000000D+01
 Atom C12      Shell   127 P   4     bf  347 -   349         -7.560263260542         -0.837407245735          0.000000022497
      0.3469723224D+02  0.1132722000D-01
      0.7958262283D+01  0.7616965920D-01
      0.2378082688D+01  0.3019225220D+00
      0.8143320818D+00  0.7278502735D+00
 Atom C12      Shell   128 P   1     bf  350 -   352         -7.560263260542         -0.837407245735          0.000000022497
      0.2888754725D+00  0.1000000000D+01
 Atom C12      Shell   129 P   1     bf  353 -   355         -7.560263260542         -0.837407245735          0.000000022497
      0.1005682367D+00  0.1000000000D+01
 Atom C12      Shell   130 D   1     bf  356 -   360         -7.560263260542         -0.837407245735          0.000000022497
      0.1097000000D+01  0.1000000000D+01
 Atom C12      Shell   131 D   1     bf  361 -   365         -7.560263260542         -0.837407245735          0.000000022497
      0.3180000000D+00  0.1000000000D+01
 Atom C12      Shell   132 F   1     bf  366 -   372         -7.560263260542         -0.837407245735          0.000000022497
      0.7610000000D+00  0.1000000000D+01
 Atom H13      Shell   133 S   3     bf  373 -   373          8.519830271472          0.071418437843          1.661010711793
      0.3406134100D+02  0.2543930721D-01
      0.5123574600D+01  0.1900859489D+00
      0.1164662600D+01  0.8524411301D+00
 Atom H13      Shell   134 S   1     bf  374 -   374          8.519830271472          0.071418437843          1.661010711793
      0.3272304100D+00  0.1000000000D+01
 Atom H13      Shell   135 S   1     bf  375 -   375          8.519830271472          0.071418437843          1.661010711793
      0.1030724100D+00  0.1000000000D+01
 Atom H13      Shell   136 P   1     bf  376 -   378          8.519830271472          0.071418437843          1.661010711793
      0.8000000000D+00  0.1000000000D+01
 Atom H14      Shell   137 S   3     bf  379 -   379          8.519824602294          0.071437335104         -1.661023894883
      0.3406134100D+02  0.2543930721D-01
      0.5123574600D+01  0.1900859489D+00
      0.1164662600D+01  0.8524411301D+00
 Atom H14      Shell   138 S   1     bf  380 -   380          8.519824602294          0.071437335104         -1.661023894883
      0.3272304100D+00  0.1000000000D+01
 Atom H14      Shell   139 S   1     bf  381 -   381          8.519824602294          0.071437335104         -1.661023894883
      0.1030724100D+00  0.1000000000D+01
 Atom H14      Shell   140 P   1     bf  382 -   384          8.519824602294          0.071437335104         -1.661023894883
      0.8000000000D+00  0.1000000000D+01
 Atom H15      Shell   141 S   3     bf  385 -   385          7.820102532355          2.880335720950          0.000011360854
      0.3406134100D+02  0.2543930721D-01
      0.5123574600D+01  0.1900859489D+00
      0.1164662600D+01  0.8524411301D+00
 Atom H15      Shell   142 S   1     bf  386 -   386          7.820102532355          2.880335720950          0.000011360854
      0.3272304100D+00  0.1000000000D+01
 Atom H15      Shell   143 S   1     bf  387 -   387          7.820102532355          2.880335720950          0.000011360854
      0.1030724100D+00  0.1000000000D+01
 Atom H15      Shell   144 P   1     bf  388 -   390          7.820102532355          2.880335720950          0.000011360854
      0.8000000000D+00  0.1000000000D+01
 Atom H16      Shell   145 S   3     bf  391 -   391          3.448402557695          3.936301538983          0.000000022497
      0.3406134100D+02  0.2543930721D-01
      0.5123574600D+01  0.1900859489D+00
      0.1164662600D+01  0.8524411301D+00
 Atom H16      Shell   146 S   1     bf  392 -   392          3.448402557695          3.936301538983          0.000000022497
      0.3272304100D+00  0.1000000000D+01
 Atom H16      Shell   147 S   1     bf  393 -   393          3.448402557695          3.936301538983          0.000000022497
      0.1030724100D+00  0.1000000000D+01
 Atom H16      Shell   148 P   1     bf  394 -   396          3.448402557695          3.936301538983          0.000000022497
      0.8000000000D+00  0.1000000000D+01
 Atom H17      Shell   149 S   3     bf  397 -   397          5.544057668126         -3.871003753091          0.000001912223
      0.3406134100D+02  0.2543930721D-01
      0.5123574600D+01  0.1900859489D+00
      0.1164662600D+01  0.8524411301D+00
 Atom H17      Shell   150 S   1     bf  398 -   398          5.544057668126         -3.871003753091          0.000001912223
      0.3272304100D+00  0.1000000000D+01
 Atom H17      Shell   151 S   1     bf  399 -   399          5.544057668126         -3.871003753091          0.000001912223
      0.1030724100D+00  0.1000000000D+01
 Atom H17      Shell   152 P   1     bf  400 -   402          5.544057668126         -3.871003753091          0.000001912223
      0.8000000000D+00  0.1000000000D+01
 Atom H18      Shell   153 S   3     bf  403 -   403          1.080700263110         -5.116860423453          0.000000022497
      0.3406134100D+02  0.2543930721D-01
      0.5123574600D+01  0.1900859489D+00
      0.1164662600D+01  0.8524411301D+00
 Atom H18      Shell   154 S   1     bf  404 -   404          1.080700263110         -5.116860423453          0.000000022497
      0.3272304100D+00  0.1000000000D+01
 Atom H18      Shell   155 S   1     bf  405 -   405          1.080700263110         -5.116860423453          0.000000022497
      0.1030724100D+00  0.1000000000D+01
 Atom H18      Shell   156 P   1     bf  406 -   408          1.080700263110         -5.116860423453          0.000000022497
      0.8000000000D+00  0.1000000000D+01
 Atom H19      Shell   157 S   3     bf  409 -   409         -1.080700263110          5.116860783400          0.000000022497
      0.3406134100D+02  0.2543930721D-01
      0.5123574600D+01  0.1900859489D+00
      0.1164662600D+01  0.8524411301D+00
 Atom H19      Shell   158 S   1     bf  410 -   410         -1.080700263110          5.116860783400          0.000000022497
      0.3272304100D+00  0.1000000000D+01
 Atom H19      Shell   159 S   1     bf  411 -   411         -1.080700263110          5.116860783400          0.000000022497
      0.1030724100D+00  0.1000000000D+01
 Atom H19      Shell   160 P   1     bf  412 -   414         -1.080700263110          5.116860783400          0.000000022497
      0.8000000000D+00  0.1000000000D+01
 Atom H20      Shell   161 S   3     bf  415 -   415         -3.448402557695         -3.936301179036         -0.000001867229
      0.3406134100D+02  0.2543930721D-01
      0.5123574600D+01  0.1900859489D+00
      0.1164662600D+01  0.8524411301D+00
 Atom H20      Shell   162 S   1     bf  416 -   416         -3.448402557695         -3.936301179036         -0.000001867229
      0.3272304100D+00  0.1000000000D+01
 Atom H20      Shell   163 S   1     bf  417 -   417         -3.448402557695         -3.936301179036         -0.000001867229
      0.1030724100D+00  0.1000000000D+01
 Atom H20      Shell   164 P   1     bf  418 -   420         -3.448402557695         -3.936301179036         -0.000001867229
      0.8000000000D+00  0.1000000000D+01
 Atom H21      Shell   165 S   3     bf  421 -   421         -5.544057668126          3.871004113039         -0.000001867229
      0.3406134100D+02  0.2543930721D-01
      0.5123574600D+01  0.1900859489D+00
      0.1164662600D+01  0.8524411301D+00
 Atom H21      Shell   166 S   1     bf  422 -   422         -5.544057668126          3.871004113039         -0.000001867229
      0.3272304100D+00  0.1000000000D+01
 Atom H21      Shell   167 S   1     bf  423 -   423         -5.544057668126          3.871004113039         -0.000001867229
      0.1030724100D+00  0.1000000000D+01
 Atom H21      Shell   168 P   1     bf  424 -   426         -5.544057668126          3.871004113039         -0.000001867229
      0.8000000000D+00  0.1000000000D+01
 Atom H22      Shell   169 S   3     bf  427 -   427         -8.519824602294         -0.071440754609          1.661023939876
      0.3406134100D+02  0.2543930721D-01
      0.5123574600D+01  0.1900859489D+00
      0.1164662600D+01  0.8524411301D+00
 Atom H22      Shell   170 S   1     bf  428 -   428         -8.519824602294         -0.071440754609          1.661023939876
      0.3272304100D+00  0.1000000000D+01
 Atom H22      Shell   171 S   1     bf  429 -   429         -8.519824602294         -0.071440754609          1.661023939876
      0.1030724100D+00  0.1000000000D+01
 Atom H22      Shell   172 P   1     bf  430 -   432         -8.519824602294         -0.071440754609          1.661023939876
      0.8000000000D+00  0.1000000000D+01
 Atom H23      Shell   173 S   3     bf  433 -   433         -8.519832161198         -0.071418077895         -1.661008777073
      0.3406134100D+02  0.2543930721D-01
      0.5123574600D+01  0.1900859489D+00
      0.1164662600D+01  0.8524411301D+00
 Atom H23      Shell   174 S   1     bf  434 -   434         -8.519832161198         -0.071418077895         -1.661008777073
      0.3272304100D+00  0.1000000000D+01
 Atom H23      Shell   175 S   1     bf  435 -   435         -8.519832161198         -0.071418077895         -1.661008777073
      0.1030724100D+00  0.1000000000D+01
 Atom H23      Shell   176 P   1     bf  436 -   438         -8.519832161198         -0.071418077895         -1.661008777073
      0.8000000000D+00  0.1000000000D+01
 Atom H24      Shell   177 S   3     bf  439 -   439         -7.820100642628         -2.880335361003         -0.000013205586
      0.3406134100D+02  0.2543930721D-01
      0.5123574600D+01  0.1900859489D+00
      0.1164662600D+01  0.8524411301D+00
 Atom H24      Shell   178 S   1     bf  440 -   440         -7.820100642628         -2.880335361003         -0.000013205586
      0.3272304100D+00  0.1000000000D+01
 Atom H24      Shell   179 S   1     bf  441 -   441         -7.820100642628         -2.880335361003         -0.000013205586
      0.1030724100D+00  0.1000000000D+01
 Atom H24      Shell   180 P   1     bf  442 -   444         -7.820100642628         -2.880335361003         -0.000013205586
      0.8000000000D+00  0.1000000000D+01
 There are   504 symmetry adapted cartesian basis functions of A   symmetry.
 There are   444 symmetry adapted basis functions of A   symmetry.
   444 basis functions,   708 primitive gaussians,   504 cartesian basis functions
    42 alpha electrons       42 beta electrons
       nuclear repulsion energy       630.1834005193 Hartrees.
 IExCor= 4639 DFT=T Ex+Corr=wB97XD ExCW=0 ScaHFX=  1.000000
 ScaDFX=  1.000000  1.000000  1.000000  1.000000 ScalE2=  1.000000  1.000000
 IRadAn=      5 IRanWt=     -1 IRanGd=            0 ICorTp=0 IEmpDi=121
  HFx wShort=  0.000000 wLong=  0.200000 cFull=  0.222036 cShort=  0.000000 cLong=  0.777964
  DFx wShort=  0.000000 wLong=  0.200000 cFull=  0.000000 cShort=  0.000000 cLong=  1.000000
 NAtoms=   24 NActive=   24 NUniq=   24 SFac= 1.00D+00 NAtFMM=   60 NAOKFM=F Big=F
 Integral buffers will be    131072 words long.
 Raffenetti 2 integral format.
 Two-electron integral symmetry is turned on.
 R6Disp:  Grimme-D2 Dispersion energy=       -0.0137593338 Hartrees.
 Nuclear repulsion after empirical dispersion term =      630.1696411855 Hartrees.
 Leave Link  301 at Fri Jul  9 19:19:36 2021, MaxMem=  4194304000 cpu:         0.9
 (Enter /home/minenky/programs//g09/l302.exe)
 NPDir=0 NMtPBC=     1 NCelOv=     1 NCel=       1 NClECP=     1 NCelD=      1
         NCelK=      1 NCelE2=     1 NClLst=     1 CellRange=     0.0.
 One-electron integrals computed using PRISM.
   1 Symmetry operations used in ECPInt.
 ECPInt:  NShTT=   16290 NPrTT=   49128 LenC2=   15271 LenP2D=   35265.
 LDataN:  DoStor=T MaxTD1= 6 Len=  172
 NBasis=   444 RedAO= T EigKep=  5.58D-06  NBF=   444
 NBsUse=   444 1.00D-06 EigRej= -1.00D+00 NBFU=   444
 Precomputing XC quadrature grid using
 IXCGrd= 4 IRadAn=           5 IRanWt=          -1 IRanGd=           0 AccXCQ= 0.00D+00.
 Generated NRdTot=       0 NPtTot=           0 NUsed=           0 NTot=          32
 NSgBfM=   500   500   500   500   500 MxSgAt=    24 MxSgA2=    24.
 Leave Link  302 at Fri Jul  9 19:19:37 2021, MaxMem=  4194304000 cpu:        11.5
 (Enter /home/minenky/programs//g09/l303.exe)
 DipDrv:  MaxL=1.
 Leave Link  303 at Fri Jul  9 19:19:37 2021, MaxMem=  4194304000 cpu:         0.6
 (Enter /home/minenky/programs//g09/l401.exe)
 ExpMin= 9.52D-02 ExpMax= 1.36D+04 ExpMxC= 4.63D+02 IAcc=3 IRadAn=         5 AccDes= 0.00D+00
 Harris functional with IExCor= 4639 and IRadAn=       5 diagonalized for initial guess.
 HarFok:  IExCor= 4639 AccDes= 0.00D+00 IRadAn=         5 IDoV= 1 UseB2=F ITyADJ=14
 ICtDFT=  3500011 ScaDFX=  1.000000  1.000000  1.000000  1.000000
 FoFCou: FMM=F IPFlag=           0 FMFlag=      100000 FMFlg1=           0
         NFxFlg=           0 DoJE=T BraDBF=F KetDBF=T FulRan=T
         wScrn=  0.000000 ICntrl=     500 IOpCl=  0 I1Cent=   200000004 NGrid=           0
         NMat0=    1 NMatS0=      1 NMatT0=    0 NMatD0=    1 NMtDS0=    0 NMtDT0=    0
 Petite list used in FoFCou.
 Harris En= -442.920471362474    
 JPrj=0 DoOrth=F DoCkMO=F.
 Leave Link  401 at Fri Jul  9 19:19:42 2021, MaxMem=  4194304000 cpu:        76.4
 (Enter /home/minenky/programs//g09/l502.exe)
 Closed shell SCF:
 Using DIIS extrapolation, IDIIS=  1040.
 Integral symmetry usage will be decided dynamically.
 IVT=      921634 IEndB=      921634 NGot=  4194304000 MDV=  4193782047
 LenX=  4193782047 LenY=  4193527527
 Requested convergence on RMS density matrix=1.00D-08 within 380 cycles.
 Requested convergence on MAX density matrix=1.00D-06.
 Requested convergence on             energy=1.00D-06.
 No special actions if energy rises.
 Fock matrices will be formed incrementally for  20 cycles.
 Integral accuracy reduced to 1.0D-05 until final iterations.

 Cycle   1  Pass 0  IDiag  1:
 FoFJK:  IHMeth= 1 ICntrl=       0 DoSepK=T KAlg= 0 I1Cent=   0 FoldK=F
 IRaf=         1 NMat=   1 IRICut=       1 DoRegI=T DoRafI=F ISym2E= 0.
 FoFCou: FMM=F IPFlag=           0 FMFlag=      100000 FMFlg1=           0
         NFxFlg=           0 DoJE=T BraDBF=F KetDBF=F FulRan=T
         wScrn=  0.000000 ICntrl=     500 IOpCl=  0 I1Cent=           0 NGrid=           0
         NMat0=    1 NMatS0=      1 NMatT0=    0 NMatD0=    1 NMtDS0=    0 NMtDT0=    0
 Symmetry not used in FoFCou.
 E= -464.403061876251    
 DIIS: error= 4.72D-02 at cycle   1 NSaved=   1.
 NSaved= 1 IEnMin= 1 EnMin= -464.403061876251     IErMin= 1 ErrMin= 4.72D-02
 ErrMax= 4.72D-02  0.00D+00 EMaxC= 1.00D-01 BMatC= 9.92D-01 BMatP= 9.92D-01
 IDIUse=3 WtCom= 5.28D-01 WtEn= 4.72D-01
 Coeff-Com:  0.100D+01
 Coeff-En:   0.100D+01
 Coeff:      0.100D+01
 Gap=     0.308 Goal=   None    Shift=    0.000
 GapD=    0.308 DampG=1.000 DampE=0.500 DampFc=0.5000 IDamp=-1.
 Damping current iteration by 5.00D-01
 RMSDP=1.82D-03 MaxDP=8.76D-02              OVMax= 4.73D-02

 Cycle   2  Pass 0  IDiag  1:
 RMSU=  8.35D-04    CP:  9.53D-01
 E= -464.466423638755     Delta-E=       -0.063361762504 Rises=F Damp=T
 DIIS: error= 2.40D-02 at cycle   2 NSaved=   2.
 NSaved= 2 IEnMin= 2 EnMin= -464.466423638755     IErMin= 2 ErrMin= 2.40D-02
 ErrMax= 2.40D-02  0.00D+00 EMaxC= 1.00D-01 BMatC= 2.23D-01 BMatP= 9.92D-01
 IDIUse=3 WtCom= 7.60D-01 WtEn= 2.40D-01
 Coeff-Com: -0.868D+00 0.187D+01
 Coeff-En:   0.000D+00 0.100D+01
 Coeff:     -0.659D+00 0.166D+01
 Gap=     0.309 Goal=   None    Shift=    0.000
 RMSDP=1.04D-03 MaxDP=4.95D-02 DE=-6.34D-02 OVMax= 2.36D-02

 Cycle   3  Pass 0  IDiag  1:
 RMSU=  5.95D-04    CP:  9.14D-01  1.95D+00
 E= -464.524352073090     Delta-E=       -0.057928434335 Rises=F Damp=F
 DIIS: error= 3.33D-03 at cycle   3 NSaved=   3.
 NSaved= 3 IEnMin= 3 EnMin= -464.524352073090     IErMin= 3 ErrMin= 3.33D-03
 ErrMax= 3.33D-03  0.00D+00 EMaxC= 1.00D-01 BMatC= 2.45D-03 BMatP= 2.23D-01
 IDIUse=3 WtCom= 9.67D-01 WtEn= 3.33D-02
 Coeff-Com: -0.275D+00 0.593D+00 0.682D+00
 Coeff-En:   0.000D+00 0.000D+00 0.100D+01
 Coeff:     -0.266D+00 0.573D+00 0.693D+00
 Gap=     0.309 Goal=   None    Shift=    0.000
 RMSDP=1.54D-04 MaxDP=4.38D-03 DE=-5.79D-02 OVMax= 7.61D-03

 Cycle   4  Pass 0  IDiag  1:
 RMSU=  1.43D-04    CP:  9.12D-01  1.99D+00  1.07D+00
 E= -464.526459922411     Delta-E=       -0.002107849320 Rises=F Damp=F
 DIIS: error= 3.62D-04 at cycle   4 NSaved=   4.
 NSaved= 4 IEnMin= 4 EnMin= -464.526459922411     IErMin= 4 ErrMin= 3.62D-04
 ErrMax= 3.62D-04  0.00D+00 EMaxC= 1.00D-01 BMatC= 1.77D-05 BMatP= 2.45D-03
 IDIUse=3 WtCom= 9.96D-01 WtEn= 3.62D-03
 Coeff-Com:  0.253D-01-0.540D-01-0.286D-02 0.103D+01
 Coeff-En:   0.000D+00 0.000D+00 0.000D+00 0.100D+01
 Coeff:      0.252D-01-0.538D-01-0.285D-02 0.103D+01
 Gap=     0.309 Goal=   None    Shift=    0.000
 RMSDP=1.04D-04 MaxDP=2.94D-03 DE=-2.11D-03 OVMax= 2.08D-03

 Cycle   5  Pass 0  IDiag  1:
 RMSU=  8.28D-05    CP:  9.10D-01  2.02D+00  1.07D+00  1.39D+00
 E= -464.526483648186     Delta-E=       -0.000023725776 Rises=F Damp=F
 DIIS: error= 1.30D-04 at cycle   5 NSaved=   5.
 NSaved= 5 IEnMin= 5 EnMin= -464.526483648186     IErMin= 5 ErrMin= 1.30D-04
 ErrMax= 1.30D-04  0.00D+00 EMaxC= 1.00D-01 BMatC= 4.71D-06 BMatP= 1.77D-05
 IDIUse=3 WtCom= 9.99D-01 WtEn= 1.30D-03
 Coeff-Com:  0.249D-01-0.537D-01-0.374D-01 0.423D+00 0.643D+00
 Coeff-En:   0.000D+00 0.000D+00 0.000D+00 0.000D+00 0.100D+01
 Coeff:      0.249D-01-0.536D-01-0.374D-01 0.422D+00 0.644D+00
 Gap=     0.309 Goal=   None    Shift=    0.000
 RMSDP=4.39D-05 MaxDP=1.20D-03 DE=-2.37D-05 OVMax= 9.28D-04

 Cycle   6  Pass 0  IDiag  1:
 RMSU=  2.13D-05    CP:  9.10D-01  2.03D+00  1.08D+00  1.59D+00  1.27D+00
 E= -464.526490361852     Delta-E=       -0.000006713666 Rises=F Damp=F
 DIIS: error= 8.55D-05 at cycle   6 NSaved=   6.
 NSaved= 6 IEnMin= 6 EnMin= -464.526490361852     IErMin= 6 ErrMin= 8.55D-05
 ErrMax= 8.55D-05  0.00D+00 EMaxC= 1.00D-01 BMatC= 2.23D-07 BMatP= 4.71D-06
 IDIUse=1 WtCom= 1.00D+00 WtEn= 0.00D+00
 Coeff-Com:  0.137D-02-0.293D-02-0.488D-02-0.362D-01 0.834D-01 0.959D+00
 Coeff:      0.137D-02-0.293D-02-0.488D-02-0.362D-01 0.834D-01 0.959D+00
 Gap=     0.309 Goal=   None    Shift=    0.000
 RMSDP=4.00D-05 MaxDP=1.14D-03 DE=-6.71D-06 OVMax= 5.75D-04

 Cycle   7  Pass 0  IDiag  1:
 RMSU=  1.19D-05    CP:  9.09D-01  2.04D+00  1.08D+00  1.75D+00  1.57D+00
                    CP:  1.76D+00
 E= -464.526491170406     Delta-E=       -0.000000808554 Rises=F Damp=F
 DIIS: error= 3.30D-05 at cycle   7 NSaved=   7.
 NSaved= 7 IEnMin= 7 EnMin= -464.526491170406     IErMin= 7 ErrMin= 3.30D-05
 ErrMax= 3.30D-05  0.00D+00 EMaxC= 1.00D-01 BMatC= 1.02D-07 BMatP= 2.23D-07
 IDIUse=1 WtCom= 1.00D+00 WtEn= 0.00D+00
 Coeff-Com: -0.313D-02 0.675D-02 0.331D-02-0.843D-01-0.527D-01 0.486D+00
 Coeff-Com:  0.644D+00
 Coeff:     -0.313D-02 0.675D-02 0.331D-02-0.843D-01-0.527D-01 0.486D+00
 Coeff:      0.644D+00
 Gap=     0.309 Goal=   None    Shift=    0.000
 RMSDP=1.93D-05 MaxDP=5.76D-04 DE=-8.09D-07 OVMax= 2.50D-04

 Cycle   8  Pass 0  IDiag  1:
 RMSU=  6.30D-06    CP:  9.09D-01  2.04D+00  1.09D+00  1.82D+00  1.65D+00
                    CP:  2.13D+00  1.84D+00
 E= -464.526490939402     Delta-E=        0.000000231005 Rises=F Damp=F
 DIIS: error= 1.19D-05 at cycle   8 NSaved=   8.
 NSaved= 8 IEnMin= 7 EnMin= -464.526491170406     IErMin= 8 ErrMin= 1.19D-05
 ErrMax= 1.19D-05  0.00D+00 EMaxC= 1.00D-01 BMatC= 1.29D-08 BMatP= 1.02D-07
 IDIUse=1 WtCom= 1.00D+00 WtEn= 0.00D+00
 Coeff-Com: -0.663D-03 0.142D-02 0.117D-02-0.856D-02-0.147D-01-0.348D-01
 Coeff-Com:  0.115D+00 0.941D+00
 Coeff:     -0.663D-03 0.142D-02 0.117D-02-0.856D-02-0.147D-01-0.348D-01
 Coeff:      0.115D+00 0.941D+00
 Gap=     0.309 Goal=   None    Shift=    0.000
 RMSDP=2.50D-05 MaxDP=9.57D-04 DE= 2.31D-07 OVMax= 9.09D-05

 Cycle   9  Pass 0  IDiag  1:
 RMSU=  8.18D-06    CP:  9.10D-01  2.04D+00  1.10D+00  1.88D+00  1.65D+00
                    CP:  2.45D+00  3.00D+00  3.00D+00
 E= -464.526489379515     Delta-E=        0.000001559887 Rises=F Damp=F
 DIIS: error= 1.30D-05 at cycle   9 NSaved=   9.
 NSaved= 9 IEnMin= 7 EnMin= -464.526491170406     IErMin= 8 ErrMin= 1.19D-05
 ErrMax= 1.30D-05  0.00D+00 EMaxC= 1.00D-01 BMatC= 1.59D-08 BMatP= 1.29D-08
 IDIUse=1 WtCom= 1.00D+00 WtEn= 0.00D+00
 Coeff-Com: -0.582D-03 0.125D-02 0.102D-02-0.775D-02-0.127D-01-0.276D-01
 Coeff-Com:  0.102D+00 0.821D+00 0.123D+00
 Coeff:     -0.582D-03 0.125D-02 0.102D-02-0.775D-02-0.127D-01-0.276D-01
 Coeff:      0.102D+00 0.821D+00 0.123D+00
 Gap=     0.309 Goal=   None    Shift=    0.000
 RMSDP=5.13D-06 MaxDP=2.47D-04 DE= 1.56D-06 OVMax= 2.88D-06

 Initial convergence to 1.0D-05 achieved.  Increase integral accuracy.
 Cycle  10  Pass 1  IDiag  1:
 E= -464.526457637058     Delta-E=        0.000031742456 Rises=F Damp=F
 DIIS: error= 3.87D-04 at cycle   1 NSaved=   1.
 NSaved= 1 IEnMin= 1 EnMin= -464.526457637058     IErMin= 1 ErrMin= 3.87D-04
 ErrMax= 3.87D-04  0.00D+00 EMaxC= 1.00D-01 BMatC= 1.71D-05 BMatP= 1.71D-05
 IDIUse=3 WtCom= 9.96D-01 WtEn= 3.87D-03
 Coeff-Com:  0.100D+01
 Coeff-En:   0.100D+01
 Coeff:      0.100D+01
 Gap=     0.309 Goal=   None    Shift=    0.000
 RMSDP=5.13D-06 MaxDP=2.47D-04 DE= 3.17D-05 OVMax= 5.30D-04

 Cycle  11  Pass 1  IDiag  1:
 RMSU=  9.39D-04    CP:  9.79D-01
 E= -464.526465459112     Delta-E=       -0.000007822054 Rises=F Damp=F
 DIIS: error= 2.09D-05 at cycle   2 NSaved=   2.
 NSaved= 2 IEnMin= 2 EnMin= -464.526465459112     IErMin= 2 ErrMin= 2.09D-05
 ErrMax= 2.09D-05  0.00D+00 EMaxC= 1.00D-01 BMatC= 2.23D-08 BMatP= 1.71D-05
 IDIUse=1 WtCom= 1.00D+00 WtEn= 0.00D+00
 Coeff-Com: -0.253D-01 0.103D+01
 Coeff:     -0.253D-01 0.103D+01
 Gap=     0.309 Goal=   None    Shift=    0.000
 RMSDP=6.17D-05 MaxDP=1.77D-03 DE=-7.82D-06 OVMax= 5.10D-05

 Cycle  12  Pass 1  IDiag  1:
 RMSU=  2.32D-05    CP:  9.79D-01  1.06D+00
 E= -464.526465487008     Delta-E=       -0.000000027896 Rises=F Damp=F
 DIIS: error= 2.13D-06 at cycle   3 NSaved=   3.
 NSaved= 3 IEnMin= 3 EnMin= -464.526465487008     IErMin= 3 ErrMin= 2.13D-06
 ErrMax= 2.13D-06  0.00D+00 EMaxC= 1.00D-01 BMatC= 7.62D-10 BMatP= 2.23D-08
 IDIUse=1 WtCom= 1.00D+00 WtEn= 0.00D+00
 Coeff-Com: -0.140D-02 0.302D-01 0.971D+00
 Coeff:     -0.140D-02 0.302D-01 0.971D+00
 Gap=     0.309 Goal=   None    Shift=    0.000
 RMSDP=3.42D-06 MaxDP=1.06D-04 DE=-2.79D-08 OVMax= 1.40D-05

 Cycle  13  Pass 1  IDiag  1:
 RMSU=  6.65D-07    CP:  9.79D-01  1.06D+00  1.08D+00
 E= -464.526465487369     Delta-E=       -0.000000000361 Rises=F Damp=F
 DIIS: error= 1.71D-06 at cycle   4 NSaved=   4.
 NSaved= 4 IEnMin= 4 EnMin= -464.526465487369     IErMin= 4 ErrMin= 1.71D-06
 ErrMax= 1.71D-06  0.00D+00 EMaxC= 1.00D-01 BMatC= 6.27D-10 BMatP= 7.62D-10
 IDIUse=1 WtCom= 1.00D+00 WtEn= 0.00D+00
 Coeff-Com:  0.877D-03-0.491D-01 0.491D+00 0.557D+00
 Coeff:      0.877D-03-0.491D-01 0.491D+00 0.557D+00
 Gap=     0.309 Goal=   None    Shift=    0.000
 RMSDP=4.47D-07 MaxDP=1.42D-05 DE=-3.61D-10 OVMax= 8.44D-06

[...]
 4735,0.00155001,-0.00022896,-0.00005706,0.00053159,0.00002807,0.000057
 28,-0.00122815,0.00003655,-0.00003838,0.00071683,0.00057363,-0.0001115
 3,-0.00029799,-0.00015053,0.00005871,-0.00043742,-0.00001122,0.0001066
 3,0.00020924,-0.00033266,-0.00002945,0.00015530,0.00033584,0.00001250,
 0.00001695,0.00002201,-0.00002184,0.04805483,0.08753518,-0.00130265,-0
 .00139899,0.00292261,0.09745003,0.08175724,-0.21982116,-0.00025496,-0.
 00036716,-0.00010699,-0.00012936,0.00060016,0.00083991,-0.00033527,0.0
 0001418,-0.00027284,0.00046092,-0.00018709,0.00014974,-0.00031794,-0.0
 0019187,-0.00002501,0.00011973,0.00001060,0.00000353,0.00019496,0.0000
 3719,-0.00003109,-0.00009057,0.00006319,0.00001412,-0.00005935,-0.0001
 5876,-0.00000422,0.00000312,0.00001209,0.00001124,-0.10634975,-0.08973
 882,0.23687412,-0.01776006,-0.01306982,-0.02577747,-0.09793708,-0.0439
 8468,-0.09818118,-0.00275132,0.00255251,-0.00013016,0.00122117,-0.0014
 6168,0.00069378,-0.00043970,-0.00061037,0.00193572,-0.00056438,-0.0001
 5008,0.00076351,0.00012757,0.00004396,-0.00018367,-0.00021931,0.000233
 98,0.00008492,-0.00015377,-0.00007291,-0.00011080,-0.00001803,0.000029
 19,-0.00014698,0.00001497,0.00011709,0.00003200,-0.00002174,-0.0000425
 9,0.00000088,0.00678733,0.00644966,0.01194414,0.11031262,0.00295872,0.
 00356726,0.00773609,-0.04339064,-0.08544068,-0.08132842,-0.00076457,-0
 .00040641,0.00004736,0.00155001,-0.00022897,0.00005705,0.00053160,0.00
 002807,-0.00005728,-0.00122816,0.00003655,0.00003837,0.00071683,0.0005
 7363,0.00011153,-0.00029799,-0.00015053,-0.00005871,-0.00043743,-0.000
 01122,-0.00010662,0.00020924,-0.00033266,0.00002945,0.00015530,0.00033
 584,-0.00001250,0.00001695,0.00002201,0.00002184,0.00644973,0.00480778
 ,0.01085644,0.04805376,0.08753371,0.00130260,0.00139897,0.00292264,-0.
 09745004,-0.08175626,-0.21982292,0.00025497,0.00036716,-0.00010699,0.0
 0012936,-0.00060016,0.00083991,0.00033526,-0.00001417,-0.00027284,-0.0
 0046092,0.00018709,0.00014975,0.00031794,0.00019186,-0.00002501,-0.000
 11973,-0.00001060,0.00000353,-0.00019496,-0.00003719,-0.00003109,0.000
 09057,-0.00006319,0.00001412,0.00005935,0.00015876,-0.00000422,-0.0000
 0312,-0.00001209,0.00001124,-0.01194402,-0.01085622,-0.02142048,0.1063
 4982,0.08973772,0.23687606,-0.00327520,0.03353298,0.00000012,-0.051713
 06,0.02876793,0.00000013,0.00200310,0.00175257,0.,-0.00661597,0.000065
 25,0.,-0.00017198,-0.00019595,0.,0.00039136,0.00169708,0.,0.00001518,-
 0.00011654,0.,0.00022029,0.00005994,0.,0.00013459,-0.00010187,0.,-0.00
 011736,0.00016406,0.,-0.00006246,-0.00015610,0.,-0.00001312,-0.0000198
 4,0.,0.00129487,-0.01451065,-0.00153694,0.00129486,-0.01451059,0.00153
 682,0.05765073,-0.00043112,-0.00729359,-0.00000001,0.03322281,-0.31532
 762,-0.00000102,-0.00225439,0.00093299,0.,0.00198525,0.00042536,0.,0.0
 0034737,0.00031415,0.,-0.00050185,-0.00036390,0.,0.00007051,0.00019851
 ,0.,-0.00007985,-0.00013298,0.,-0.00008307,0.00012000,0.,0.00013049,-0
 .00007371,0.,0.00002539,0.00010750,0.,0.00001046,0.00002191,0.,0.00127
 396,-0.01029090,-0.00088721,0.00127393,-0.01029070,0.00088712,-0.03550
 540,0.34066818,-0.00000002,0.00000003,-0.00158570,0.00000015,-0.000001
 03,-0.04735350,0.,0.,-0.00011126,0.,0.,0.00147640,0.,0.,-0.00018492,0.
 ,0.,0.00039979,0.,0.,-0.00000103,0.,0.,-0.00007720,0.,0.,-0.00000012,0
 .,0.,0.00001203,0.,0.,0.00000416,0.,0.,0.00000199,-0.00404754,0.026583
 53,0.00109925,0.00404754,-0.02658366,0.00109905,-0.00000013,0.00000112
 ,0.04530838,0.00818512,-0.02152882,0.,0.00141374,-0.00192084,0.,-0.075
 70287,0.06645268,0.00000003,-0.00299944,-0.00329175,0.,-0.00339584,0.0
 2997120,0.,-0.00098364,-0.00038917,0.,-0.00540100,0.00000928,0.,0.0014
 0715,0.00172527,0.,0.00014998,0.00152947,0.,0.00014395,-0.00041985,0.,
 0.00015597,0.00017102,0.,-0.00003863,-0.00010484,0.,-0.00002395,0.0001
 1123,-0.00004906,-0.00002395,0.00011123,0.00004906,-0.00054840,0.00042
 747,0.,0.07811223,0.00867268,-0.01867544,0.,0.00154026,0.00068221,0.,0
 .06513443,-0.31670128,-0.00000010,-0.00407076,-0.00116166,0.,0.0000434
 0,-0.00582859,0.,-0.00046496,0.00051045,0.,0.00144475,0.00158758,0.,-0
 .00170114,0.00097826,0.,-0.00057501,-0.00046504,0.,0.00050209,-0.00010
 313,0.,-0.00000460,0.00043001,0.,0.00002649,0.00006959,0.,-0.00000744,
 0.00026978,-0.00004174,-0.00000744,0.00026977,0.00004174,-0.00109892,0
 .00063250,0.,-0.07081342,0.33841272,0.00000001,0.,0.00499368,0.,0.0000
 0001,-0.00557569,0.00000002,-0.00000010,-0.03657342,0.,0.,0.00763950,0
 .,0.,0.00291311,0.,0.,-0.00069999,0.,0.,0.00511191,0.,0.,-0.00293375,0
 .,0.,0.00011445,0.,0.,-0.00015583,0.,0.,-0.00009384,0.,0.,0.00003023,0
 .00083750,0.00029051,0.00010749,-0.00083751,-0.00029051,0.00010749,0.,
 0.,0.00031744,-0.00000003,0.00000011,0.02500244,0.00790840,0.00671136,
 0.,0.00087583,0.00057370,0.,0.00053589,0.00235849,0.,-0.19972989,-0.13
 788428,-0.00000001,-0.00042107,0.00054603,0.,-0.01722199,-0.02422815,0
 .,-0.00448790,0.00342827,0.,0.00035979,0.00000993,0.,-0.00010716,-0.00
 142345,0.,-0.00016903,0.00029243,0.,-0.00050511,-0.00001100,0.,-0.0000
 5927,-0.00013505,0.,0.00026736,-0.00013662,0.00017971,0.00026736,-0.00
 013662,-0.00017971,-0.00002013,-0.00011233,0.,0.00044232,0.00036764,0.
 ,0.21142183,-0.02401035,-0.01623476,0.,-0.00110092,0.00134999,0.,0.002
 98509,-0.00499029,0.,-0.13864185,-0.19698344,-0.00000002,0.00116810,-0
 .00001990,0.,0.00809021,0.00951882,0.,0.00255349,0.00046642,0.,-0.0003
 8231,-0.00003049,0.,-0.00013994,0.00027464,0.,0.00018425,-0.00017756,0
 .,0.00015569,0.00028074,0.,0.00002421,0.00001202,0.,0.00055907,-0.0002
 6078,-0.00035045,0.00055906,-0.00026078,0.00035045,0.00006658,0.000388
 99,0.,-0.00115027,-0.00103108,0.,0.14939014,0.20677070,0.,0.,0.0028097
 2,0.,0.,-0.00149920,0.,0.,0.00500489,-0.00000001,-0.00000002,-0.037029
 92,0.,0.,-0.00085723,0.,0.,0.00318739,0.,0.,0.00967968,0.,0.,-0.000779
 18,0.,0.,0.00018206,0.,0.,0.00011050,0.,0.,-0.00059973,0.,0.,-0.000041
 24,0.00045278,0.00017457,-0.00031580,-0.00045278,-0.00017456,-0.000315
 80,0.,0.,-0.00024826,0.,0.,0.00018693,0.00000001,0.00000002,0.02543053
 ,-0.00531893,0.00039924,0.,0.00021546,0.00140670,0.,-0.00110328,-0.000
 44435,0.,-0.00269113,0.03136428,0.,-0.00308292,-0.00260668,0.,-0.07653
 957,0.06582850,0.00000002,0.00917741,-0.02174263,0.,0.00034421,-0.0011
 1225,0.,0.00129201,-0.00146839,0.,0.00030317,-0.00025433,0.,0.00011582
 ,0.00058393,0.,0.00000593,0.00002597,0.,0.00000518,-0.00003817,0.00004
 344,0.00000518,-0.00003817,-0.00004344,-0.00045166,0.00016263,0.,0.000
 08500,0.00007877,0.,0.00079786,-0.00030406,0.,0.07754855,0.00140498,0.
 00181708,0.,-0.00016081,-0.00036587,0.,-0.00057677,0.00058306,0.,-0.00
 074798,-0.00456260,0.,-0.00398586,-0.00089304,0.,0.06649779,-0.3209280
 8,-0.00000007,0.00837320,-0.01758016,0.,0.00103590,-0.00078666,0.,0.00
 173085,0.00103753,0.,-0.00015471,0.00020545,0.,-0.00028601,-0.00000139
 ,0.,-0.00000517,-0.00003535,0.,0.00003204,-0.00000700,-0.00001190,0.00
 003204,-0.00000700,0.00001190,0.00013872,-0.00004278,0.,0.00007742,-0.
 00010294,0.,0.00036891,0.00088581,0.,-0.07231293,0.34063388,0.,0.,0.00
 931500,0.,0.,0.00006206,0.,0.,-0.00083535,0.,0.,0.00350524,0.,0.,0.005
 15454,0.00000002,-0.00000006,-0.03661092,0.,0.,0.00313097,0.,0.,-0.000
 02144,0.,0.,-0.00287305,0.,0.,-0.00009864,0.,0.,-0.00015482,0.,0.,0.00
 016941,0.00005485,0.00000913,-0.00001476,-0.00005485,-0.00000913,-0.00
 001476,0.,0.,-0.00017478,0.,0.,-0.00107746,0.,0.,-0.00518517,-0.000000
 02,0.00000007,0.02527234,0.00011582,0.00058393,0.,0.00000593,0.0000259
 7,0.,0.00129201,-0.00146839,0.,0.00030317,-0.00025433,0.,0.00917741,-0
 .02174263,0.,0.00034421,-0.00111225,0.,-0.00308292,-0.00260668,0.,-0.0
 7653957,0.06582850,0.00000002,-0.00110328,-0.00044435,0.,-0.00269113,0
 .03136428,0.,-0.00531893,0.00039924,0.,0.00021546,0.00140670,0.,0.0000
 2097,0.00000092,-0.00000608,0.00002097,0.00000092,0.00000608,-0.000032
 02,0.00000845,0.,-0.00043898,0.00066935,0.,-0.00002408,0.00004848,0.,-
 0.00025517,-0.00025618,0.,0.07754855,-0.00028601,-0.00000139,0.,-0.000
 00517,-0.00003535,0.,0.00173085,0.00103753,0.,-0.00015471,0.00020545,0
 .,0.00837320,-0.01758016,0.,0.00103590,-0.00078666,0.,-0.00398586,-0.0
 0089304,0.,0.06649779,-0.32092808,-0.00000006,-0.00057677,0.00058306,0
 .,-0.00074798,-0.00456260,0.,0.00140498,0.00181708,0.,-0.00016081,-0.0
 0036587,0.,-0.00001476,0.00000123,-0.00000516,-0.00001476,0.00000123,0
 .00000516,-0.00002838,0.00003190,0.,-0.00109395,0.00033722,0.,-0.00005
 359,0.00004366,0.,-0.00025618,-0.00026518,0.,-0.07231292,0.34063387,0.
 ,0.,-0.00015482,0.,0.,0.00016941,0.,0.,-0.00287305,0.,0.,-0.00009864,0
 .,0.,0.00313097,0.,0.,-0.00002144,0.,0.,0.00515454,0.00000002,-0.00000
 006,-0.03661092,0.,0.,-0.00083535,0.,0.,0.00350524,0.,0.,0.00931500,0.
 ,0.,0.00006206,-0.00003236,0.00001583,-0.00000647,0.00003236,-0.000015
 83,-0.00000647,0.,0.,0.00001589,0.,0.,0.00021788,0.,0.,0.00004541,0.,0
 .,0.00018534,-0.00000002,0.00000007,0.02527234,0.00015597,0.00017102,0
 .,-0.00003863,-0.00010484,0.,0.00014998,0.00152947,0.,0.00014395,-0.00
 041985,0.,-0.00540100,0.00000928,0.,0.00140715,0.00172527,0.,-0.003395
 84,0.02997120,0.,-0.00098364,-0.00038917,0.,-0.07570287,0.06645268,0.0
 0000003,-0.00299944,-0.00329175,0.,0.00818512,-0.02152881,0.,0.0014137
 4,-0.00192084,0.,-0.00003636,0.00000794,0.00000992,-0.00003636,0.00000
 794,-0.00000992,0.00002735,-0.00002083,0.,-0.00047019,0.00014372,0.,-0
 .00002322,-0.00001217,0.,-0.00043898,-0.00109395,0.,0.00008500,0.00007
 742,0.,0.07811224,-0.00000460,0.00043001,0.,0.00002649,0.00006959,0.,-
 0.00057501,-0.00046504,0.,0.00050209,-0.00010313,0.,0.00144475,0.00158
 758,0.,-0.00170114,0.00097826,0.,0.00004340,-0.00582859,0.,-0.00046496
 ,0.00051045,0.,0.06513444,-0.31670127,-0.00000010,-0.00407076,-0.00116
 166,0.,0.00867268,-0.01867544,0.,0.00154026,0.00068221,0.,0.00003379,-
 0.00001410,-0.00000785,0.00003379,-0.00001410,0.00000785,-0.00001163,-
 0.00001376,0.,0.00014372,-0.00006659,0.,0.00006416,-0.00000237,0.,0.00
 066935,0.00033722,0.,0.00007877,-0.00010294,0.,-0.07081343,0.33841272,
 0.,0.,-0.00009384,0.,0.,0.00003023,0.,0.,0.00011445,0.,0.,-0.00015583,
 0.,0.,0.00511191,0.,0.,-0.00293375,0.,0.,0.00291311,0.,0.,-0.00069999,
 0.00000002,-0.00000010,-0.03657342,0.,0.,0.00763950,0.00000001,0.,0.00
 499368,0.,0.00000002,-0.00557569,0.00000062,0.00000346,-0.00000292,-0.
 00000062,-0.00000346,-0.00000292,0.,0.,-0.00000658,0.,0.,0.00020122,0.
 ,0.,0.00017864,0.,0.,0.00021788,0.,0.,-0.00107746,-0.00000003,0.000000
 11,0.02500244,-0.00050511,-0.00001100,0.,-0.00005927,-0.00013505,0.,-0
 .00010716,-0.00142345,0.,-0.00016903,0.00029243,0.,-0.00448790,0.00342
 827,0.,0.00035979,0.00000993,0.,-0.00042107,0.00054603,0.,-0.01722199,
 -0.02422815,0.,0.00053589,0.00235849,0.,-0.19972988,-0.13788428,0.,0.0
 0790840,0.00671136,0.,0.00087583,0.00057370,0.,-0.00004931,0.00000750,
 0.00000608,-0.00004931,0.00000750,-0.00000608,0.00000729,0.00001545,0.
 ,-0.00002322,0.00006416,0.,-0.00001645,-0.00002042,0.,-0.00002408,-0.0
 0005359,0.,0.00079786,0.00036891,0.,0.00044232,0.00036764,0.,0.2114218
 3,0.00015569,0.00028074,0.,0.00002421,0.00001202,0.,-0.00013995,0.0002
 7464,0.,0.00018425,-0.00017756,0.,0.00255349,0.00046642,0.,-0.00038231
 ,-0.00003049,0.,0.00116810,-0.00001990,0.,0.00809021,0.00951882,0.,0.0
 0298509,-0.00499029,0.,-0.13864185,-0.19698345,-0.00000002,-0.02401035
 ,-0.01623476,0.,-0.00110092,0.00134999,0.,-0.00000879,-0.00000049,0.00
 000538,-0.00000879,-0.00000049,-0.00000538,-0.00000448,0.00000679,0.,-
 0.00001217,-0.00000237,0.,-0.00002042,-0.00000614,0.,0.00004848,0.0000
 4366,0.,-0.00030406,0.00088581,0.,-0.00115027,-0.00103108,0.,0.1493901
 4,0.20677070,0.,0.,-0.00059973,0.,0.,-0.00004124,0.,0.,0.00018206,0.,0
 .,0.00011050,0.,0.,0.00967968,0.,0.,-0.00077918,0.,0.,-0.00085723,0.,0
 .,0.00318739,0.,0.,0.00500489,0.,-0.00000001,-0.03702992,0.,0.,0.00280
 972,0.,0.,-0.00149920,0.00001376,-0.00000778,0.00000112,-0.00001376,0.
 00000778,0.00000112,0.,0.,0.00000958,0.,0.,0.00017864,0.,0.,0.00004397
 ,0.,0.,0.00004541,0.,0.,-0.00518517,0.,0.,0.00018693,0.,0.00000002,0.0
 2543053,0.00001497,0.00011709,0.00003200,-0.00002174,-0.00004259,0.000
 00088,-0.00015377,-0.00007291,-0.00011080,-0.00001803,0.00002919,-0.00
 014698,0.00012757,0.00004396,-0.00018367,-0.00021931,0.00023398,0.0000
 8492,-0.00043970,-0.00061037,0.00193572,-0.00056438,-0.00015008,0.0007
 6351,-0.00275131,0.00255251,-0.00013016,0.00122117,-0.00146168,0.00069
 378,-0.01776005,-0.01306980,-0.02577749,-0.09793703,-0.04398460,-0.098
 18118,-0.00003642,0.00000874,0.00001195,-0.00003171,0.00001868,-0.0000
 0638,-0.00000889,0.00001673,-0.00000048,-0.00003636,0.00003379,-0.0000
 0062,-0.00004931,-0.00000879,-0.00001376,0.00002097,-0.00001476,0.0000
 3236,0.00000518,0.00003204,-0.00005485,-0.00002395,-0.00000744,-0.0008
 3751,0.00026736,0.00055906,-0.00045278,0.11031256,0.00015530,0.0003358
 4,-0.00001250,0.00001695,0.00002201,0.00002184,-0.00043743,-0.00001122
 ,-0.00010662,0.00020924,-0.00033266,0.00002945,0.00071683,0.00057363,0
 .00011153,-0.00029799,-0.00015053,-0.00005871,0.00053160,0.00002807,-0
 .00005728,-0.00122816,0.00003655,0.00003836,-0.00076457,-0.00040641,0.
 00004736,0.00155001,-0.00022897,0.00005705,0.00295872,0.00356725,0.007
 73609,-0.04339055,-0.08544056,-0.08132833,0.00000874,-0.00001240,-0.00
 000271,0.00001868,-0.00001402,0.00000076,0.00000702,-0.00000589,-0.000
 00101,0.00000794,-0.00001410,-0.00000346,0.00000750,-0.00000049,0.0000
 0778,0.00000092,0.00000123,-0.00001583,-0.00003817,-0.00000700,-0.0000
 0913,0.00011123,0.00026977,-0.00029051,-0.00013662,-0.00026078,-0.0001
 7456,0.04805366,0.08753358,0.00005935,0.00015876,-0.00000422,-0.000003
 12,-0.00001209,0.00001124,-0.00019496,-0.00003719,-0.00003109,0.000090
 57,-0.00006319,0.00001412,0.00031794,0.00019186,-0.00002501,-0.0001197
 3,-0.00001060,0.00000353,0.00033526,-0.00001417,-0.00027284,-0.0004609
 2,0.00018709,0.00014975,0.00025497,0.00036716,-0.00010699,0.00012936,-
 0.00060016,0.00083991,0.00130259,0.00139897,0.00292264,-0.09745004,-0.
 08175617,-0.21982308,-0.00001195,0.00000271,0.00000372,-0.00000638,0.0
 0000076,-0.00000458,-0.00000154,0.00000600,-0.00000054,-0.00000992,0.0
 0000785,-0.00000292,-0.00000608,-0.00000538,0.00000112,0.00000608,0.00
 000516,-0.00000647,-0.00004344,0.00001190,-0.00001475,0.00004906,0.000
 04174,0.00010749,-0.00017971,0.00035045,-0.00031580,0.10634982,0.08973
 762,0.23687624,0.00001497,0.00011709,-0.00003200,-0.00002174,-0.000042
 59,-0.00000089,-0.00015377,-0.00007291,0.00011080,-0.00001803,0.000029
 19,0.00014698,0.00012757,0.00004395,0.00018367,-0.00021932,0.00023398,
 -0.00008492,-0.00043970,-0.00061038,-0.00193572,-0.00056437,-0.0001500
 8,-0.00076351,-0.00275136,0.00255253,0.00013018,0.00122118,-0.00146169
 ,-0.00069379,-0.01776010,-0.01307006,0.02577732,-0.09793764,-0.0439857
 3,0.09818111,-0.00003171,0.00001868,0.00000638,-0.00003642,0.00000874,
 -0.00001195,-0.00000889,0.00001673,0.00000048,-0.00003636,0.00003379,0
 .00000062,-0.00004931,-0.00000879,0.00001376,0.00002097,-0.00001476,-0
 .00003236,0.00000518,0.00003204,0.00005485,-0.00002395,-0.00000744,0.0
 0083750,0.00026736,0.00055907,0.00045278,0.00678733,0.00644974,-0.0119
 4401,0.11031322,0.00015530,0.00033584,0.00001250,0.00001695,0.00002201
 ,-0.00002184,-0.00043742,-0.00001122,0.00010663,0.00020924,-0.00033266
 ,-0.00002945,0.00071683,0.00057363,-0.00011153,-0.00029799,-0.00015053
 ,0.00005871,0.00053159,0.00002807,0.00005728,-0.00122815,0.00003655,-0
 .00003838,-0.00076455,-0.00040641,-0.00004735,0.00155001,-0.00022896,-
 0.00005706,0.00295874,0.00356732,-0.00773608,-0.04339172,-0.08544215,0
 .08132951,0.00001868,-0.00001402,-0.00000076,0.00000874,-0.00001240,0.
 00000271,0.00000702,-0.00000589,0.00000101,0.00000794,-0.00001410,0.00
 000346,0.00000750,-0.00000049,-0.00000778,0.00000092,0.00000123,0.0000
 1583,-0.00003817,-0.00000700,0.00000913,0.00011123,0.00026978,0.000290
 51,-0.00013662,-0.00026078,0.00017457,0.00644966,0.00480778,-0.0108562
 0,0.04805493,0.08753531,-0.00005935,-0.00015877,-0.00000422,0.00000312
 ,0.00001209,0.00001124,0.00019496,0.00003719,-0.00003109,-0.00009057,0
 .00006319,0.00001412,-0.00031794,-0.00019187,-0.00002501,0.00011973,0.
 00001060,0.00000353,-0.00033527,0.00001418,-0.00027284,0.00046092,-0.0
 0018709,0.00014974,-0.00025496,-0.00036716,-0.00010699,-0.00012936,0.0
 0060016,0.00083991,-0.00130265,-0.00139899,0.00292261,0.09745004,0.081
 75733,-0.21982099,0.00000638,-0.00000076,-0.00000458,0.00001195,-0.000
 00271,0.00000372,0.00000154,-0.00000600,-0.00000054,0.00000992,-0.0000
 0785,-0.00000292,0.00000608,0.00000538,0.00000112,-0.00000608,-0.00000
 516,-0.00000647,0.00004344,-0.00001190,-0.00001476,-0.00004906,-0.0000
 4174,0.00010749,0.00017971,-0.00035045,-0.00031580,0.01194416,0.010856
 46,-0.02142048,-0.10634975,-0.08973892,0.23687394,-0.00006246,-0.00015
 610,0.,-0.00001312,-0.00001984,0.,0.00013459,-0.00010187,0.,-0.0001173
 6,0.00016406,0.,0.00001518,-0.00011654,0.,0.00022029,0.00005994,0.,-0.
 00017198,-0.00019595,0.,0.00039136,0.00169708,0.,0.00200310,0.00175257
 ,0.,-0.00661597,0.00006525,0.,-0.00327520,0.03353298,0.00000014,-0.051
 71306,0.02876792,0.00000016,-0.00000889,0.00000702,0.00000154,-0.00000
 889,0.00000702,-0.00000154,-0.00000048,0.00000119,0.,0.00002735,-0.000
 01163,0.,0.00000729,-0.00000448,0.,-0.00003202,-0.00002838,0.,-0.00045
 166,0.00013872,0.,-0.00054840,-0.00109892,0.,-0.00002013,0.00006658,0.
 ,0.00129486,-0.01451059,0.00153681,0.00129488,-0.01451065,-0.00153695,
 0.05765073,0.00002539,0.00010750,0.,0.00001046,0.00002191,0.,-0.000083
 07,0.00012000,0.,0.00013049,-0.00007371,0.,0.00007051,0.00019851,0.,-0
 .00007985,-0.00013298,0.,0.00034737,0.00031415,0.,-0.00050185,-0.00036
 390,0.,-0.00225439,0.00093299,0.,0.00198525,0.00042536,0.,-0.00043112,
 -0.00729359,-0.00000001,0.03322281,-0.31532762,-0.00000119,0.00001673,
 -0.00000589,-0.00000600,0.00001673,-0.00000589,0.00000600,0.00000119,-
 0.00000704,0.,-0.00002083,-0.00001376,0.,0.00001545,0.00000679,0.,0.00
 000845,0.00003190,0.,0.00016263,-0.00004278,0.,0.00042747,0.00063250,0
 .,-0.00011233,0.00038899,0.,0.00127392,-0.01029068,0.00088711,0.001273
 96,-0.01029091,-0.00088722,-0.03550540,0.34066818,0.,0.,0.00000416,0.,
 0.,0.00000199,0.,0.,-0.00000012,0.,0.,0.00001203,0.,0.,-0.00000103,0.,
 0.,-0.00007720,0.,0.,-0.00018492,-0.00000001,0.,0.00039979,0.,0.,-0.00
 011126,0.,0.,0.00147640,-0.00000002,0.00000004,-0.00158570,0.00000018,
 -0.00000121,-0.04735350,0.00000048,0.00000101,-0.00000054,-0.00000048,
 -0.00000101,-0.00000054,0.,0.,0.00000045,0.,0.,-0.00000658,0.,0.,0.000
 00958,0.,0.,0.00001589,0.,0.,-0.00017478,0.,0.,0.00031744,0.,0.,-0.000
 24826,0.00404754,-0.02658368,0.00109904,-0.00404754,0.02658352,0.00109
 927,-0.00000015,0.00000132,0.04530838\\0.00000034,0.00000059,0.,0.0000
 0422,-0.00000160,0.,0.00000165,0.00000002,0.,0.00000481,-0.00000481,0.
 ,-0.00000248,0.00001122,0.,-0.00000235,0.00000241,0.,0.00000247,-0.000
 01122,0.,0.00000235,-0.00000241,0.,-0.00000164,-0.00000002,0.,-0.00000
 481,0.00000481,0.,-0.00000034,-0.00000060,0.,-0.00000422,0.00000161,0.
 ,-0.00000009,-0.00000045,0.00000028,-0.00000009,-0.00000045,-0.0000002
 8,-0.00000133,0.00000015,0.,-0.00000025,0.00000074,0.,-0.00000168,0.00
 000202,0.,0.00000235,-0.00000050,0.,-0.00000235,0.00000050,0.,0.000000
 24,-0.00000074,0.,0.00000168,-0.00000202,0.,0.00000009,0.00000045,0.00
 000028,0.00000009,0.00000045,-0.00000028,0.00000133,-0.00000015,0.\\\@


 WE MIGHT AS WELL ATTEMPT TO INTRODUCE A NEW PLANET 
 INTO THE SOLAR SYSTEM, OR TO ANNIHILATE ONE ALREADYIN EXISTENCE, 
 AS TO CREATE OR DESTROY A PARTICLE OF HYDROGEN.
 ALL THE CHANGES WE CAN PRODUCE CONSIST IN SEPARATING PARTICLES
 THAT ARE IN A STATE OF ... COMBINATION, AND JOINING 
 THOSE THAT WERE PREVIOUSLY AT A DISTANCE.

                                    -- JOHN DALTON, 1810
 Job cpu time:       0 days  9 hours 57 minutes 56.6 seconds.
 File lengths (MBytes):  RWF=    423 Int=      0 D2E=      0 Chk=     15 Scr=      1
 Normal termination of Gaussian 09 at Fri Jul  9 20:16:50 2021.
