 Entering Gaussian System, Link 0=g09
 Initial command:
 /home/minenky/programs//g09/l1.exe "/local/scratch/minenky/m1_00_120864-22-4-C32H16_B3LYP-D3/Gau-63215.inp" -scrdir="/local/scratch/minenky/m1_00_120864-22-4-C32H16_B3LYP-D3/"
 Entering Link 1 = /home/minenky/programs//g09/l1.exe PID=     63216.
  
 Copyright (c) 1988,1990,1992,1993,1995,1998,2003,2009,2013,
            Gaussian, Inc.  All Rights Reserved.
  
 This is part of the Gaussian(R) 09 program.  It is based on
 the Gaussian(R) 03 system (copyright 2003, Gaussian, Inc.),
 the Gaussian(R) 98 system (copyright 1998, Gaussian, Inc.),
 the Gaussian(R) 94 system (copyright 1995, Gaussian, Inc.),
 the Gaussian 92(TM) system (copyright 1992, Gaussian, Inc.),
 the Gaussian 90(TM) system (copyright 1990, Gaussian, Inc.),
 the Gaussian 88(TM) system (copyright 1988, Gaussian, Inc.),
 the Gaussian 86(TM) system (copyright 1986, Carnegie Mellon
 University), and the Gaussian 82(TM) system (copyright 1983,
 Carnegie Mellon University). Gaussian is a federally registered
 trademark of Gaussian, Inc.
  
 This software contains proprietary and confidential information,
 including trade secrets, belonging to Gaussian, Inc.
  
 This software is provided under written license and may be
 used, copied, transmitted, or stored only in accord with that
 written license.
  
 The following legend is applicable only to US Government
 contracts under FAR:
  
                    RESTRICTED RIGHTS LEGEND
  
 Use, reproduction and disclosure by the US Government is
 subject to restrictions as set forth in subparagraphs (a)
 and (c) of the Commercial Computer Software - Restricted
 Rights clause in FAR 52.227-19.
  
 Gaussian, Inc.
 340 Quinnipiac St., Bldg. 40, Wallingford CT 06492
  
  
 ---------------------------------------------------------------
 Warning -- This program may not be used in any manner that
 competes with the business of Gaussian, Inc. or will provide
 assistance to any competitor of Gaussian, Inc.  The licensee
 of this program is prohibited from giving any competitor of
 Gaussian, Inc. access to this program.  By using this program,
 the user acknowledges that Gaussian, Inc. is engaged in the
 business of creating and licensing software in the field of
 computational chemistry and represents and warrants to the
 licensee that it is not a competitor of Gaussian, Inc. and that
 it will not use this program in any manner prohibited above.
 ---------------------------------------------------------------
  

 Cite this work as:
 Gaussian 09, Revision D.01,
 M. J. Frisch, G. W. Trucks, H. B. Schlegel, G. E. Scuseria, 
 M. A. Robb, J. R. Cheeseman, G. Scalmani, V. Barone, B. Mennucci, 
 G. A. Petersson, H. Nakatsuji, M. Caricato, X. Li, H. P. Hratchian, 
 A. F. Izmaylov, J. Bloino, G. Zheng, J. L. Sonnenberg, M. Hada, 
 M. Ehara, K. Toyota, R. Fukuda, J. Hasegawa, M. Ishida, T. Nakajima, 
 Y. Honda, O. Kitao, H. Nakai, T. Vreven, J. A. Montgomery, Jr., 
 J. E. Peralta, F. Ogliaro, M. Bearpark, J. J. Heyd, E. Brothers, 
 K. N. Kudin, V. N. Staroverov, T. Keith, R. Kobayashi, J. Normand, 
 K. Raghavachari, A. Rendell, J. C. Burant, S. S. Iyengar, J. Tomasi, 
 M. Cossi, N. Rega, J. M. Millam, M. Klene, J. E. Knox, J. B. Cross, 
 V. Bakken, C. Adamo, J. Jaramillo, R. Gomperts, R. E. Stratmann, 
 O. Yazyev, A. J. Austin, R. Cammi, C. Pomelli, J. W. Ochterski, 
 R. L. Martin, K. Morokuma, V. G. Zakrzewski, G. A. Voth, 
 P. Salvador, J. J. Dannenberg, S. Dapprich, A. D. Daniels, 
 O. Farkas, J. B. Foresman, J. V. Ortiz, J. Cioslowski, 
 and D. J. Fox, Gaussian, Inc., Wallingford CT, 2013.
 
 ******************************************
 Gaussian 09:  AM64L-G09RevD.01 24-Apr-2013
                23-Jul-2019 
 ******************************************
 %Mem=32000MB
 %NProcShared=16
 Will use up to   16 processors via shared memory.
 %Chk=m1_00_120864-22-4-C32H16_B3LYP-D3
 ----------------------------------------------------------------------
 #P wB97XD/def2tzvp opt=(tight) freq integral(Grid=ultrafine) # SCF(Max
 Cycle=380) 5d 7f GFPrint
 ----------------------------------------------------------------------
 1/7=10,14=-1,18=20,19=15,26=4,38=1/1,3;
 2/9=110,12=2,17=6,18=5,40=1/2;
 3/5=44,7=101,8=11,11=2,16=1,24=100,25=1,30=1,71=1,74=-58,75=-5/1,2,3;
 4//1;
 5/5=2,7=380,38=5/2;
 6/7=2,8=2,9=2,10=2,28=1/1;
 7//1,2,3,16;
 1/7=10,14=-1,18=20,19=15,26=4/3(2);
 2/9=110/2;
 99//99;
 2/9=110/2;
 3/5=44,7=101,8=11,11=2,16=1,25=1,30=1,71=1,74=-58,75=-5/1,2,3;
 4/5=5,16=3,69=1/1;
 5/5=2,7=380,38=5/2;
 7//1,2,3,16;
 1/7=10,14=-1,18=20,19=15,26=4/3(-5);
 2/9=110/2;
 6/7=2,8=2,9=2,10=2,19=2,28=1/1;
 99/9=1/99;
 Leave Link    1 at Tue Jul 23 18:47:21 2019, MaxMem=  4194304000 cpu:         1.7
 (Enter /home/minenky/programs//g09/l101.exe)
 ---------------------------------------
 The PBEPBE optimization and frequencies
 ---------------------------------------
 Symbolic Z-matrix:
 Charge =  0 Multiplicity = 1
 C                    -2.75705   0.28721  -0.03892 
 C                    -2.22968   1.56197  -0.07006 
 C                     1.69249  -1.59125   0.03892 
 C                     2.2628   -0.29789   0.05449 
 C                     3.66552  -0.11086   0.1012 
 C                     4.20792   1.1441    0.1012 
 C                     3.3846    2.29226   0.06228 
 C                     3.93515   3.60694   0.06228 
 C                     3.13452   4.70247   0.02335 
 C                     1.71175   4.5783   -0.01557 
 C                     0.87621   5.7026   -0.04671 
 C                    -0.49627   5.54907  -0.08563 
 C                    -1.06747   4.28066  -0.08563 
 C                    -0.85338   1.7845   -0.03892 
 C                     0.        0.64842  -0.00778 
 C                     1.41439   0.82983   0.02335 
 C                     1.97853   2.13366   0.02335 
 C                     1.13114   3.27867  -0.01557 
 C                    -0.28156   3.12721  -0.04671 
 C                    -0.54694  -0.67105  -0.00778 
 C                    -1.94871  -0.85039   0. 
 C                     0.33908  -1.8079   -0.00778 
 C                    -2.52032  -2.201     0.06228 
 C                    -3.88805  -2.42319   0.16348 
 C                    -4.42771  -3.71635   0.18683 
 C                    -3.60393  -4.80994   0.09342 
 C                    -0.23058  -3.1634   -0.07006 
 C                    -1.64605  -3.32759   0. 
 C                    -2.20055  -4.64476   0. 
 C                    -1.33907  -5.76241  -0.09342 
 C                     0.0201   -5.58636  -0.19462 
 C                     0.56638  -4.29795  -0.17905 
 H                    -3.83169   0.1867   -0.07006 
 H                    -2.91526   2.39607  -0.1012 
 H                     2.37985  -2.42477   0.07006 
 H                     4.30629  -0.98406   0.12455 
 H                     5.28311   1.27486   0.13234 
 H                     5.01296   3.71449   0.09342 
 H                     3.56318   5.69702   0.02335 
 H                     1.31959   6.6905   -0.04671 
 H                    -1.1381    6.4206   -0.11677 
 H                    -2.14445   4.20419  -0.10898 
 H                    -4.57417  -1.58999   0.24132 
 H                    -5.50274  -3.8419    0.27246 
 H                    -4.01178  -5.8129    0.1012 
 H                    -1.77045  -6.75548  -0.09342 
 H                     0.68189  -6.4428   -0.28025 
 H                     1.64201  -4.20583  -0.26468 
 
 NAtoms=     48 NQM=       48 NQMF=       0 NMMI=      0 NMMIF=      0
                NMic=       0 NMicF=      0.
                    Isotopes and Nuclear Properties:
 (Nuclear quadrupole moments (NQMom) in fm**2, nuclear magnetic moments (NMagM)
  in nuclear magnetons)

  Atom         1           2           3           4           5           6           7           8           9          10
 IAtWgt=          12          12          12          12          12          12          12          12          12          12
 AtmWgt=  12.0000000  12.0000000  12.0000000  12.0000000  12.0000000  12.0000000  12.0000000  12.0000000  12.0000000  12.0000000
 NucSpn=           0           0           0           0           0           0           0           0           0           0
 AtZEff=   0.0000000   0.0000000   0.0000000   0.0000000   0.0000000   0.0000000   0.0000000   0.0000000   0.0000000   0.0000000
 NQMom=    0.0000000   0.0000000   0.0000000   0.0000000   0.0000000   0.0000000   0.0000000   0.0000000   0.0000000   0.0000000
 NMagM=    0.0000000   0.0000000   0.0000000   0.0000000   0.0000000   0.0000000   0.0000000   0.0000000   0.0000000   0.0000000
 AtZNuc=   6.0000000   6.0000000   6.0000000   6.0000000   6.0000000   6.0000000   6.0000000   6.0000000   6.0000000   6.0000000

  Atom        11          12          13          14          15          16          17          18          19          20
 IAtWgt=          12          12          12          12          12          12          12          12          12          12
 AtmWgt=  12.0000000  12.0000000  12.0000000  12.0000000  12.0000000  12.0000000  12.0000000  12.0000000  12.0000000  12.0000000
 NucSpn=           0           0           0           0           0           0           0           0           0           0
 AtZEff=   0.0000000   0.0000000   0.0000000   0.0000000   0.0000000   0.0000000   0.0000000   0.0000000   0.0000000   0.0000000
 NQMom=    0.0000000   0.0000000   0.0000000   0.0000000   0.0000000   0.0000000   0.0000000   0.0000000   0.0000000   0.0000000
 NMagM=    0.0000000   0.0000000   0.0000000   0.0000000   0.0000000   0.0000000   0.0000000   0.0000000   0.0000000   0.0000000
 AtZNuc=   6.0000000   6.0000000   6.0000000   6.0000000   6.0000000   6.0000000   6.0000000   6.0000000   6.0000000   6.0000000

  Atom        21          22          23          24          25          26          27          28          29          30
 IAtWgt=          12          12          12          12          12          12          12          12          12          12
 AtmWgt=  12.0000000  12.0000000  12.0000000  12.0000000  12.0000000  12.0000000  12.0000000  12.0000000  12.0000000  12.0000000
 NucSpn=           0           0           0           0           0           0           0           0           0           0
 AtZEff=   0.0000000   0.0000000   0.0000000   0.0000000   0.0000000   0.0000000   0.0000000   0.0000000   0.0000000   0.0000000
 NQMom=    0.0000000   0.0000000   0.0000000   0.0000000   0.0000000   0.0000000   0.0000000   0.0000000   0.0000000   0.0000000
 NMagM=    0.0000000   0.0000000   0.0000000   0.0000000   0.0000000   0.0000000   0.0000000   0.0000000   0.0000000   0.0000000
 AtZNuc=   6.0000000   6.0000000   6.0000000   6.0000000   6.0000000   6.0000000   6.0000000   6.0000000   6.0000000   6.0000000

  Atom        31          32          33          34          35          36          37          38          39          40
 IAtWgt=          12          12           1           1           1           1           1           1           1           1
 AtmWgt=  12.0000000  12.0000000   1.0078250   1.0078250   1.0078250   1.0078250   1.0078250   1.0078250   1.0078250   1.0078250
 NucSpn=           0           0           1           1           1           1           1           1           1           1
 AtZEff=   0.0000000   0.0000000   0.0000000   0.0000000   0.0000000   0.0000000   0.0000000   0.0000000   0.0000000   0.0000000
 NQMom=    0.0000000   0.0000000   0.0000000   0.0000000   0.0000000   0.0000000   0.0000000   0.0000000   0.0000000   0.0000000
 NMagM=    0.0000000   0.0000000   2.7928460   2.7928460   2.7928460   2.7928460   2.7928460   2.7928460   2.7928460   2.7928460
 AtZNuc=   6.0000000   6.0000000   1.0000000   1.0000000   1.0000000   1.0000000   1.0000000   1.0000000   1.0000000   1.0000000

  Atom        41          42          43          44          45          46          47          48
 IAtWgt=           1           1           1           1           1           1           1           1
 AtmWgt=   1.0078250   1.0078250   1.0078250   1.0078250   1.0078250   1.0078250   1.0078250   1.0078250
 NucSpn=           1           1           1           1           1           1           1           1
 AtZEff=   0.0000000   0.0000000   0.0000000   0.0000000   0.0000000   0.0000000   0.0000000   0.0000000
 NQMom=    0.0000000   0.0000000   0.0000000   0.0000000   0.0000000   0.0000000   0.0000000   0.0000000
 NMagM=    2.7928460   2.7928460   2.7928460   2.7928460   2.7928460   2.7928460   2.7928460   2.7928460
 AtZNuc=   1.0000000   1.0000000   1.0000000   1.0000000   1.0000000   1.0000000   1.0000000   1.0000000
 Leave Link  101 at Tue Jul 23 18:47:22 2019, MaxMem=  4194304000 cpu:         9.2
 (Enter /home/minenky/programs//g09/l103.exe)

 GradGradGradGradGradGradGradGradGradGradGradGradGradGradGradGradGradGrad
 Berny optimization.
 Initialization pass.
                           ----------------------------
                           !    Initial Parameters    !
                           ! (Angstroms and Degrees)  !
 --------------------------                            --------------------------
 ! Name  Definition              Value          Derivative Info.                !
 --------------------------------------------------------------------------------
 ! R1    R(1,2)                  1.3799         estimate D2E/DX2                !
 ! R2    R(1,21)                 1.3961         estimate D2E/DX2                !
 ! R3    R(1,33)                 1.0798         estimate D2E/DX2                !
 ! R4    R(2,14)                 1.3945         estimate D2E/DX2                !
 ! R5    R(2,34)                 1.0801         estimate D2E/DX2                !
 ! R6    R(3,4)                  1.4136         estimate D2E/DX2                !
 ! R7    R(3,22)                 1.3714         estimate D2E/DX2                !
 ! R8    R(3,35)                 1.0808         estimate D2E/DX2                !
 ! R9    R(4,5)                  1.4159         estimate D2E/DX2                !
 ! R10   R(4,16)                 1.4116         estimate D2E/DX2                !
 ! R11   R(5,6)                  1.3672         estimate D2E/DX2                !
 ! R12   R(5,36)                 1.0833         estimate D2E/DX2                !
 ! R13   R(6,7)                  1.4134         estimate D2E/DX2                !
 ! R14   R(6,37)                 1.0836         estimate D2E/DX2                !
 ! R15   R(7,8)                  1.4253         estimate D2E/DX2                !
 ! R16   R(7,17)                 1.4155         estimate D2E/DX2                !
 ! R17   R(8,9)                  1.3575         estimate D2E/DX2                !
 ! R18   R(8,38)                 1.0836         estimate D2E/DX2                !
 ! R19   R(9,10)                 1.4287         estimate D2E/DX2                !
 ! R20   R(9,39)                 1.083          estimate D2E/DX2                !
 ! R21   R(10,11)                1.4011         estimate D2E/DX2                !
 ! R22   R(10,18)                1.4234         estimate D2E/DX2                !
 ! R23   R(11,12)                1.3816         estimate D2E/DX2                !
 ! R24   R(11,40)                1.0828         estimate D2E/DX2                !
 ! R25   R(12,13)                1.3911         estimate D2E/DX2                !
 ! R26   R(12,41)                1.0828         estimate D2E/DX2                !
 ! R27   R(13,19)                1.3963         estimate D2E/DX2                !
 ! R28   R(13,42)                1.0799         estimate D2E/DX2                !
 ! R29   R(14,15)                1.4212         estimate D2E/DX2                !
 ! R30   R(14,19)                1.4594         estimate D2E/DX2                !
 ! R31   R(15,16)                1.4263         estimate D2E/DX2                !
 ! R32   R(15,20)                1.4283         estimate D2E/DX2                !
 ! R33   R(16,17)                1.4206         estimate D2E/DX2                !
 ! R34   R(17,18)                1.425          estimate D2E/DX2                !
 ! R35   R(18,19)                1.4211         estimate D2E/DX2                !
 ! R36   R(20,21)                1.4132         estimate D2E/DX2                !
 ! R37   R(20,22)                1.4413         estimate D2E/DX2                !
 ! R38   R(21,23)                1.4679         estimate D2E/DX2                !
 ! R39   R(22,27)                1.4717         estimate D2E/DX2                !
 ! R40   R(23,24)                1.3894         estimate D2E/DX2                !
 ! R41   R(23,28)                1.4274         estimate D2E/DX2                !
 ! R42   R(24,25)                1.4014         estimate D2E/DX2                !
 ! R43   R(24,43)                1.0822         estimate D2E/DX2                !
 ! R44   R(25,26)                1.3723         estimate D2E/DX2                !
 ! R45   R(25,44)                1.0857         estimate D2E/DX2                !
 ! R46   R(26,29)                1.4162         estimate D2E/DX2                !
 ! R47   R(26,45)                1.0827         estimate D2E/DX2                !
 ! R48   R(27,28)                1.4267         estimate D2E/DX2                !
 ! R49   R(27,32)                1.3908         estimate D2E/DX2                !
 ! R50   R(28,29)                1.4291         estimate D2E/DX2                !
 ! R51   R(29,30)                1.4142         estimate D2E/DX2                !
 ! R52   R(30,31)                1.3743         estimate D2E/DX2                !
 ! R53   R(30,46)                1.0827         estimate D2E/DX2                !
 ! R54   R(31,32)                1.3995         estimate D2E/DX2                !
 ! R55   R(31,47)                1.0857         estimate D2E/DX2                !
 ! R56   R(32,48)                1.083          estimate D2E/DX2                !
 ! A1    A(2,1,21)             122.1481         estimate D2E/DX2                !
 ! A2    A(2,1,33)             117.7554         estimate D2E/DX2                !
 ! A3    A(21,1,33)            120.0801         estimate D2E/DX2                !
 ! A4    A(1,2,14)             121.6075         estimate D2E/DX2                !
 ! A5    A(1,2,34)             118.1286         estimate D2E/DX2                !
 ! A6    A(14,2,34)            120.2545         estimate D2E/DX2                !
 ! A7    A(4,3,22)             122.8914         estimate D2E/DX2                !
 ! A8    A(4,3,35)             116.6602         estimate D2E/DX2                !
 ! A9    A(22,3,35)            120.448          estimate D2E/DX2                !
 ! A10   A(3,4,5)              121.3929         estimate D2E/DX2                !
 ! A11   A(3,4,16)             119.2245         estimate D2E/DX2                !
 ! A12   A(5,4,16)             119.3826         estimate D2E/DX2                !
 ! A13   A(4,5,6)              120.95           estimate D2E/DX2                !
 ! A14   A(4,5,36)             118.6993         estimate D2E/DX2                !
 ! A15   A(6,5,36)             120.3463         estimate D2E/DX2                !
 ! A16   A(5,6,7)              120.9692         estimate D2E/DX2                !
 ! A17   A(5,6,37)             120.294          estimate D2E/DX2                !
 ! A18   A(7,6,37)             118.7368         estimate D2E/DX2                !
 ! A19   A(6,7,8)              121.6206         estimate D2E/DX2                !
 ! A20   A(6,7,17)             119.2333         estimate D2E/DX2                !
 ! A21   A(8,7,17)             119.146          estimate D2E/DX2                !
 ! A22   A(7,8,9)              121.1038         estimate D2E/DX2                !
 ! A23   A(7,8,38)             118.4082         estimate D2E/DX2                !
 ! A24   A(9,8,38)             120.4881         estimate D2E/DX2                !
 ! A25   A(8,9,10)             121.1973         estimate D2E/DX2                !
 ! A26   A(8,9,39)             120.5102         estimate D2E/DX2                !
 ! A27   A(10,9,39)            118.2924         estimate D2E/DX2                !
 ! A28   A(9,10,11)            121.6499         estimate D2E/DX2                !
 ! A29   A(9,10,18)            119.0484         estimate D2E/DX2                !
 ! A30   A(11,10,18)           119.3009         estimate D2E/DX2                !
 ! A31   A(10,11,12)           120.2554         estimate D2E/DX2                !
 ! A32   A(10,11,40)           119.2024         estimate D2E/DX2                !
 ! A33   A(12,11,40)           120.5408         estimate D2E/DX2                !
 ! A34   A(11,12,13)           120.6131         estimate D2E/DX2                !
 ! A35   A(11,12,41)           120.013          estimate D2E/DX2                !
 ! A36   A(13,12,41)           119.3739         estimate D2E/DX2                !
 ! A37   A(12,13,19)           121.4744         estimate D2E/DX2                !
 ! A38   A(12,13,42)           118.298          estimate D2E/DX2                !
 ! A39   A(19,13,42)           120.2259         estimate D2E/DX2                !
 ! A40   A(2,14,15)            117.7451         estimate D2E/DX2                !
 ! A41   A(2,14,19)            122.2342         estimate D2E/DX2                !
 ! A42   A(15,14,19)           120.0194         estimate D2E/DX2                !
 ! A43   A(14,15,16)           119.6194         estimate D2E/DX2                !
 ! A44   A(14,15,20)           120.5647         estimate D2E/DX2                !
 ! A45   A(16,15,20)           119.8158         estimate D2E/DX2                !
 ! A46   A(4,16,15)            119.6618         estimate D2E/DX2                !
 ! A47   A(4,16,17)            119.6405         estimate D2E/DX2                !
 ! A48   A(15,16,17)           120.6977         estimate D2E/DX2                !
 ! A49   A(7,17,16)            119.8202         estimate D2E/DX2                !
 ! A50   A(7,17,18)            120.093          estimate D2E/DX2                !
 ! A51   A(16,17,18)           120.0868         estimate D2E/DX2                !
 ! A52   A(10,18,17)           119.4114         estimate D2E/DX2                !
 ! A53   A(10,18,19)           120.1841         estimate D2E/DX2                !
 ! A54   A(17,18,19)           120.4037         estimate D2E/DX2                !
 ! A55   A(13,19,14)           122.6593         estimate D2E/DX2                !
 ! A56   A(13,19,18)           118.1695         estimate D2E/DX2                !
 ! A57   A(14,19,18)           119.1712         estimate D2E/DX2                !
 ! A58   A(15,20,21)           119.805          estimate D2E/DX2                !
 ! A59   A(15,20,22)           119.5535         estimate D2E/DX2                !
 ! A60   A(21,20,22)           120.6405         estimate D2E/DX2                !
 ! A61   A(1,21,20)            118.0833         estimate D2E/DX2                !
 ! A62   A(1,21,23)            121.6986         estimate D2E/DX2                !
 ! A63   A(20,21,23)           120.2148         estimate D2E/DX2                !
 ! A64   A(3,22,20)            118.8191         estimate D2E/DX2                !
 ! A65   A(3,22,27)            121.9341         estimate D2E/DX2                !
 ! A66   A(20,22,27)           119.2445         estimate D2E/DX2                !
 ! A67   A(21,23,24)           122.2475         estimate D2E/DX2                !
 ! A68   A(21,23,28)           119.0676         estimate D2E/DX2                !
 ! A69   A(24,23,28)           118.68           estimate D2E/DX2                !
 ! A70   A(23,24,25)           121.8616         estimate D2E/DX2                !
 ! A71   A(23,24,43)           120.4162         estimate D2E/DX2                !
 ! A72   A(25,24,43)           117.7169         estimate D2E/DX2                !
 ! A73   A(24,25,26)           120.2003         estimate D2E/DX2                !
 ! A74   A(24,25,44)           119.2948         estimate D2E/DX2                !
 ! A75   A(26,25,44)           120.5036         estimate D2E/DX2                !
 ! A76   A(25,26,29)           120.4248         estimate D2E/DX2                !
 ! A77   A(25,26,45)           120.7677         estimate D2E/DX2                !
 ! A78   A(29,26,45)           118.8038         estimate D2E/DX2                !
 ! A79   A(22,27,28)           119.2073         estimate D2E/DX2                !
 ! A80   A(22,27,32)           122.2007         estimate D2E/DX2                !
 ! A81   A(28,27,32)           118.5873         estimate D2E/DX2                !
 ! A82   A(23,28,27)           121.2645         estimate D2E/DX2                !
 ! A83   A(23,28,29)           119.3267         estimate D2E/DX2                !
 ! A84   A(27,28,29)           119.4078         estimate D2E/DX2                !
 ! A85   A(26,29,28)           119.4725         estimate D2E/DX2                !
 ! A86   A(26,29,30)           121.0533         estimate D2E/DX2                !
 ! A87   A(28,29,30)           119.4742         estimate D2E/DX2                !
 ! A88   A(29,30,31)           120.4038         estimate D2E/DX2                !
 ! A89   A(29,30,46)           118.8267         estimate D2E/DX2                !
 ! A90   A(31,30,46)           120.7668         estimate D2E/DX2                !
 ! A91   A(30,31,32)           120.2099         estimate D2E/DX2                !
 ! A92   A(30,31,47)           120.5049         estimate D2E/DX2                !
 ! A93   A(32,31,47)           119.2839         estimate D2E/DX2                !
 ! A94   A(27,32,31)           121.8838         estimate D2E/DX2                !
 ! A95   A(27,32,48)           120.3949         estimate D2E/DX2                !
 ! A96   A(31,32,48)           117.7189         estimate D2E/DX2                !
 ! D1    D(21,1,2,14)           -1.2246         estimate D2E/DX2                !
 ! D2    D(21,1,2,34)          179.8923         estimate D2E/DX2                !
 ! D3    D(33,1,2,14)         -179.75           estimate D2E/DX2                !
 ! D4    D(33,1,2,34)            1.3669         estimate D2E/DX2                !
 ! D5    D(2,1,21,20)           -0.6873         estimate D2E/DX2                !
 ! D6    D(2,1,21,23)          178.6518         estimate D2E/DX2                !
 ! D7    D(33,1,21,20)         177.8047         estimate D2E/DX2                !
 ! D8    D(33,1,21,23)          -2.8562         estimate D2E/DX2                !
 ! D9    D(1,2,14,15)            1.561          estimate D2E/DX2                !
 ! D10   D(1,2,14,19)         -178.8618         estimate D2E/DX2                !
 ! D11   D(34,2,14,15)        -179.5793         estimate D2E/DX2                !
 ! D12   D(34,2,14,19)          -0.0021         estimate D2E/DX2                !
 ! D13   D(22,3,4,5)          -179.9133         estimate D2E/DX2                !
 ! D14   D(22,3,4,16)            0.1145         estimate D2E/DX2                !
 ! D15   D(35,3,4,5)             0.335          estimate D2E/DX2                !
 ! D16   D(35,3,4,16)         -179.6372         estimate D2E/DX2                !
 ! D17   D(4,3,22,20)           -1.5851         estimate D2E/DX2                !
 ! D18   D(4,3,22,27)          177.8473         estimate D2E/DX2                !
 ! D19   D(35,3,22,20)         178.1575         estimate D2E/DX2                !
 ! D20   D(35,3,22,27)          -2.4101         estimate D2E/DX2                !
 ! D21   D(3,4,5,6)            179.2802         estimate D2E/DX2                !
 ! D22   D(3,4,5,36)             0.0407         estimate D2E/DX2                !
 ! D23   D(16,4,5,6)            -0.7476         estimate D2E/DX2                !
 ! D24   D(16,4,5,36)         -179.9871         estimate D2E/DX2                !
 ! D25   D(3,4,16,15)            0.7108         estimate D2E/DX2                !
 ! D26   D(3,4,16,17)         -179.2887         estimate D2E/DX2                !
 ! D27   D(5,4,16,15)         -179.2619         estimate D2E/DX2                !
 ! D28   D(5,4,16,17)            0.7385         estimate D2E/DX2                !
 ! D29   D(4,5,6,7)              0.3639         estimate D2E/DX2                !
 ! D30   D(4,5,6,37)          -179.7029         estimate D2E/DX2                !
 ! D31   D(36,5,6,7)           179.5909         estimate D2E/DX2                !
 ! D32   D(36,5,6,37)           -0.4759         estimate D2E/DX2                !
 ! D33   D(5,6,7,8)            179.9754         estimate D2E/DX2                !
 ! D34   D(5,6,7,17)             0.0246         estimate D2E/DX2                !
 ! D35   D(37,6,7,8)             0.0412         estimate D2E/DX2                !
 ! D36   D(37,6,7,17)         -179.9097         estimate D2E/DX2                !
 ! D37   D(6,7,8,9)            179.9342         estimate D2E/DX2                !
 ! D38   D(6,7,8,38)            -0.0189         estimate D2E/DX2                !
 ! D39   D(17,7,8,9)            -0.1149         estimate D2E/DX2                !
 ! D40   D(17,7,8,38)          179.932          estimate D2E/DX2                !
 ! D41   D(6,7,17,16)           -0.0234         estimate D2E/DX2                !
 ! D42   D(6,7,17,18)          179.9693         estimate D2E/DX2                !
 ! D43   D(8,7,17,16)         -179.9755         estimate D2E/DX2                !
 ! D44   D(8,7,17,18)            0.0172         estimate D2E/DX2                !
 ! D45   D(7,8,9,10)             0.1613         estimate D2E/DX2                !
 ! D46   D(7,8,9,39)          -179.9769         estimate D2E/DX2                !
 ! D47   D(38,8,9,10)         -179.8866         estimate D2E/DX2                !
 ! D48   D(38,8,9,39)           -0.0248         estimate D2E/DX2                !
 ! D49   D(8,9,10,11)          179.5581         estimate D2E/DX2                !
 ! D50   D(8,9,10,18)           -0.1085         estimate D2E/DX2                !
 ! D51   D(39,9,10,11)          -0.3067         estimate D2E/DX2                !
 ! D52   D(39,9,10,18)        -179.9732         estimate D2E/DX2                !
 ! D53   D(9,10,11,12)         179.9228         estimate D2E/DX2                !
 ! D54   D(9,10,11,40)           0.3372         estimate D2E/DX2                !
 ! D55   D(18,10,11,12)         -0.4115         estimate D2E/DX2                !
 ! D56   D(18,10,11,40)       -179.9971         estimate D2E/DX2                !
 ! D57   D(9,10,18,17)           0.011          estimate D2E/DX2                !
 ! D58   D(9,10,18,19)         179.6666         estimate D2E/DX2                !
 ! D59   D(11,10,18,17)       -179.6635         estimate D2E/DX2                !
 ! D60   D(11,10,18,19)         -0.0078         estimate D2E/DX2                !
 ! D61   D(10,11,12,13)          0.4228         estimate D2E/DX2                !
 ! D62   D(10,11,12,41)       -179.562          estimate D2E/DX2                !
 ! D63   D(40,11,12,13)       -179.9973         estimate D2E/DX2                !
 ! D64   D(40,11,12,41)          0.018          estimate D2E/DX2                !
 ! D65   D(11,12,13,19)         -0.0029         estimate D2E/DX2                !
 ! D66   D(11,12,13,42)        179.5314         estimate D2E/DX2                !
 ! D67   D(41,12,13,19)        179.982          estimate D2E/DX2                !
 ! D68   D(41,12,13,42)         -0.4838         estimate D2E/DX2                !
 ! D69   D(12,13,19,14)        179.6828         estimate D2E/DX2                !
 ! D70   D(12,13,19,18)         -0.4092         estimate D2E/DX2                !
 ! D71   D(42,13,19,14)          0.1574         estimate D2E/DX2                !
 ! D72   D(42,13,19,18)       -179.9346         estimate D2E/DX2                !
 ! D73   D(2,14,15,16)         179.9399         estimate D2E/DX2                !
 ! D74   D(2,14,15,20)          -0.0439         estimate D2E/DX2                !
 ! D75   D(19,14,15,16)          0.3529         estimate D2E/DX2                !
 ! D76   D(19,14,15,20)       -179.6309         estimate D2E/DX2                !
 ! D77   D(2,14,19,13)           0.004          estimate D2E/DX2                !
 ! D78   D(2,14,19,18)        -179.9031         estimate D2E/DX2                !
 ! D79   D(15,14,19,13)        179.5718         estimate D2E/DX2                !
 ! D80   D(15,14,19,18)         -0.3353         estimate D2E/DX2                !
 ! D81   D(14,15,16,4)         179.9907         estimate D2E/DX2                !
 ! D82   D(14,15,16,17)         -0.0098         estimate D2E/DX2                !
 ! D83   D(20,15,16,4)          -0.0253         estimate D2E/DX2                !
 ! D84   D(20,15,16,17)        179.9742         estimate D2E/DX2                !
 ! D85   D(14,15,20,21)         -1.8218         estimate D2E/DX2                !
 ! D86   D(14,15,20,22)        178.542          estimate D2E/DX2                !
 ! D87   D(16,15,20,21)        178.1944         estimate D2E/DX2                !
 ! D88   D(16,15,20,22)         -1.4418         estimate D2E/DX2                !
 ! D89   D(4,16,17,7)           -0.3619         estimate D2E/DX2                !
 ! D90   D(4,16,17,18)         179.6454         estimate D2E/DX2                !
 ! D91   D(15,16,17,7)         179.6386         estimate D2E/DX2                !
 ! D92   D(15,16,17,18)         -0.3542         estimate D2E/DX2                !
 ! D93   D(7,17,18,10)           0.0317         estimate D2E/DX2                !
 ! D94   D(7,17,18,19)        -179.6231         estimate D2E/DX2                !
 ! D95   D(16,17,18,10)       -179.9755         estimate D2E/DX2                !
 ! D96   D(16,17,18,19)          0.3696         estimate D2E/DX2                !
 ! D97   D(10,18,19,13)          0.4095         estimate D2E/DX2                !
 ! D98   D(10,18,19,14)       -179.6793         estimate D2E/DX2                !
 ! D99   D(17,18,19,13)       -179.9384         estimate D2E/DX2                !
 ! D100  D(17,18,19,14)         -0.0271         estimate D2E/DX2                !
 ! D101  D(15,20,21,1)           2.1602         estimate D2E/DX2                !
 ! D102  D(15,20,21,23)       -177.1891         estimate D2E/DX2                !
 ! D103  D(22,20,21,1)        -178.2075         estimate D2E/DX2                !
 ! D104  D(22,20,21,23)          2.4432         estimate D2E/DX2                !
 ! D105  D(15,20,22,3)           2.2278         estimate D2E/DX2                !
 ! D106  D(15,20,22,27)       -177.2201         estimate D2E/DX2                !
 ! D107  D(21,20,22,3)        -177.4054         estimate D2E/DX2                !
 ! D108  D(21,20,22,27)          3.1467         estimate D2E/DX2                !
 ! D109  D(1,21,23,24)          -3.7827         estimate D2E/DX2                !
 ! D110  D(1,21,23,28)         175.4046         estimate D2E/DX2                !
 ! D111  D(20,21,23,24)        175.5426         estimate D2E/DX2                !
 ! D112  D(20,21,23,28)         -5.2702         estimate D2E/DX2                !
 ! D113  D(3,22,27,28)         174.6231         estimate D2E/DX2                !
 ! D114  D(3,22,27,32)          -4.5741         estimate D2E/DX2                !
 ! D115  D(20,22,27,28)         -5.9469         estimate D2E/DX2                !
 ! D116  D(20,22,27,32)        174.8559         estimate D2E/DX2                !
 ! D117  D(21,23,24,25)        178.2844         estimate D2E/DX2                !
 ! D118  D(21,23,24,43)         -2.578          estimate D2E/DX2                !
 ! D119  D(28,23,24,25)         -0.9058         estimate D2E/DX2                !
 ! D120  D(28,23,24,43)        178.2317         estimate D2E/DX2                !
 ! D121  D(21,23,28,27)          2.4024         estimate D2E/DX2                !
 ! D122  D(21,23,28,29)       -177.2275         estimate D2E/DX2                !
 ! D123  D(24,23,28,27)       -178.3811         estimate D2E/DX2                !
 ! D124  D(24,23,28,29)          1.9889         estimate D2E/DX2                !
 ! D125  D(23,24,25,26)         -0.7506         estimate D2E/DX2                !
 ! D126  D(23,24,25,44)        179.6734         estimate D2E/DX2                !
 ! D127  D(43,24,25,26)       -179.9105         estimate D2E/DX2                !
 ! D128  D(43,24,25,44)          0.5136         estimate D2E/DX2                !
 ! D129  D(24,25,26,29)          1.2866         estimate D2E/DX2                !
 ! D130  D(24,25,26,45)       -179.4245         estimate D2E/DX2                !
 ! D131  D(44,25,26,29)       -179.1426         estimate D2E/DX2                !
 ! D132  D(44,25,26,45)          0.1462         estimate D2E/DX2                !
 ! D133  D(25,26,29,28)         -0.168          estimate D2E/DX2                !
 ! D134  D(25,26,29,30)        179.8382         estimate D2E/DX2                !
 ! D135  D(45,26,29,28)       -179.4706         estimate D2E/DX2                !
 ! D136  D(45,26,29,30)          0.5355         estimate D2E/DX2                !
 ! D137  D(22,27,28,23)          3.1425         estimate D2E/DX2                !
 ! D138  D(22,27,28,29)       -177.2278         estimate D2E/DX2                !
 ! D139  D(32,27,28,23)       -177.6311         estimate D2E/DX2                !
 ! D140  D(32,27,28,29)          1.9986         estimate D2E/DX2                !
 ! D141  D(22,27,32,31)        177.913          estimate D2E/DX2                !
 ! D142  D(22,27,32,48)         -2.6657         estimate D2E/DX2                !
 ! D143  D(28,27,32,31)         -1.289          estimate D2E/DX2                !
 ! D144  D(28,27,32,48)        178.1323         estimate D2E/DX2                !
 ! D145  D(23,28,29,26)         -1.477          estimate D2E/DX2                !
 ! D146  D(23,28,29,30)        178.517          estimate D2E/DX2                !
 ! D147  D(27,28,29,26)        178.8861         estimate D2E/DX2                !
 ! D148  D(27,28,29,30)         -1.1199         estimate D2E/DX2                !
 ! D149  D(26,29,30,31)        179.46           estimate D2E/DX2                !
 ! D150  D(26,29,30,46)          0.0501         estimate D2E/DX2                !
 ! D151  D(28,29,30,31)         -0.5339         estimate D2E/DX2                !
 ! D152  D(28,29,30,46)       -179.9438         estimate D2E/DX2                !
 ! D153  D(29,30,31,32)          1.2867         estimate D2E/DX2                !
 ! D154  D(29,30,31,47)       -179.1502         estimate D2E/DX2                !
 ! D155  D(46,30,31,32)       -179.315          estimate D2E/DX2                !
 ! D156  D(46,30,31,47)          0.2481         estimate D2E/DX2                !
 ! D157  D(30,31,32,27)         -0.3637         estimate D2E/DX2                !
 ! D158  D(30,31,32,48)       -179.7999         estimate D2E/DX2                !
 ! D159  D(47,31,32,27)       -179.9321         estimate D2E/DX2                !
 ! D160  D(47,31,32,48)          0.6317         estimate D2E/DX2                !
 --------------------------------------------------------------------------------
 Trust Radius=3.00D-01 FncErr=1.00D-07 GrdErr=1.00D-06
 Number of steps in this run=    288 maximum allowed number of steps=    288.
 GradGradGradGradGradGradGradGradGradGradGradGradGradGradGradGradGradGrad

 Leave Link  103 at Tue Jul 23 18:47:22 2019, MaxMem=  4194304000 cpu:         0.3
 (Enter /home/minenky/programs//g09/l202.exe)
                          Input orientation:                          
 ---------------------------------------------------------------------
 Center     Atomic      Atomic             Coordinates (Angstroms)
 Number     Number       Type             X           Y           Z
 ---------------------------------------------------------------------
      1          6           0       -2.757052    0.287205   -0.038923
      2          6           0       -2.229679    1.561973   -0.070062
      3          6           0        1.692488   -1.591254    0.038923
      4          6           0        2.262796   -0.297892    0.054492
      5          6           0        3.665522   -0.110864    0.101200
      6          6           0        4.207923    1.144103    0.101200
      7          6           0        3.384600    2.292260    0.062277
      8          6           0        3.935145    3.606938    0.062277
      9          6           0        3.134524    4.702466    0.023354
     10          6           0        1.711753    4.578300   -0.015569
     11          6           0        0.876208    5.702603   -0.046708
     12          6           0       -0.496268    5.549065   -0.085631
     13          6           0       -1.067466    4.280665   -0.085631
     14          6           0       -0.853375    1.784497   -0.038923
     15          6           0        0.000000    0.648419   -0.007785
     16          6           0        1.414394    0.829830    0.023354
     17          6           0        1.978526    2.133655    0.023354
     18          6           0        1.131142    3.278665   -0.015569
     19          6           0       -0.281559    3.127207   -0.046708
     20          6           0       -0.546941   -0.671051   -0.007785
     21          6           0       -1.948711   -0.850392    0.000000
     22          6           0        0.339084   -1.807899   -0.007785
     23          6           0       -2.520316   -2.200998    0.062277
     24          6           0       -3.888045   -2.423191    0.163477
     25          6           0       -4.427711   -3.716348    0.186831
     26          6           0       -3.603927   -4.809941    0.093415
     27          6           0       -0.230577   -3.163402   -0.070062
     28          6           0       -1.646046   -3.327594    0.000000
     29          6           0       -2.200546   -4.644758    0.000000
     30          6           0       -1.339072   -5.762407   -0.093415
     31          6           0        0.020096   -5.586359   -0.194616
     32          6           0        0.566384   -4.297954   -0.179046
     33          1           0       -3.831688    0.186703   -0.070062
     34          1           0       -2.915261    2.396073   -0.101200
     35          1           0        2.379848   -2.424772    0.070062
     36          1           0        4.306287   -0.984062    0.124554
     37          1           0        5.283108    1.274856    0.132339
     38          1           0        5.012963    3.714492    0.093415
     39          1           0        3.563179    5.697015    0.023354
     40          1           0        1.319590    6.690502   -0.046708
     41          1           0       -1.138097    6.420598   -0.116769
     42          1           0       -2.144451    4.204188   -0.108985
     43          1           0       -4.574171   -1.589991    0.241323
     44          1           0       -5.502741   -3.841895    0.272462
     45          1           0       -4.011782   -5.812896    0.101200
     46          1           0       -1.770451   -6.755481   -0.093415
     47          1           0        0.681893   -6.442796   -0.280246
     48          1           0        1.642008   -4.205826   -0.264677
 ---------------------------------------------------------------------
                    Distance matrix (angstroms):
                    1          2          3          4          5
     1  C    0.000000
     2  C    1.379900   0.000000
     3  C    4.830432   5.033698   0.000000
     4  C    5.054695   4.863840   1.413605   0.000000
     5  C    6.436424   6.130343   2.467447   1.415910   0.000000
     6  C    7.018888   6.453423   3.716648   2.421787   1.367165
     7  C    6.461453   5.663123   4.236209   2.822657   2.419801
     8  C    7.471035   6.496495   5.661383   4.247883   3.727769
     9  C    7.362681   6.216598   6.456828   5.075870   4.843156
    10  C    6.195503   4.963475   6.169825   4.907729   5.081251
    11  C    6.521286   5.176089   7.339891   6.159449   6.449694
    12  C    5.727172   4.347627   7.469292   6.466759   7.027816
    13  C    4.336428   2.956733   6.489398   5.663344   6.459227
    14  C    2.421956   1.394525   4.228850   3.749079   4.902291
    15  C    2.780788   2.410379   2.807638   2.453493   3.744922
    16  C    4.207051   3.718068   2.437053   1.411564   2.441013
    17  C    5.083203   4.247886   3.735908   2.448306   2.808893
    18  C    4.905857   3.774271   4.902468   3.751974   4.233866
    19  C    3.767458   2.499135   5.115473   4.267937   5.107488
    20  C    2.409111   2.796763   2.421569   2.835092   4.250945
    21  C    1.396086   2.429682   3.716009   4.247943   5.663634
    22  C    3.738514   4.237742   1.371430   2.446358   3.735906
    23  C    2.501487   3.776498   4.256765   5.147818   6.529530
    24  C    2.943868   4.322760   5.643579   6.508580   7.899817
    25  C    4.344019   5.723461   6.480335   7.514402   8.860433
    26  C    5.168714   6.520473   6.197978   7.401253   8.655996
    27  C    4.276767   5.130846   2.486304   3.800470   4.952465
    28  C    3.781881   4.924774   3.763270   4.945817   6.210503
    29  C    4.963413   6.207195   4.947839   6.230541   7.414660
    30  C    6.213811   7.378365   5.158138   6.546469   7.551409
    31  C    6.498888   7.495042   4.337315   5.749751   6.584655
    32  C    5.664675   6.493735   2.939702   4.351189   5.216792
    33  H    1.079774   2.111350   5.804268   6.114988   7.505067
    34  H    2.115711   1.080146   6.095060   5.839003   7.045027
    35  H    5.809857   6.096024   1.080826   2.130155   2.647281
    36  H    7.178691   7.017052   2.684764   2.156755   1.083328
    37  H    8.102404   7.520995   4.595200   3.406153   2.130205
    38  H    8.493347   7.557508   6.259350   4.864582   4.055737
    39  H    8.319570   7.117900   7.524533   6.134401   5.809302
    40  H    7.590868   6.236960   8.290589   7.052484   7.196100
    41  H    6.343941   4.979957   8.498601   7.532165   8.110626
    42  H    3.965217   2.643876   6.952059   6.302323   7.240141
    43  H    2.627608   3.940619   6.269927   6.960499   8.372574
    44  H    4.968424   6.327088   7.542629   8.538796   9.899847
    45  H    6.229383   7.589065   7.096819   8.353908   9.563167
    46  H    7.111665   8.330155   6.219220   7.615078   8.587119
    47  H    7.561580   8.520432   4.965947   6.353830   7.010058
    48  H    6.292060   6.949485   2.632624   3.969785   4.582269
                    6          7          8          9         10
     6  C    0.000000
     7  C    1.413379   0.000000
     8  C    2.478201   1.425299   0.000000
     9  C    3.717552   2.423457   1.357457   0.000000
    10  C    4.247141   2.833806   2.427566   1.428709   0.000000
    11  C    5.648197   4.234896   3.709553   2.470865   1.401129
    12  C    6.447326   5.068510   4.840574   3.729780   2.413017
    13  C    6.140249   4.878168   5.049941   4.224513   2.795989
    14  C    5.103575   4.269484   5.124593   4.941838   3.792857
    15  C    4.238419   3.763328   4.923729   5.124598   4.286505
    16  C    2.812229   2.453962   3.750737   4.237471   3.760447
    17  C    2.440386   1.415526   2.449579   2.816935   2.459466
    18  C    3.746541   2.461123   2.824227   2.458102   1.423433
    19  C    4.910196   3.761613   4.245305   3.762442   2.465752
    20  C    5.090716   4.923732   6.196386   6.513742   5.714669
    21  C    6.472433   6.190666   7.381831   7.528217   6.547514
    22  C    4.867659   5.107972   6.500540   7.085217   6.532061
    23  C    7.514015   7.420067   8.683611   8.923931   7.992206
    24  C    8.847269   8.668165   9.878006  10.005553   8.967200
    25  C    9.909868   9.856525  11.116807  11.317710  10.321588
    26  C    9.822204   9.964022  11.299665  11.657509  10.789226
    27  C    6.187424   6.546088   7.950362   8.555963   7.981827
    28  C    7.367175   7.542814   8.901759   9.345387   8.589425
    29  C    8.636529   8.906175  10.283048  10.762626  10.018539
    30  C    8.860412   9.338896  10.752964  11.381576  10.781642
    31  C    7.932498   8.570794   9.995515  10.752074  10.306020
    32  C    6.554031   7.171576   8.596168   9.361830   8.951340
    33  H    8.098228   7.518357   8.487592   8.302346   7.072399
    34  H    7.235202   6.302837   6.958519   6.475713   5.116513
    35  H    4.009950   4.822860   6.229008   7.167234   7.035389
    36  H    2.130565   3.404067   4.606398   5.806881   6.139309
    37  H    1.083554   2.155076   2.694535   4.046826   4.867155
    38  H    2.693520   2.162239   1.083619   2.123566   3.414093
    39  H    4.598996   3.409657   2.123275   1.082993   2.163519
    40  H    6.255149   4.860111   4.044919   2.692802   2.148525
    41  H    7.514575   6.126175   5.804009   4.607266   3.394989
    42  H    7.054144   5.852795   6.111262   5.304090   3.875435
    43  H    9.198917   8.856973   9.972391   9.953216   8.810599
    44  H   10.917257  10.800781  12.025098  12.151975  11.091960
    45  H   10.768630  10.972763  12.324303  12.714110  11.863787
    46  H    9.908696  10.414433  11.830376  12.464227  11.856913
    47  H    8.374928   9.150036  10.568733  11.415973  11.072273
    48  H    5.944706   6.735625   8.148905   9.037048   8.787934
                   11         12         13         14         15
    11  C    0.000000
    12  C    1.381586   0.000000
    13  C    2.408587   1.391081   0.000000
    14  C    4.282881   3.781756   2.505768   0.000000
    15  C    5.129720   4.926325   3.786655   1.421229   0.000000
    16  C    4.902904   5.092513   4.252031   2.461309   1.426320
    17  C    3.735961   4.219183   3.728216   2.854024   2.474159
    18  C    2.437506   2.794296   2.417186   2.484228   2.863169
    19  C    2.823666   2.431668   1.396292   1.459419   2.495031
    20  C    6.530722   6.220810   4.979608   2.474790   1.428337
    21  C    7.136112   6.562772   5.206887   2.853755   2.458449
    22  C    7.529785   7.404647   6.249404   3.785266   2.479612
    23  C    8.603206   8.011375   6.644141   4.321239   3.804744
    24  C    9.421826   8.667357   7.277321   5.191804   4.957924
    25  C   10.812157  10.068682   8.678577   6.564003   6.220425
    26  C   11.428247  10.816589   9.439534   7.146304   6.541577
    27  C    8.934851   8.716531   7.490979   4.987038   3.819296
    28  C    9.375948   8.951223   7.630707   5.173327   4.303279
    29  C   10.795206  10.335663   8.997465   6.568996   5.732380
    30  C   11.677162  11.342829  10.046747   7.562713   6.549743
    31  C   11.322344  11.147923   9.927378   7.424063   6.237609
    32  C   10.006230   9.904632   8.733321   6.247524   4.981639
    33  H    7.251895   6.315077   4.939807   3.379980   3.859908
    34  H    5.031038   3.974057   2.639370   2.151576   3.400260
    35  H    8.266123   8.478111   7.541293   5.308819   3.887704
    36  H    7.517065   8.111132   7.525872   5.857794   4.607235
    37  H    6.249621   7.191492   7.029380   6.159991   5.321963
    38  H    4.591836   5.809418   6.109356   6.177080   5.877146
    39  H    2.687890   4.063604   4.843635   5.900646   6.179445
    40  H    1.082835   2.145165   3.392177   5.365699   6.184626
    41  H    2.139591   1.082813   2.141325   4.645488   5.884318
    42  H    3.372463   2.127380   1.079949   2.743481   4.153601
    43  H    9.108870   8.228141   6.846056   5.030907   5.098586
    44  H   11.484350  10.648152   9.261527   7.305467   7.107856
    45  H   12.510837  11.894869  10.515887   8.228946   7.606238
    46  H   12.736202  12.370346  11.058516   8.589250   7.613118
    47  H   12.149198  12.051169  10.866957   8.372791   7.129133
    48  H    9.940368   9.988102   8.910322   6.493217   5.130875
                   16         17         18         19         20
    16  C    0.000000
    17  C    1.420635   0.000000
    18  C    2.465469   1.424999   0.000000
    19  C    2.856415   2.469826   1.421138   0.000000
    20  C    2.469909   3.774298   4.291419   3.807717   0.000000
    21  C    3.759543   4.932370   5.151199   4.313105   1.413217
    22  C    2.848662   4.269027   5.147868   4.974131   1.441341
    23  C    4.966828   6.247424   6.585280   5.780457   2.497970
    24  C    6.222350   7.429747   7.598385   6.622525   3.776546
    25  C    7.404367   8.676931   8.937115   8.004959   4.936809
    26  C    7.549535   8.909670   9.373276   8.605584   5.146437
    27  C    4.319787   5.740007   6.584639   6.290859   2.513121
    28  C    5.162462   6.554640   7.166287   6.597610   2.874946
    29  C    6.560446   7.963170   8.595407   8.005506   4.304047
    30  C    7.145124   8.565506   9.372780   8.952416   5.153320
    31  C    6.569555   7.967533   8.936170   8.720040   4.951433
    32  C    5.201371   6.587921   7.599397   7.474593   3.797795
    33  H    5.286182   6.128453   5.847468   4.609829   3.395465
    34  H    4.605925   4.902400   4.142424   2.733846   3.876199
    35  H    3.395102   4.576297   5.839160   6.158019   3.412871
    36  H    3.415185   3.892155   5.317144   6.162807   4.865112
    37  H    3.895751   3.416091   4.612586   5.867604   6.147817
    38  H    4.612579   3.422245   3.907730   5.328837   7.082073
    39  H    5.320410   3.899828   3.429976   4.625022   7.579335
    40  H    5.861857   4.604776   3.417179   3.906501   7.594598
    41  H    6.147482   5.301967   3.877039   3.403673   7.117080
    42  H    4.906035   4.615578   3.405118   2.152704   5.131300
    43  H    6.462659   7.539953   7.504692   6.384468   4.138247
    44  H    8.350678   9.578027   9.736208   8.713839   5.890055
    45  H    8.577602   9.951760  10.446042   9.688234   6.201256
    46  H    8.227625   9.648067  10.445544   9.994324   6.206819
    47  H    7.315724   8.679225   9.735434   9.621213   5.907394
    48  H    5.049020   6.354937   7.506041   7.584260   4.165588
                   21         22         23         24         25
    21  C    0.000000
    22  C    2.480098   0.000000
    23  C    1.467906   2.887145   0.000000
    24  C    2.502287   4.275106   1.389350   0.000000
    25  C    3.793949   5.138325   2.439253   1.401442   0.000000
    26  C    4.292609   4.956797   2.825202   2.404622   1.372331
    27  C    2.882171   1.471659   2.487296   3.738920   4.241188
    28  C    2.495623   2.500055   1.427391   2.423062   2.814906
    29  C    3.802714   3.807565   2.465379   2.794591   2.420148
    30  C    4.950584   4.296705   3.755424   4.208755   3.715452
    31  C    5.132588   3.796501   4.240325   5.040578   4.839982
    32  C    4.271235   2.506266   3.739409   4.844997   5.041142
    33  H    2.150832   4.623598   2.727329   2.620928   3.956646
    34  H    3.388804   5.317224   4.616900   4.923583   6.303345
    35  H    4.606518   2.133380   4.905277   6.268589   6.929983
    36  H    6.257666   4.054001   6.934502   8.319837   9.151611
    37  H    7.538793   5.828069   8.542827   9.888709  10.918566
    38  H    8.325371   7.235481   9.578324  10.812216  12.014676
    39  H    8.558622   8.168200   9.969405  11.021711  12.348783
    40  H    8.218823   8.554866   9.685842  10.498716  11.890691
    41  H    7.316968   8.360748   8.733528   9.265709  10.661679
    42  H    5.059543   6.505642   6.418490   6.858317   8.248374
    43  H    2.738299   4.924390   2.150281   1.082151   2.132091
    44  H    4.653435   6.192140   3.410510   2.152171   1.085718
    45  H    5.375216   5.914551   3.907914   3.392534   2.139122
    46  H    5.908518   5.379223   4.618425   4.828968   4.046714
    47  H    6.186566   4.655537   5.325816   6.102331   5.810313
    48  H    4.921611   2.741105   4.631541   5.826027   6.106139
                   26         27         28         29         30
    26  C    0.000000
    27  C    3.757300   0.000000
    28  C    2.457514   1.426682   0.000000
    29  C    1.416153   2.465786   1.429123   0.000000
    30  C    2.464075   2.825621   2.455865   1.414215   0.000000
    31  C    3.717436   2.439072   2.813525   2.419863   1.374253
    32  C    4.210447   1.390767   2.422499   2.794321   2.404728
    33  H    5.004503   4.918455   4.139109   5.099858   6.450240
    34  H    7.241462   6.173837   5.863575   7.077737   8.309346
    35  H    6.441672   2.716529   4.126478   5.090506   4.999690
    36  H    8.786911   5.036917   6.398275   7.466933   7.399336
    37  H   10.770592   7.080948   8.319449   9.542768   9.665780
    38  H   12.120922   8.650252   9.692373  11.041762  11.410297
    39  H   12.718822   9.638895  10.420179  11.839482  12.464512
    40  H   12.510829   9.975118  10.447939  11.869358  12.733641
    41  H   11.499978   9.626984   9.762115  11.116858  12.184685
    42  H    9.133759   7.612215   7.549041   8.849795   9.999095
    43  H    3.366204   4.630269   3.413417   3.876072   5.290271
    44  H    2.138847   5.326668   3.900364   3.409298   4.599823
    45  H    1.082740   4.620245   3.432736   2.157629   2.680262
    46  H    2.679863   3.908297   3.431416   2.156121   1.082721
    47  H    4.601531   3.410455   3.899015   3.408802   2.140592
    48  H    5.292733   2.151999   3.413597   3.876588   3.367360
                   31         32         33         34         35
    31  C    0.000000
    32  C    1.399521   0.000000
    33  H    6.941181   6.282282   0.000000
    34  H    8.505543   7.545721   2.392096   0.000000
    35  H    3.954000   2.619068   6.739630   7.162964   0.000000
    36  H    6.297177   5.006089   8.224062   7.976656   2.406197
    37  H    8.653466   7.307575   9.181751   8.277978   4.703195
    38  H   10.560185   9.167638   9.523648   8.039455   6.680150
    39  H   11.828587  10.436530   9.222598   7.271995   8.207672
    40  H   12.346331  11.015035   8.296723   6.031505   9.177473
    41  H   12.062939  10.853409   6.791102   4.399472   9.521104
    42  H   10.027333   8.924122   4.357576   1.965576   8.027730
    43  H    6.104776   5.825382   1.950611   4.331052   7.006038
    44  H    5.810598   6.102961   4.374853   6.763647   8.011518
    45  H    4.049057   4.830444   6.004744   8.284352   7.234175
    46  H    2.140828   3.392281   7.241765   9.222884   6.000562
    47  H    1.085722   2.150333   8.022895   9.544484   4.376104
    48  H    2.131051   1.082953   7.020935   8.023746   1.956684
                   36         37         38         39         40
    36  H    0.000000
    37  H    2.461087   0.000000
    38  H    4.751502   2.454856   0.000000
    39  H    6.723038   4.746106   2.457067   0.000000
    40  H    8.237028   6.713476   4.745237   2.454713   0.000000
    41  H    9.193941   8.232411   6.723297   4.758698   2.473456
    42  H    8.281576   7.987982   7.177001   5.901109   4.264413
    43  H    8.901872  10.265728  10.957762  10.925403  10.167888
    44  H   10.217931  11.938815  12.950331  13.162210  12.552986
    45  H    9.618132  11.688977  13.123155  13.779120  13.593394
    46  H    8.383527  10.690649  12.476776  13.547173  13.796557
    47  H    6.564897   8.994641  11.048452  12.480745  13.150845
    48  H    4.198767   6.591897   8.615277  10.091587  10.903276
                   41         42         43         44         45
    41  H    0.000000
    42  H    2.434190   0.000000
    43  H    8.723782   6.292755   0.000000
    44  H   11.158870   8.727145   2.436038   0.000000
    45  H   12.568371  10.191814   4.262493   2.477324   0.000000
    46  H   13.191265  10.966060   5.886865   4.748983   2.439243
    47  H   12.992536  11.017069   7.172723   6.732003   4.751090
    48  H   10.985069   9.224416   6.763099   7.174148   5.889132
                   46         47         48
    46  H    0.000000
    47  H    2.479248   0.000000
    48  H    4.263209   2.434358   0.000000
 Stoichiometry    C32H16
 Framework group  C1[X(C32H16)]
 Deg. of freedom   138
 Full point group                 C1      NOp   1
 Largest Abelian subgroup         C1      NOp   1
 Largest concise Abelian subgroup C1      NOp   1
                         Standard orientation:                         
 ---------------------------------------------------------------------
 Center     Atomic      Atomic             Coordinates (Angstroms)
 Number     Number       Type             X           Y           Z
 ---------------------------------------------------------------------
      1          6           0       -0.933795   -2.609934    0.039763
      2          6           0        0.443662   -2.685934    0.070784
      3          6           0       -0.702454    2.214294   -0.040097
      4          6           0        0.710336    2.168940   -0.055800
      5          6           0        1.485790    3.352679   -0.103080
      6          6           0        2.851892    3.298781   -0.103205
      7          6           0        3.530871    2.059798   -0.063845
      8          6           0        4.954331    1.987411   -0.063969
      9          6           0        5.595682    0.791664   -0.024622
     10          6           0        4.868231   -0.437346    0.014886
     11          6           0        5.520415   -1.677032    0.046465
     12          6           0        4.788241   -2.847989    0.085950
     13          6           0        3.397569   -2.814243    0.086087
     14          6           0        1.239689   -1.541367    0.039088
     15          6           0        0.584602   -0.280512    0.007500
     16          6           0        1.360041    0.916183   -0.024215
     17          6           0        2.779594    0.860741   -0.024346
     18          6           0        3.445326   -0.398573    0.015024
     19          6           0        2.697625   -1.606700    0.046741
     20          6           0       -0.841619   -0.202802    0.007622
     21          6           0       -1.609734   -1.389027    0.000410
     22          6           0       -1.483272    1.087835    0.007160
     23          6           0       -3.074704   -1.320110   -0.061737
     24          6           0       -3.866737   -2.457145   -0.162383
     25          6           0       -5.266090   -2.384269   -0.185615
     26          6           0       -5.895661   -1.168421   -0.092633
     27          6           0       -2.951802    1.160675    0.069566
     28          6           0       -3.712192   -0.044480    0.000083
     29          6           0       -5.139604    0.025417    0.000209
     30          6           0       -5.774559    1.285652    0.093173
     31          6           0       -5.027832    2.434931    0.193819
     32          6           0       -3.629903    2.370066    0.178125
     33          1           0       -1.489304   -3.535313    0.071343
     34          1           0        0.899081   -3.664871    0.102277
     35          1           0       -1.156579    3.194582   -0.071590
     36          1           0        0.975733    4.308127   -0.126772
     37          1           0        3.434912    4.211567   -0.134783
     38          1           0        5.517574    2.912607   -0.095550
     39          1           0        6.677788    0.747875   -0.024721
     40          1           0        6.602897   -1.704666    0.046359
     41          1           0        5.296337   -3.803673    0.117428
     42          1           0        2.862704   -3.752136    0.109885
     43          1           0       -3.412377   -3.436227   -0.239875
     44          1           0       -5.844362   -3.299216   -0.270806
     45          1           0       -6.976349   -1.102246   -0.100328
     46          1           0       -6.856514    1.326347    0.093274
     47          1           0       -5.513667    3.402135    0.279104
     48          1           0       -3.081504    3.300006    0.263313
 ---------------------------------------------------------------------
 Rotational constants (GHZ):      0.3324078      0.0950644      0.0739889
 Leave Link  202 at Tue Jul 23 18:47:23 2019, MaxMem=  4194304000 cpu:         1.2
 (Enter /home/minenky/programs//g09/l301.exe)
 Standard basis: def2TZVP (5D, 7F)
 ======================================================================================================
                                       Pseudopotential Parameters
 ======================================================================================================
  Center     Atomic      Valence      Angular      Power
  Number     Number     Electrons     Momentum     of R      Exponent        Coefficient   SO-Coeffient
 ======================================================================================================
    1          6
                                   No pseudopotential on this center.
    2          6
                                   No pseudopotential on this center.
    3          6
                                   No pseudopotential on this center.
    4          6
                                   No pseudopotential on this center.
    5          6
                                   No pseudopotential on this center.
    6          6
                                   No pseudopotential on this center.
    7          6
                                   No pseudopotential on this center.
    8          6
                                   No pseudopotential on this center.
    9          6
                                   No pseudopotential on this center.
   10          6
                                   No pseudopotential on this center.
   11          6
                                   No pseudopotential on this center.
   12          6
                                   No pseudopotential on this center.
   13          6
                                   No pseudopotential on this center.
   14          6
                                   No pseudopotential on this center.
   15          6
                                   No pseudopotential on this center.
   16          6
                                   No pseudopotential on this center.
   17          6
                                   No pseudopotential on this center.
   18          6
                                   No pseudopotential on this center.
   19          6
                                   No pseudopotential on this center.
   20          6
                                   No pseudopotential on this center.
   21          6
                                   No pseudopotential on this center.
   22          6
                                   No pseudopotential on this center.
   23          6
                                   No pseudopotential on this center.
   24          6
                                   No pseudopotential on this center.
   25          6
                                   No pseudopotential on this center.
   26          6
                                   No pseudopotential on this center.
   27          6
                                   No pseudopotential on this center.
   28          6
                                   No pseudopotential on this center.
   29          6
                                   No pseudopotential on this center.
   30          6
                                   No pseudopotential on this center.
   31          6
                                   No pseudopotential on this center.
   32          6
                                   No pseudopotential on this center.
   33          1
                                   No pseudopotential on this center.
   34          1
                                   No pseudopotential on this center.
   35          1
                                   No pseudopotential on this center.
   36          1
                                   No pseudopotential on this center.
   37          1
                                   No pseudopotential on this center.
   38          1
                                   No pseudopotential on this center.
   39          1
                                   No pseudopotential on this center.
   40          1
                                   No pseudopotential on this center.
   41          1
                                   No pseudopotential on this center.
   42          1
                                   No pseudopotential on this center.
   43          1
                                   No pseudopotential on this center.
   44          1
                                   No pseudopotential on this center.
   45          1
                                   No pseudopotential on this center.
   46          1
                                   No pseudopotential on this center.
   47          1
                                   No pseudopotential on this center.
   48          1
                                   No pseudopotential on this center.
 ======================================================================================================
 Ernie: Thresh=  0.10000D-02 Tol=  0.10000D-05 Strict=F.
 AO basis set (Overlap normalization):
 Atom C1       Shell     1 S   6     bf    1 -     1         -1.764616655087         -4.932061128677          0.075141533470
      0.1357534968D+05  0.6064550360D-03
      0.2035233368D+04  0.4697908888D-02
      0.4632256236D+03  0.2433247765D-01
      0.1312001960D+03  0.9739996831D-01
      0.4285301589D+02  0.3019558425D+00
      0.1558418577D+02  0.6623360914D+00
 Atom C1       Shell     2 S   2     bf    2 -     2         -1.764616655087         -4.932061128677          0.075141533470
      0.6206713851D+01  0.6559530854D+00
      0.2576489653D+01  0.3758563329D+00
 Atom C1       Shell     3 S   1     bf    3 -     3         -1.764616655087         -4.932061128677          0.075141533470
      0.5769633942D+00  0.1000000000D+01
 Atom C1       Shell     4 S   1     bf    4 -     4         -1.764616655087         -4.932061128677          0.075141533470
      0.2297283136D+00  0.1000000000D+01
 Atom C1       Shell     5 S   1     bf    5 -     5         -1.764616655087         -4.932061128677          0.075141533470
      0.9516444003D-01  0.1000000000D+01
 Atom C1       Shell     6 P   4     bf    6 -     8         -1.764616655087         -4.932061128677          0.075141533470
      0.3469723224D+02  0.1132722000D-01
      0.7958262283D+01  0.7616965920D-01
      0.2378082688D+01  0.3019225220D+00
      0.8143320818D+00  0.7278502735D+00
 Atom C1       Shell     7 P   1     bf    9 -    11         -1.764616655087         -4.932061128677          0.075141533470
      0.2888754725D+00  0.1000000000D+01
 Atom C1       Shell     8 P   1     bf   12 -    14         -1.764616655087         -4.932061128677          0.075141533470
      0.1005682367D+00  0.1000000000D+01
 Atom C1       Shell     9 D   1     bf   15 -    19         -1.764616655087         -4.932061128677          0.075141533470
      0.1097000000D+01  0.1000000000D+01
 Atom C1       Shell    10 D   1     bf   20 -    24         -1.764616655087         -4.932061128677          0.075141533470
      0.3180000000D+00  0.1000000000D+01
 Atom C1       Shell    11 F   1     bf   25 -    31         -1.764616655087         -4.932061128677          0.075141533470
      0.7610000000D+00  0.1000000000D+01
 Atom C2       Shell    12 S   6     bf   32 -    32          0.838399322770         -5.075680414088          0.133762414941
      0.1357534968D+05  0.6064550360D-03
      0.2035233368D+04  0.4697908888D-02
      0.4632256236D+03  0.2433247765D-01
      0.1312001960D+03  0.9739996831D-01
      0.4285301589D+02  0.3019558425D+00
      0.1558418577D+02  0.6623360914D+00
 Atom C2       Shell    13 S   2     bf   33 -    33          0.838399322770         -5.075680414088          0.133762414941
      0.6206713851D+01  0.6559530854D+00
      0.2576489653D+01  0.3758563329D+00
 Atom C2       Shell    14 S   1     bf   34 -    34          0.838399322770         -5.075680414088          0.133762414941
      0.5769633942D+00  0.1000000000D+01
 Atom C2       Shell    15 S   1     bf   35 -    35          0.838399322770         -5.075680414088          0.133762414941
      0.2297283136D+00  0.1000000000D+01
 Atom C2       Shell    16 S   1     bf   36 -    36          0.838399322770         -5.075680414088          0.133762414941
      0.9516444003D-01  0.1000000000D+01
 Atom C2       Shell    17 P   4     bf   37 -    39          0.838399322770         -5.075680414088          0.133762414941
      0.3469723224D+02  0.1132722000D-01
      0.7958262283D+01  0.7616965920D-01
      0.2378082688D+01  0.3019225220D+00
      0.8143320818D+00  0.7278502735D+00
 Atom C2       Shell    18 P   1     bf   40 -    42          0.838399322770         -5.075680414088          0.133762414941
      0.2888754725D+00  0.1000000000D+01
 Atom C2       Shell    19 P   1     bf   43 -    45          0.838399322770         -5.075680414088          0.133762414941
      0.1005682367D+00  0.1000000000D+01
 Atom C2       Shell    20 D   1     bf   46 -    50          0.838399322770         -5.075680414088          0.133762414941
      0.1097000000D+01  0.1000000000D+01
 Atom C2       Shell    21 D   1     bf   51 -    55          0.838399322770         -5.075680414088          0.133762414941
      0.3180000000D+00  0.1000000000D+01
 Atom C2       Shell    22 F   1     bf   56 -    62          0.838399322770         -5.075680414088          0.133762414941
      0.7610000000D+00  0.1000000000D+01
 Atom C3       Shell    23 S   6     bf   63 -    63         -1.327444799766          4.184409028079         -0.075771930014
      0.1357534968D+05  0.6064550360D-03
      0.2035233368D+04  0.4697908888D-02
      0.4632256236D+03  0.2433247765D-01
      0.1312001960D+03  0.9739996831D-01
      0.4285301589D+02  0.3019558425D+00
      0.1558418577D+02  0.6623360914D+00
 Atom C3       Shell    24 S   2     bf   64 -    64         -1.327444799766          4.184409028079         -0.075771930014
      0.6206713851D+01  0.6559530854D+00
      0.2576489653D+01  0.3758563329D+00
 Atom C3       Shell    25 S   1     bf   65 -    65         -1.327444799766          4.184409028079         -0.075771930014
      0.5769633942D+00  0.1000000000D+01
 Atom C3       Shell    26 S   1     bf   66 -    66         -1.327444799766          4.184409028079         -0.075771930014
      0.2297283136D+00  0.1000000000D+01
 Atom C3       Shell    27 S   1     bf   67 -    67         -1.327444799766          4.184409028079         -0.075771930014
      0.9516444003D-01  0.1000000000D+01
 Atom C3       Shell    28 P   4     bf   68 -    70         -1.327444799766          4.184409028079         -0.075771930014
      0.3469723224D+02  0.1132722000D-01
      0.7958262283D+01  0.7616965920D-01
      0.2378082688D+01  0.3019225220D+00
      0.8143320818D+00  0.7278502735D+00
 Atom C3       Shell    29 P   1     bf   71 -    73         -1.327444799766          4.184409028079         -0.075771930014
      0.2888754725D+00  0.1000000000D+01
 Atom C3       Shell    30 P   1     bf   74 -    76         -1.327444799766          4.184409028079         -0.075771930014
      0.1005682367D+00  0.1000000000D+01
 Atom C3       Shell    31 D   1     bf   77 -    81         -1.327444799766          4.184409028079         -0.075771930014
      0.1097000000D+01  0.1000000000D+01
 Atom C3       Shell    32 D   1     bf   82 -    86         -1.327444799766          4.184409028079         -0.075771930014
      0.3180000000D+00  0.1000000000D+01
 Atom C3       Shell    33 F   1     bf   87 -    93         -1.327444799766          4.184409028079         -0.075771930014
      0.7610000000D+00  0.1000000000D+01
 Atom C4       Shell    34 S   6     bf   94 -    94          1.342341192264          4.098702383414         -0.105446985221
      0.1357534968D+05  0.6064550360D-03
      0.2035233368D+04  0.4697908888D-02
      0.4632256236D+03  0.2433247765D-01
      0.1312001960D+03  0.9739996831D-01
      0.4285301589D+02  0.3019558425D+00
      0.1558418577D+02  0.6623360914D+00
 Atom C4       Shell    35 S   2     bf   95 -    95          1.342341192264          4.098702383414         -0.105446985221
      0.6206713851D+01  0.6559530854D+00
      0.2576489653D+01  0.3758563329D+00
 Atom C4       Shell    36 S   1     bf   96 -    96          1.342341192264          4.098702383414         -0.105446985221
      0.5769633942D+00  0.1000000000D+01
 Atom C4       Shell    37 S   1     bf   97 -    97          1.342341192264          4.098702383414         -0.105446985221
      0.2297283136D+00  0.1000000000D+01
 Atom C4       Shell    38 S   1     bf   98 -    98          1.342341192264          4.098702383414         -0.105446985221
      0.9516444003D-01  0.1000000000D+01
 Atom C4       Shell    39 P   4     bf   99 -   101          1.342341192264          4.098702383414         -0.105446985221
      0.3469723224D+02  0.1132722000D-01
      0.7958262283D+01  0.7616965920D-01
      0.2378082688D+01  0.3019225220D+00
      0.8143320818D+00  0.7278502735D+00
 Atom C4       Shell    40 P   1     bf  102 -   104          1.342341192264          4.098702383414         -0.105446985221
      0.2888754725D+00  0.1000000000D+01
 Atom C4       Shell    41 P   1     bf  105 -   107          1.342341192264          4.098702383414         -0.105446985221
      0.1005682367D+00  0.1000000000D+01
 Atom C4       Shell    42 D   1     bf  108 -   112          1.342341192264          4.098702383414         -0.105446985221
      0.1097000000D+01  0.1000000000D+01
 Atom C4       Shell    43 D   1     bf  113 -   117          1.342341192264          4.098702383414         -0.105446985221
      0.3180000000D+00  0.1000000000D+01
 Atom C4       Shell    44 F   1     bf  118 -   124          1.342341192264          4.098702383414         -0.105446985221
      0.7610000000D+00  0.1000000000D+01
 Atom C5       Shell    45 S   6     bf  125 -   125          2.807735870573          6.335644794165         -0.194792469407
      0.1357534968D+05  0.6064550360D-03
      0.2035233368D+04  0.4697908888D-02
      0.4632256236D+03  0.2433247765D-01
      0.1312001960D+03  0.9739996831D-01
      0.4285301589D+02  0.3019558425D+00
      0.1558418577D+02  0.6623360914D+00
 Atom C5       Shell    46 S   2     bf  126 -   126          2.807735870573          6.335644794165         -0.194792469407
      0.6206713851D+01  0.6559530854D+00
      0.2576489653D+01  0.3758563329D+00
 Atom C5       Shell    47 S   1     bf  127 -   127          2.807735870573          6.335644794165         -0.194792469407
      0.5769633942D+00  0.1000000000D+01
 Atom C5       Shell    48 S   1     bf  128 -   128          2.807735870573          6.335644794165         -0.194792469407
      0.2297283136D+00  0.1000000000D+01
 Atom C5       Shell    49 S   1     bf  129 -   129          2.807735870573          6.335644794165         -0.194792469407
      0.9516444003D-01  0.1000000000D+01
 Atom C5       Shell    50 P   4     bf  130 -   132          2.807735870573          6.335644794165         -0.194792469407
      0.3469723224D+02  0.1132722000D-01
      0.7958262283D+01  0.7616965920D-01
      0.2378082688D+01  0.3019225220D+00
      0.8143320818D+00  0.7278502735D+00
 Atom C5       Shell    51 P   1     bf  133 -   135          2.807735870573          6.335644794165         -0.194792469407
      0.2888754725D+00  0.1000000000D+01
 Atom C5       Shell    52 P   1     bf  136 -   138          2.807735870573          6.335644794165         -0.194792469407
      0.1005682367D+00  0.1000000000D+01
 Atom C5       Shell    53 D   1     bf  139 -   143          2.807735870573          6.335644794165         -0.194792469407
      0.1097000000D+01  0.1000000000D+01
 Atom C5       Shell    54 D   1     bf  144 -   148          2.807735870573          6.335644794165         -0.194792469407
      0.3180000000D+00  0.1000000000D+01
 Atom C5       Shell    55 F   1     bf  149 -   155          2.807735870573          6.335644794165         -0.194792469407
      0.7610000000D+00  0.1000000000D+01
 Atom C6       Shell    56 S   6     bf  156 -   156          5.389295457618          6.233792757093         -0.195029712393
      0.1357534968D+05  0.6064550360D-03
      0.2035233368D+04  0.4697908888D-02
      0.4632256236D+03  0.2433247765D-01
[...]
 .00030849,0.10202646,0.00004455,-0.00009328,0.00000958,-0.00002333,0.0
 0003041,0.00000327,0.00001061,-0.00001998,-0.00000065,-0.00000831,0.00
 000903,0.00000126,0.00000708,-0.00001239,0.00000051,-0.00000487,-0.000
 00724,-0.00000046,-0.00001151,0.00000065,-0.00000007,0.00000846,0.0000
 0455,0.00000012,-0.00000215,-0.00000537,0.00000009,-0.00000064,-0.0000
 0520,-0.00000009,-0.00000216,-0.00000738,0.00000007,-0.00000310,0.0000
 0565,-0.00000003,0.00000152,-0.00001420,0.00000010,-0.00002413,-0.0000
 0530,-0.00000098,-0.00001181,-0.00001098,-0.00000208,0.00000237,-0.000
 01356,-0.00000084,-0.00000597,0.00000830,-0.00000053,-0.00000596,-0.00
 001052,0.00000026,0.00000412,0.00002422,-0.00000044,0.00000009,-0.0000
 3767,0.00000002,-0.00004542,0.00001381,0.00002228,-0.00007608,0.000057
 26,0.00000355,0.00051103,0.00035520,0.00000124,0.00419239,-0.00189719,
 -0.00045554,-0.01269425,-0.01808494,0.00031003,-0.09843001,-0.29949156
 ,0.00031569,0.00049764,-0.00030032,-0.00002772,-0.00038203,0.00136642,
 -0.00005969,0.00050377,-0.00146956,-0.00009439,0.00178713,0.00095535,-
 0.00002647,-0.00046152,-0.00003341,0.00002700,-0.00000686,0.00038317,0
 .00001056,-0.00004806,0.00006836,-0.00001072,0.00000318,-0.00000737,0.
 00000030,0.00000202,0.00001140,0.00000064,0.00000029,0.00000363,0.0000
 0013,-0.00000431,-0.00000265,-0.00000006,-0.00000393,-0.00000032,-0.00
 000005,-0.00000049,-0.00000345,0.00000002,-0.00000240,-0.00000254,-0.0
 0000005,0.00000191,-0.00000362,0.00000004,-0.00000091,0.00000587,-0.00
 000016,-0.00055556,-0.00099072,0.00003561,0.00032774,0.00080165,0.0000
 8802,0.10541323,0.31810472,0.00003921,0.00001387,0.00005325,-0.0000287
 6,-0.00001434,-0.00007998,-0.00001404,0.00000570,-0.00000870,0.0000134
 3,0.00000996,-0.00012081,-0.00000634,-0.00000282,-0.00000330,0.0000004
 4,0.00000627,0.00001384,0.00000367,-0.00000398,-0.00000728,0.00000040,
 0.00000177,-0.00000093,0.00000106,-0.00000076,-0.00000383,-0.00000192,
 0.00000082,0.00000915,0.00000197,-0.00000090,-0.00000331,-0.00000170,-
 0.00000078,-0.00000264,0.00000018,0.00000168,-0.00000403,0.00002424,-0
 .00000716,-0.00002686,-0.00001313,0.00001634,0.00008357,0.00000572,0.0
 0000131,-0.00000457,-0.00000509,-0.00000111,0.00002553,0.00000132,-0.0
 0000107,-0.00001917,-0.00000144,-0.00000235,0.00003036,-0.00002781,-0.
 00001477,0.00004819,-0.00003163,0.00003048,-0.00101611,0.00004988,-0.0
 0002533,0.00025485,0.00013512,-0.00009660,-0.00112404,0.00065466,-0.00
 037307,0.00873077,-0.00071470,-0.00129956,0.00358756,0.00184240,0.0002
 6705,-0.03596143,0.00002874,0.00008391,0.00000088,0.00046291,0.0001332
 3,0.00521888,0.00025955,0.00129028,0.00282136,-0.00016869,0.00019489,-
 0.00290736,-0.00003107,-0.00001899,-0.00015146,-0.00001030,0.00002286,
 -0.00007058,-0.00001057,0.00001251,0.00011037,0.00000023,0.00000084,-0
 .00000017,-0.00000261,-0.00000004,0.00005766,-0.00000013,-0.00000005,-
 0.00000237,-0.00000009,0.00000020,0.00000124,-0.00000014,-0.00000004,0
 .00000066,0.00000003,-0.00000003,0.00000046,-0.00000005,0.,0.00000122,
 0.00000002,0.00000005,0.00000102,-0.00000030,0.00000025,0.00000397,-0.
 00003935,-0.00010489,-0.00001455,-0.00031671,0.00012020,-0.00484198,-0
 .00214206,-0.00017255,0.02487313,0.00006814,0.00009112,-0.00000357,-0.
 00003602,0.00000159,-0.00000403,-0.00009219,-0.00002610,-0.00001526,0.
 00008644,0.00001814,-0.00000095,-0.00000957,-0.00001223,-0.00000042,0.
 00000364,0.00000386,-0.00000069,-0.00000373,-0.00000751,-0.00000017,0.
 00001237,0.00000577,0.00000045,-0.00000347,-0.00000765,-0.00000046,-0.
 00000280,-0.00000585,0.00000093,0.00000283,-0.00000362,-0.00000026,-0.
 00000263,0.00000147,0.00000020,0.00000047,-0.00000405,-0.00000031,0.00
 000870,-0.00000171,-0.00000054,0.00000335,-0.00003067,0.00000287,-0.00
 000174,-0.00001782,-0.00000031,0.00000056,-0.00000151,0.00000125,-0.00
 000796,-0.00000321,-0.00000149,0.00000937,0.00000049,0.00000175,-0.000
 07028,-0.00002656,0.00000042,-0.00022804,0.00011671,0.00001490,0.00007
 321,-0.00009174,-0.00006006,0.00039070,0.00091282,-0.00000735,0.000287
 66,0.00024274,-0.00001602,0.00012310,-0.00057586,-0.00002722,0.0010723
 4,0.00170221,-0.00016261,-0.00087812,0.00067064,-0.00000284,-0.0021141
 6,0.00265224,0.00043694,0.01026657,0.01753051,0.00003750,-0.10357446,-
 0.10152807,0.00119706,-0.00668493,-0.03077579,-0.00027556,-0.00554180,
 0.00046930,0.00082805,0.00000190,0.00000007,0.00000121,0.00000435,0.00
 000552,0.00000031,0.00009261,0.00000591,0.00001753,0.00000759,0.000003
 87,0.00000086,-0.00000421,-0.00000291,0.00000005,-0.00000314,-0.000000
 39,-0.00000002,0.00000034,-0.00000261,0.00000010,-0.00000127,-0.000001
 70,0.,0.00000149,-0.00000227,0.00000007,0.00000112,0.00000138,-0.00000
 018,-0.00002173,-0.00003587,0.00000457,0.00001095,-0.00002347,0.000008
 18,-0.00045087,-0.00042910,0.00003103,0.10688155,-0.00011095,-0.000104
 46,0.00000470,0.00003746,-0.00002809,0.00000414,-0.00003594,-0.0000164
 4,0.00000073,-0.00000548,0.00000817,-0.00000280,0.00000022,-0.00000946
 ,-0.00000008,-0.00001003,0.00000052,0.00000028,-0.00000391,0.00000078,
 -0.00000029,0.00000172,0.00000360,-0.00000003,0.00000246,-0.00000206,0
 .00000014,0.00000340,-0.00000178,-0.00000012,-0.00000318,-0.00000680,0
 .00000008,-0.00000231,0.00000290,-0.00000019,-0.00000245,-0.00001085,0
 .00000021,-0.00000669,-0.00000170,0.00000058,0.00001401,0.00001300,0.0
 0000014,0.00000833,-0.00001428,-0.00000049,-0.00000108,0.00000660,0.00
 000008,-0.00000352,-0.00000958,0.00000035,0.00000386,0.00001599,-0.000
 00050,0.00001050,-0.00001243,-0.00000234,0.00037552,-0.00014649,-0.000
 01947,-0.00000428,0.00004876,0.00002949,-0.00121162,-0.00071754,0.0000
 4695,0.00011150,0.00013039,-0.00000153,0.00030225,0.00007944,-0.000005
 14,-0.00192181,0.00104186,0.00018656,0.00073138,0.00020770,-0.00000734
 ,0.00394636,-0.00172718,-0.00034438,-0.01243936,-0.01888845,0.00010787
 ,-0.10164367,-0.29625299,-0.00095455,0.00110732,0.00039547,-0.00013549
 ,-0.00048627,0.00189097,-0.00013253,0.00000739,0.00001424,-0.00000186,
 -0.00000280,-0.00001727,-0.00000069,0.00001657,0.00000692,-0.00000008,
 0.00000084,0.00000282,0.,-0.00000274,-0.00000201,-0.00000002,-0.000002
 52,-0.00000003,-0.00000004,-0.00000066,-0.00000250,0.,-0.00000161,-0.0
 0000199,0.,0.00000114,-0.00000271,0.,-0.00000087,0.00000476,0.00000009
 ,0.00006545,0.00004112,-0.00000670,0.00004158,-0.00003634,-0.00000722,
 0.00119942,0.00030119,-0.00006292,0.11020024,0.31317829,-0.00001210,0.
 00000837,-0.00001657,-0.00000728,-0.00001379,-0.00006463,0.00003820,-0
 .00004859,0.00006508,-0.00000163,0.00002257,-0.00006526,-0.00000683,-0
 .00000554,0.00000302,-0.00000087,0.00000692,-0.00000539,0.00000486,-0.
 00000435,-0.00000800,-0.00000035,0.00000131,0.00000391,0.00000116,-0.0
 0000084,-0.00000523,-0.00000146,0.00000112,0.00001028,0.00000087,-0.00
 000042,-0.00000310,-0.00000092,-0.00000066,0.00000151,-0.00000028,0.00
 000112,-0.00000290,0.00001244,-0.00000323,-0.00000482,-0.00001773,0.00
 000719,0.00003934,0.00001665,-0.00000044,-0.00002632,-0.00000532,-0.00
 000234,0.00002877,0.00000004,-0.00000034,-0.00001886,-0.00000093,-0.00
 000088,0.00002137,-0.00000161,0.00001462,0.00003199,0.00004392,-0.0000
 2503,0.00021522,-0.00007974,-0.00000539,-0.00099503,-0.00003380,-0.000
 06383,0.00004478,-0.00002624,-0.00001160,-0.00008022,-0.00000713,0.000
 03840,-0.00014323,-0.00025639,-0.00001856,-0.00298677,0.00014402,-0.00
 000718,-0.00110698,0.00023826,-0.00042238,0.00530961,-0.00074865,-0.00
 112745,0.00288544,0.00130079,-0.00106933,-0.03602556,0.00051357,0.0015
 3486,0.00354537,0.00077910,-0.00023207,0.00862889,-0.00000132,0.000001
 41,0.00003156,-0.00000072,-0.00000102,0.00000652,-0.00001871,-0.000003
 17,0.00013366,-0.00000127,-0.00000008,0.00000225,-0.00000005,0.0000000
 5,0.00000078,-0.00000007,-0.00000006,0.00000059,-0.00000002,0.00000004
 ,0.00000075,0.00000003,0.,-0.00000004,-0.00000005,0.00000007,0.0000007
 3,-0.00000010,0.00000004,-0.00000248,0.00000551,0.00000173,0.00004046,
 0.00000957,-0.00000141,0.00017113,0.00006596,0.00002208,0.00024518,-0.
 00167329,0.00115331,0.02491080,0.00001843,-0.00000098,-0.00000056,0.00
 003539,0.00001172,-0.00000081,0.00002267,0.00003872,0.00002760,-0.0000
 3379,-0.00000080,-0.00000742,0.00001000,-0.00000253,0.00000106,-0.0000
 0837,0.00000011,-0.00000015,0.00000194,0.00000180,-0.00000011,-0.00000
 821,-0.00000276,-0.00000008,0.00000224,0.00000249,0.00000004,0.0000011
 8,0.00000561,-0.00000019,-0.00000171,0.00000881,-0.00000003,0.00000736
 ,-0.00000448,-0.00000002,0.00000004,0.00000509,-0.00000015,-0.00002860
 ,-0.00000073,0.00000107,0.00005796,-0.00002558,-0.00000152,-0.00000582
 ,0.00000314,0.00000066,0.00000987,0.00000648,0.00000033,0.00000249,0.0
 0000679,-0.00000002,-0.00000652,-0.00001110,0.00000046,-0.00010440,-0.
 00013175,-0.00000928,-0.00008220,0.00002629,0.00000448,0.00056633,-0.0
 0032473,-0.00004150,0.00038337,-0.00010816,-0.00006967,-0.00017448,-0.
 00029801,0.00000742,-0.00061429,0.00015249,-0.00000241,0.00013669,0.00
 143222,0.00000901,-0.00016651,-0.00302564,0.00023342,-0.00073370,-0.00
 056164,-0.00002503,-0.00532016,-0.00245345,0.00077550,-0.01360852,0.02
 747881,0.00166073,-0.16532895,0.13557152,0.01108473,0.01090947,-0.0117
 1534,-0.00087174,0.00000346,-0.00001020,0.00000165,-0.00000066,0.00000
 562,-0.00000017,-0.00002449,-0.00000262,-0.00000501,-0.00000356,-0.000
 00176,-0.00000046,0.00000259,0.00000022,0.00000010,0.00000264,-0.00000
 005,0.00000006,-0.00000004,0.00000221,-0.00000001,0.00000146,0.0000012
 9,0.00000004,-0.00000147,0.00000232,0.,0.00000002,-0.00000246,0.000000
 26,-0.00000865,0.00001542,0.00000708,-0.00009584,0.00013100,0.00001007
 ,-0.00002286,-0.00005547,0.00000896,0.00086007,-0.00037363,-0.00032684
 ,0.17247347,0.00002159,-0.00002320,-0.00000140,0.00001029,0.00000853,-
 0.00000054,0.00001349,-0.00005264,0.00001549,-0.00000976,0.00006961,-0
 .00000177,0.00002034,-0.00005488,0.00000239,-0.00000431,-0.00001194,0.
 00000018,-0.00002993,-0.00001776,-0.00000073,0.00002010,0.00001235,0.0
 0000061,-0.00001030,-0.00001661,0.,-0.00000502,-0.00000820,0.00000018,
 0.00000035,-0.00000752,0.00000017,-0.00000162,0.00000668,-0.00000011,0
 .00000065,-0.00001814,0.00000026,-0.00004989,-0.00002275,-0.00000057,0
 .00012955,-0.00008107,0.00000221,-0.00001470,-0.00002795,0.00000096,-0
 .00000369,0.00003393,-0.00000069,-0.00000879,-0.00000892,-0.00000067,0
 .00002692,0.00001008,0.00000144,-0.00036170,-0.00031621,-0.00000148,-0
 .00004157,0.00005522,-0.00000005,0.00128497,-0.00045028,-0.00007780,0.
 00026005,-0.00009267,0.00001187,-0.00018529,-0.00014722,0.00000411,-0.
 00002598,0.00026799,0.00002556,0.00014753,0.00008637,-0.00001812,-0.00
 350682,-0.00366419,-0.00015859,-0.00104354,0.00022709,0.00007534,-0.00
 177443,0.00119917,-0.00014102,-0.00443389,0.00712294,0.00033387,0.1358
 3010,-0.23623613,-0.01314624,0.01980964,-0.01764227,-0.00167236,0.0000
 0902,-0.00000585,0.00000159,0.00000477,-0.00000506,0.00000007,-0.00000
 694,-0.00000889,-0.00000726,-0.00000633,0.00000755,-0.00000129,-0.0000
 0924,-0.00000864,-0.00000044,-0.00000659,-0.00000228,-0.00000027,0.000
 00042,-0.00000402,-0.00000007,-0.00000233,-0.00000275,-0.00000008,0.00
 000230,-0.00000448,-0.00000001,0.00000089,0.00000377,-0.00000005,0.000
 01087,-0.00000775,-0.00000486,-0.00001468,0.00001760,0.00000316,0.0000
 0893,-0.00000329,-0.00000569,0.00036401,0.00076296,0.00014225,-0.14613
 024,0.24824876,-0.00000113,0.00000810,0.00003697,-0.00000626,-0.000003
 57,-0.00001804,-0.00001372,-0.00001514,0.00009326,0.00000150,-0.000001
 98,-0.00002774,0.00000117,-0.00000138,0.00000008,-0.00000048,0.0000004
 1,-0.00000536,0.00000127,0.00000026,-0.00000063,0.00000026,-0.00000034
 ,-0.00000063,-0.00000029,0.00000032,-0.00000066,0.00000010,-0.00000013
 ,-0.00000215,0.00000007,-0.00000092,0.00000028,-0.00000099,0.00000040,
 -0.00000149,-0.00000038,0.00000002,0.00000184,0.00000356,0.00000016,0.
 00002995,-0.00000542,0.00000070,-0.00002735,0.00000161,0.00000208,-0.0
 0000600,-0.00000176,-0.00000214,0.00000410,0.00000011,-0.00000133,0.00
 000199,0.00000112,0.00000100,-0.00000420,0.00000955,0.00000212,-0.0001
 9352,0.00000488,-0.00001095,0.00003358,-0.00002244,-0.00001647,0.00014
 977,-0.00009021,0.00004404,-0.00082336,0.00005619,0.00004768,0.0000817
 1,0.00001691,-0.00004990,-0.00065952,-0.00007256,-0.00007885,0.0001319
 2,0.00003245,-0.00002589,0.00620463,0.00006372,0.00008348,-0.00084547,
 0.00082808,-0.00005351,0.00935490,0.00062014,-0.00136898,0.00320621,0.
 01127403,-0.01298753,-0.03843199,0.00008986,-0.00028187,0.00206987,-0.
 00000042,0.00000062,0.00000218,0.00000004,-0.00000040,-0.00000356,0.00
 000393,-0.00000802,0.00000917,-0.00000074,0.00000029,0.00000803,-0.000
 00047,-0.00000034,0.00000270,-0.00000030,-0.00000005,0.00000132,-0.000
 00004,-0.00000012,0.00000066,-0.00000010,-0.00000007,0.00000069,0.0000
 0009,-0.00000010,0.00000058,-0.00000015,0.00000022,0.00000099,0.000008
 02,-0.00000133,0.00010762,0.00000546,-0.00001044,-0.00002330,0.0000103
 2,0.00000031,0.00016342,-0.00029882,0.00015888,-0.00476869,-0.01229461
 ,0.01447440,0.02718231,0.00002923,0.00008410,-0.00000116,0.00002711,-0
 .00004426,0.00000019,-0.00013607,-0.00169901,-0.00022480,0.00061006,-0
 .00018235,-0.00005329,0.00003114,0.00000241,0.00000293,-0.00002344,0.0
 0002361,-0.00000394,0.00002676,0.00000678,0.00000019,0.00000648,0.0000
 0101,-0.00000024,0.00000010,-0.00000508,-0.00000022,-0.00000165,-0.000
 00275,0.00000061,0.00000468,0.00001208,-0.00000036,0.00000703,-0.00001
 009,-0.00000001,0.00000146,0.00001152,-0.00000195,0.00004707,0.0000688
 1,-0.00000191,-0.00014113,-0.00003979,-0.00000765,-0.00005584,-0.00014
 283,0.00001820,0.00005115,-0.00005016,0.00001049,-0.00001701,-0.000000
 75,-0.00000202,-0.00000934,-0.00002072,0.00000618,0.00009097,0.0003678
 7,-0.00001014,-0.00004557,-0.00023577,0.00001644,-0.00143498,-0.001597
 68,-0.00033380,-0.00071299,-0.00068409,0.00002392,-0.00015794,0.000427
 14,-0.00003882,0.00003693,0.00004925,0.00000164,0.00003367,-0.00004598
 ,-0.00004198,-0.01530232,-0.00268305,0.00085490,0.00024007,0.00323187,
 0.00057955,0.00055255,0.00025215,-0.00008758,0.00107975,-0.00255645,0.
 00023530,-0.00900146,0.00144281,0.00055702,-0.34049540,-0.02252452,0.0
 1682346,0.00000953,-0.00002477,0.00000139,0.00000162,0.00000898,-0.000
 00017,0.00095769,-0.00230423,-0.00016799,0.00001590,0.00000599,-0.0000
 0213,-0.00000249,-0.00000621,0.00000079,0.00000002,0.00000004,0.000000
 29,0.00000048,-0.00000123,0.00000023,0.00000059,-0.00000131,-0.0000000
 8,0.00000037,0.00000050,0.00000014,0.00000190,-0.00000201,0.00000097,-
 0.00011817,-0.00001168,0.00001307,-0.00002028,0.00000288,0.00000699,-0
 .00000481,-0.00001878,0.00000344,-0.00053826,0.00008845,0.00005677,0.0
 0087466,-0.00028919,-0.00022314,0.36348018,-0.00004595,0.00002550,-0.0
 0000803,-0.00010625,0.00002252,-0.00000435,0.00116487,-0.00235179,-0.0
 0018391,-0.00056629,0.00018912,0.00010592,0.00001373,0.00000127,-0.000
 00903,0.00002861,-0.00002172,0.00000287,-0.00000329,0.00000576,-0.0000
 0457,-0.00001946,-0.00001296,0.00000019,-0.00000249,0.00001729,0.00000
 042,-0.00000223,0.00001134,-0.00000272,0.00000130,-0.00000749,0.000001
 09,-0.00001188,0.00000661,-0.00000065,-0.00000129,0.00001055,0.0000023
 4,0.00003083,-0.00006411,0.00001131,-0.00006330,0.00009871,-0.00000054
 ,0.00008826,0.00011708,-0.00002344,-0.00006502,0.00002855,-0.00000421,
 0.00003548,0.00000306,0.00000560,-0.00000700,-0.00000251,-0.00000821,0
 .00005209,-0.00008302,0.00003685,-0.00001122,0.00017149,-0.00001610,-0
 .00117613,0.00075409,0.00016840,0.00090258,0.00109137,-0.00001951,0.00
 036739,-0.00022889,0.00002961,0.00006302,-0.00033680,-0.00002172,-0.00
 043954,0.00021854,0.00006198,0.02523395,0.00899548,-0.00109384,0.00244
 014,-0.00470153,-0.00058113,0.00061133,-0.00101385,-0.00002055,-0.0017
 3969,-0.00521264,-0.00032003,-0.03082328,0.00102074,0.00153738,-0.0223
 9041,-0.06045448,0.00063593,-0.00002067,0.00002758,0.00000030,-0.00000
 716,-0.00000575,0.00000235,-0.00178667,-0.00326136,-0.00070668,-0.0000
 4609,-0.00001577,-0.00000457,0.00001120,0.00001398,0.00000124,0.000005
 43,0.00000067,0.00000006,-0.00000021,0.00000642,-0.00000019,0.00000180
 ,0.00000516,0.00000009,-0.00000237,0.00000371,-0.00000011,-0.00000227,
 -0.00000433,-0.00000111,0.00015912,0.00002411,-0.00000929,-0.00000322,
 0.00000470,-0.00000445,0.00008410,0.00002321,-0.00000469,-0.00138232,-
 0.00014501,0.00011251,0.00033397,0.00081299,0.00009624,0.02909648,0.06
 421241,-0.00001370,0.00007558,0.00003764,-0.00006476,-0.00003834,-0.00
 000262,0.00039046,-0.00040580,0.00004899,-0.00006970,0.00016023,-0.000
 49549,-0.00002637,-0.00003182,0.00003427,0.00000344,0.00003205,-0.0000
 6211,0.00001365,-0.00002493,0.00003297,0.00000145,0.00000732,-0.000007
 97,0.00000300,-0.00000416,0.00000487,-0.00000692,0.00000244,-0.0000069
 0,0.00000602,-0.00000461,0.00000325,-0.00000672,-0.00000057,-0.0000058
 6,0.00000096,0.00000443,-0.00001066,0.00005984,-0.00002558,-0.00001451
 ,-0.00008078,0.00002889,0.00001101,0.00009871,0.00002537,0.00005513,-0
 .00003599,0.00000738,0.00002109,-0.00000237,0.00000427,0.00001639,-0.0
 0000183,-0.00000713,0.00003746,-0.00007415,0.00005718,-0.00010903,0.00
 006626,-0.00004934,0.00011914,-0.00054149,-0.00003304,-0.00423613,0.00
 008655,0.00023915,0.00045317,0.00000134,-0.00004573,-0.00075515,-0.000
 00795,-0.00003652,0.00014850,-0.00006640,0.00002959,-0.00079502,0.0014
 1166,0.00125354,0.00360418,0.00056990,-0.00064942,0.00841919,-0.000064
 44,-0.00013512,-0.00099044,0.00011516,-0.00023075,0.00624740,-0.000304
 13,-0.00002858,0.00328319,0.01713393,0.00006179,-0.03846635,-0.0000021
 2,0.00000241,0.00000488,-0.00000185,-0.00000192,-0.00001033,-0.0003885
 4,-0.00061490,0.00183459,-0.00001395,-0.00000461,0.00004088,0.00000005
 ,0.00000018,0.00000404,-0.00000039,-0.00000050,0.00000288,0.00000034,0
 .00000047,0.00000104,-0.00000004,0.00000042,-0.00000247,-0.00000003,-0
 .00000008,0.00000094,0.00000008,0.00000011,0.00000923,0.00001786,0.000
 00118,-0.00005574,0.00000783,-0.00000060,0.00010734,0.00000860,0.00000
 080,0.00003895,-0.00003378,-0.00000776,-0.00004891,-0.00017694,0.00014
 606,-0.00303707,-0.01801175,0.00024097,0.02449014\\-0.00000011,-0.0000
 0089,-0.00000005,-0.00000054,-0.00000072,-0.00000008,0.00000061,0.0000
 0056,0.00000003,0.00000007,0.00000103,0.00000005,0.00000002,0.00000135
 ,0.00000007,-0.00000045,0.00000152,0.00000007,-0.00000097,0.00000120,0
 .00000004,-0.00000133,0.00000148,0.00000003,-0.00000171,0.00000111,0.0
 0000002,-0.00000167,0.00000064,-0.00000003,-0.00000203,0.00000027,-0.0
 0000005,-0.00000208,-0.00000023,-0.00000006,-0.00000159,-0.00000040,-0
 .00000006,-0.00000058,-0.00000040,-0.00000004,-0.00000028,0.00000021,0
 .,-0.00000029,0.00000053,0.00000005,-0.00000083,0.00000076,0.,-0.00000
 137,0.00000030,-0.00000004,-0.00000098,-0.00000010,-0.00000003,0.00000
 031,-0.00000007,-0.00000002,0.00000027,-0.00000070,-0.00000001,0.00000
 077,0.00000014,0.00000005,0.00000074,-0.00000090,-0.00000005,0.0000007
 8,-0.00000149,-0.00000010,0.00000136,-0.00000159,-0.00000010,0.0000017
 7,-0.00000131,-0.00000002,0.00000112,-0.00000007,0.00000001,0.00000119
 ,-0.00000063,0.00000003,0.00000163,-0.00000095,0.00000002,0.00000205,-
 0.00000048,0.00000002,0.00000204,0.00000002,0.00000013,0.00000160,0.00
 000005,0.00000011,-0.00000013,-0.00000140,-0.00000008,-0.00000085,-0.0
 0000112,-0.00000011,0.00000090,0.00000089,0.00000010,0.00000034,0.0000
 0158,0.00000011,-0.00000048,0.00000195,0.00000009,-0.00000136,0.000001
 83,0.00000005,-0.00000210,0.00000134,0.,-0.00000246,0.00000052,-0.0000
 0006,-0.00000235,-0.00000037,-0.00000009,-0.00000149,-0.00000077,-0.00
 000007,0.00000053,-0.00000162,-0.00000011,0.00000141,-0.00000197,-0.00
 000009,0.00000215,-0.00000139,0.,0.00000248,-0.00000057,0.00000006,0.0
 0000234,0.00000028,0.00000013,0.00000154,0.00000061,0.00000011\\\@


 THE CAUTIOUS SELDOM ERR...CONFUCIUS                   
 Job cpu time:      19 days 16 hours 40 minutes  8.1 seconds.
 File lengths (MBytes):  RWF=   4419 Int=      0 D2E=      0 Chk=     85 Scr=      1
 Normal termination of Gaussian 09 at Fri Jul 26 11:39:56 2019.
