 Entering Gaussian System, Link 0=g09
 Initial command:
 /home/minenky/programs//g09/l1.exe "/local/scratch/minenky/m1_00_109278-09-3-C32H16_wB97XD/Gau-150607.inp" -scrdir="/local/scratch/minenky/m1_00_109278-09-3-C32H16_wB97XD/"
 Entering Link 1 = /home/minenky/programs//g09/l1.exe PID=    150608.
  
 Copyright (c) 1988,1990,1992,1993,1995,1998,2003,2009,2013,
            Gaussian, Inc.  All Rights Reserved.
  
 This is part of the Gaussian(R) 09 program.  It is based on
 the Gaussian(R) 03 system (copyright 2003, Gaussian, Inc.),
 the Gaussian(R) 98 system (copyright 1998, Gaussian, Inc.),
 the Gaussian(R) 94 system (copyright 1995, Gaussian, Inc.),
 the Gaussian 92(TM) system (copyright 1992, Gaussian, Inc.),
 the Gaussian 90(TM) system (copyright 1990, Gaussian, Inc.),
 the Gaussian 88(TM) system (copyright 1988, Gaussian, Inc.),
 the Gaussian 86(TM) system (copyright 1986, Carnegie Mellon
 University), and the Gaussian 82(TM) system (copyright 1983,
 Carnegie Mellon University). Gaussian is a federally registered
 trademark of Gaussian, Inc.
  
 This software contains proprietary and confidential information,
 including trade secrets, belonging to Gaussian, Inc.
  
 This software is provided under written license and may be
 used, copied, transmitted, or stored only in accord with that
 written license.
  
 The following legend is applicable only to US Government
 contracts under FAR:
  
                    RESTRICTED RIGHTS LEGEND
  
 Use, reproduction and disclosure by the US Government is
 subject to restrictions as set forth in subparagraphs (a)
 and (c) of the Commercial Computer Software - Restricted
 Rights clause in FAR 52.227-19.
  
 Gaussian, Inc.
 340 Quinnipiac St., Bldg. 40, Wallingford CT 06492
  
  
 ---------------------------------------------------------------
 Warning -- This program may not be used in any manner that
 competes with the business of Gaussian, Inc. or will provide
 assistance to any competitor of Gaussian, Inc.  The licensee
 of this program is prohibited from giving any competitor of
 Gaussian, Inc. access to this program.  By using this program,
 the user acknowledges that Gaussian, Inc. is engaged in the
 business of creating and licensing software in the field of
 computational chemistry and represents and warrants to the
 licensee that it is not a competitor of Gaussian, Inc. and that
 it will not use this program in any manner prohibited above.
 ---------------------------------------------------------------
  

 Cite this work as:
 Gaussian 09, Revision D.01,
 M. J. Frisch, G. W. Trucks, H. B. Schlegel, G. E. Scuseria, 
 M. A. Robb, J. R. Cheeseman, G. Scalmani, V. Barone, B. Mennucci, 
 G. A. Petersson, H. Nakatsuji, M. Caricato, X. Li, H. P. Hratchian, 
 A. F. Izmaylov, J. Bloino, G. Zheng, J. L. Sonnenberg, M. Hada, 
 M. Ehara, K. Toyota, R. Fukuda, J. Hasegawa, M. Ishida, T. Nakajima, 
 Y. Honda, O. Kitao, H. Nakai, T. Vreven, J. A. Montgomery, Jr., 
 J. E. Peralta, F. Ogliaro, M. Bearpark, J. J. Heyd, E. Brothers, 
 K. N. Kudin, V. N. Staroverov, T. Keith, R. Kobayashi, J. Normand, 
 K. Raghavachari, A. Rendell, J. C. Burant, S. S. Iyengar, J. Tomasi, 
 M. Cossi, N. Rega, J. M. Millam, M. Klene, J. E. Knox, J. B. Cross, 
 V. Bakken, C. Adamo, J. Jaramillo, R. Gomperts, R. E. Stratmann, 
 O. Yazyev, A. J. Austin, R. Cammi, C. Pomelli, J. W. Ochterski, 
 R. L. Martin, K. Morokuma, V. G. Zakrzewski, G. A. Voth, 
 P. Salvador, J. J. Dannenberg, S. Dapprich, A. D. Daniels, 
 O. Farkas, J. B. Foresman, J. V. Ortiz, J. Cioslowski, 
 and D. J. Fox, Gaussian, Inc., Wallingford CT, 2013.
 
 ******************************************
 Gaussian 09:  AM64L-G09RevD.01 24-Apr-2013
                27-Jul-2019 
 ******************************************
 %Mem=32000MB
 %NProcShared=16
 Will use up to   16 processors via shared memory.
 %Chk=m1_00_109278-09-3-C32H16_wB97XD
 ----------------------------------------------------------------------
 #P wB97XD/def2tzvp opt=(tight) freq integral(Grid=ultrafine) # SCF(Max
 Cycle=380) 5d 7f GFPrint
 ----------------------------------------------------------------------
 1/7=10,14=-1,18=20,19=15,26=4,38=1/1,3;
 2/9=110,12=2,17=6,18=5,40=1/2;
 3/5=44,7=101,8=11,11=2,16=1,24=100,25=1,30=1,71=1,74=-58,75=-5/1,2,3;
 4//1;
 5/5=2,7=380,38=5/2;
 6/7=2,8=2,9=2,10=2,28=1/1;
 7//1,2,3,16;
 1/7=10,14=-1,18=20,19=15,26=4/3(2);
 2/9=110/2;
 99//99;
 2/9=110/2;
 3/5=44,7=101,8=11,11=2,16=1,25=1,30=1,71=1,74=-58,75=-5/1,2,3;
 4/5=5,16=3,69=1/1;
 5/5=2,7=380,38=5/2;
 7//1,2,3,16;
 1/7=10,14=-1,18=20,19=15,26=4/3(-5);
 2/9=110/2;
 6/7=2,8=2,9=2,10=2,19=2,28=1/1;
 99/9=1/99;
 Leave Link    1 at Sat Jul 27 10:01:39 2019, MaxMem=  4194304000 cpu:         0.8
 (Enter /home/minenky/programs//g09/l101.exe)
 ---------------------------------------
 The PBEPBE optimization and frequencies
 ---------------------------------------
 Symbolic Z-matrix:
 Charge =  0 Multiplicity = 1
 C                    -3.00454  -3.10962   0. 
 C                    -2.14103  -4.21859   0. 
 C                    -0.78021  -4.03962   0. 
 C                    -0.23418  -2.73243   0. 
 C                     1.17053  -2.53074   0. 
 C                    -0.88559   2.12944   0. 
 C                    -1.77382   3.24723   0. 
 C                    -3.12314   3.07517   0. 
 C                    -3.68768   1.7637    0. 
 C                    -5.08831   1.57654   0. 
 C                    -5.61524   0.30652   0. 
 C                    -4.7689   -0.81244   0. 
 C                    -1.41216   0.84006   0. 
 C                    -2.83117   0.64442   0. 
 C                    -3.39216  -0.66222   0. 
 C                    -2.50451  -1.82034   0. 
 C                    -1.09514  -1.6157    0. 
 C                    -0.53731  -0.3023    0. 
 C                     0.54631   2.32235   0. 
 C                     3.32157   2.68381   0. 
 C                     2.47139   3.79131   0. 
 C                     1.1039    3.61499   0. 
 C                     2.80733   1.39261   0. 
 C                     1.40202   1.20087   0. 
 C                     0.84828  -0.12475   0. 
 C                     1.71208  -1.26678   0. 
 C                     3.69305   0.23298   0. 
 C                     3.15811  -1.06598   0. 
 C                     4.03061  -2.16559   0. 
 C                     5.40232  -1.98526   0. 
 C                     5.93358  -0.69531   0. 
 C                     5.08695   0.39889   0. 
 H                    -4.0949   -3.26266   0. 
 H                    -2.56783  -5.227     0. 
 H                    -0.10224  -4.90053   0. 
 H                     1.83493  -3.41006   0. 
 H                    -1.334     4.25636   0. 
 H                    -3.7994    3.93767   0. 
 H                    -5.74478   2.454     0. 
 H                    -6.7       0.15707   0. 
 H                    -5.19731  -1.82675   0. 
 H                     4.41257   2.83017   0. 
 H                     2.89703   4.80017   0. 
 H                     0.42842   4.48394   0. 
 H                     3.60511  -3.18089   0. 
 H                     6.07047  -2.8525    0. 
 H                     7.01872  -0.55026   0. 
 H                     5.5004    1.41914   0. 
 
 NAtoms=     48 NQM=       48 NQMF=       0 NMMI=      0 NMMIF=      0
                NMic=       0 NMicF=      0.
                    Isotopes and Nuclear Properties:
 (Nuclear quadrupole moments (NQMom) in fm**2, nuclear magnetic moments (NMagM)
  in nuclear magnetons)

  Atom         1           2           3           4           5           6           7           8           9          10
 IAtWgt=          12          12          12          12          12          12          12          12          12          12
 AtmWgt=  12.0000000  12.0000000  12.0000000  12.0000000  12.0000000  12.0000000  12.0000000  12.0000000  12.0000000  12.0000000
 NucSpn=           0           0           0           0           0           0           0           0           0           0
 AtZEff=   0.0000000   0.0000000   0.0000000   0.0000000   0.0000000   0.0000000   0.0000000   0.0000000   0.0000000   0.0000000
 NQMom=    0.0000000   0.0000000   0.0000000   0.0000000   0.0000000   0.0000000   0.0000000   0.0000000   0.0000000   0.0000000
 NMagM=    0.0000000   0.0000000   0.0000000   0.0000000   0.0000000   0.0000000   0.0000000   0.0000000   0.0000000   0.0000000
 AtZNuc=   6.0000000   6.0000000   6.0000000   6.0000000   6.0000000   6.0000000   6.0000000   6.0000000   6.0000000   6.0000000

  Atom        11          12          13          14          15          16          17          18          19          20
 IAtWgt=          12          12          12          12          12          12          12          12          12          12
 AtmWgt=  12.0000000  12.0000000  12.0000000  12.0000000  12.0000000  12.0000000  12.0000000  12.0000000  12.0000000  12.0000000
 NucSpn=           0           0           0           0           0           0           0           0           0           0
 AtZEff=   0.0000000   0.0000000   0.0000000   0.0000000   0.0000000   0.0000000   0.0000000   0.0000000   0.0000000   0.0000000
 NQMom=    0.0000000   0.0000000   0.0000000   0.0000000   0.0000000   0.0000000   0.0000000   0.0000000   0.0000000   0.0000000
 NMagM=    0.0000000   0.0000000   0.0000000   0.0000000   0.0000000   0.0000000   0.0000000   0.0000000   0.0000000   0.0000000
 AtZNuc=   6.0000000   6.0000000   6.0000000   6.0000000   6.0000000   6.0000000   6.0000000   6.0000000   6.0000000   6.0000000

  Atom        21          22          23          24          25          26          27          28          29          30
 IAtWgt=          12          12          12          12          12          12          12          12          12          12
 AtmWgt=  12.0000000  12.0000000  12.0000000  12.0000000  12.0000000  12.0000000  12.0000000  12.0000000  12.0000000  12.0000000
 NucSpn=           0           0           0           0           0           0           0           0           0           0
 AtZEff=   0.0000000   0.0000000   0.0000000   0.0000000   0.0000000   0.0000000   0.0000000   0.0000000   0.0000000   0.0000000
 NQMom=    0.0000000   0.0000000   0.0000000   0.0000000   0.0000000   0.0000000   0.0000000   0.0000000   0.0000000   0.0000000
 NMagM=    0.0000000   0.0000000   0.0000000   0.0000000   0.0000000   0.0000000   0.0000000   0.0000000   0.0000000   0.0000000
 AtZNuc=   6.0000000   6.0000000   6.0000000   6.0000000   6.0000000   6.0000000   6.0000000   6.0000000   6.0000000   6.0000000

  Atom        31          32          33          34          35          36          37          38          39          40
 IAtWgt=          12          12           1           1           1           1           1           1           1           1
 AtmWgt=  12.0000000  12.0000000   1.0078250   1.0078250   1.0078250   1.0078250   1.0078250   1.0078250   1.0078250   1.0078250
 NucSpn=           0           0           1           1           1           1           1           1           1           1
 AtZEff=   0.0000000   0.0000000   0.0000000   0.0000000   0.0000000   0.0000000   0.0000000   0.0000000   0.0000000   0.0000000
 NQMom=    0.0000000   0.0000000   0.0000000   0.0000000   0.0000000   0.0000000   0.0000000   0.0000000   0.0000000   0.0000000
 NMagM=    0.0000000   0.0000000   2.7928460   2.7928460   2.7928460   2.7928460   2.7928460   2.7928460   2.7928460   2.7928460
 AtZNuc=   6.0000000   6.0000000   1.0000000   1.0000000   1.0000000   1.0000000   1.0000000   1.0000000   1.0000000   1.0000000

  Atom        41          42          43          44          45          46          47          48
 IAtWgt=           1           1           1           1           1           1           1           1
 AtmWgt=   1.0078250   1.0078250   1.0078250   1.0078250   1.0078250   1.0078250   1.0078250   1.0078250
 NucSpn=           1           1           1           1           1           1           1           1
 AtZEff=   0.0000000   0.0000000   0.0000000   0.0000000   0.0000000   0.0000000   0.0000000   0.0000000
 NQMom=    0.0000000   0.0000000   0.0000000   0.0000000   0.0000000   0.0000000   0.0000000   0.0000000
 NMagM=    2.7928460   2.7928460   2.7928460   2.7928460   2.7928460   2.7928460   2.7928460   2.7928460
 AtZNuc=   1.0000000   1.0000000   1.0000000   1.0000000   1.0000000   1.0000000   1.0000000   1.0000000
 Leave Link  101 at Sat Jul 27 10:01:40 2019, MaxMem=  4194304000 cpu:         5.4
 (Enter /home/minenky/programs//g09/l103.exe)

 GradGradGradGradGradGradGradGradGradGradGradGradGradGradGradGradGradGrad
 Berny optimization.
 Initialization pass.
                           ----------------------------
                           !    Initial Parameters    !
                           ! (Angstroms and Degrees)  !
 --------------------------                            --------------------------
 ! Name  Definition              Value          Derivative Info.                !
 --------------------------------------------------------------------------------
 ! R1    R(1,2)                  1.4055         estimate D2E/DX2                !
 ! R2    R(1,16)                 1.3829         estimate D2E/DX2                !
 ! R3    R(1,33)                 1.1011         estimate D2E/DX2                !
 ! R4    R(2,3)                  1.3725         estimate D2E/DX2                !
 ! R5    R(2,34)                 1.095          estimate D2E/DX2                !
 ! R6    R(3,4)                  1.4166         estimate D2E/DX2                !
 ! R7    R(3,35)                 1.0958         estimate D2E/DX2                !
 ! R8    R(4,5)                  1.4191         estimate D2E/DX2                !
 ! R9    R(4,17)                 1.4101         estimate D2E/DX2                !
 ! R10   R(5,26)                 1.3751         estimate D2E/DX2                !
 ! R11   R(5,36)                 1.1021         estimate D2E/DX2                !
 ! R12   R(6,7)                  1.4277         estimate D2E/DX2                !
 ! R13   R(6,13)                 1.3928         estimate D2E/DX2                !
 ! R14   R(6,19)                 1.4448         estimate D2E/DX2                !
 ! R15   R(7,8)                  1.3603         estimate D2E/DX2                !
 ! R16   R(7,37)                 1.1008         estimate D2E/DX2                !
 ! R17   R(8,9)                  1.4278         estimate D2E/DX2                !
 ! R18   R(8,38)                 1.096          estimate D2E/DX2                !
 ! R19   R(9,10)                 1.4131         estimate D2E/DX2                !
 ! R20   R(9,14)                 1.4094         estimate D2E/DX2                !
 ! R21   R(10,11)                1.375          estimate D2E/DX2                !
 ! R22   R(10,39)                1.0959         estimate D2E/DX2                !
 ! R23   R(11,12)                1.403          estimate D2E/DX2                !
 ! R24   R(11,40)                1.095          estimate D2E/DX2                !
 ! R25   R(12,15)                1.3849         estimate D2E/DX2                !
 ! R26   R(12,41)                1.1011         estimate D2E/DX2                !
 ! R27   R(13,14)                1.4324         estimate D2E/DX2                !
 ! R28   R(13,18)                1.4389         estimate D2E/DX2                !
 ! R29   R(14,15)                1.422          estimate D2E/DX2                !
 ! R30   R(15,16)                1.4592         estimate D2E/DX2                !
 ! R31   R(16,17)                1.4241         estimate D2E/DX2                !
 ! R32   R(17,18)                1.427          estimate D2E/DX2                !
 ! R33   R(18,25)                1.3969         estimate D2E/DX2                !
 ! R34   R(19,22)                1.4078         estimate D2E/DX2                !
 ! R35   R(19,24)                1.4107         estimate D2E/DX2                !
 ! R36   R(20,21)                1.3962         estimate D2E/DX2                !
 ! R37   R(20,23)                1.3898         estimate D2E/DX2                !
 ! R38   R(20,42)                1.1008         estimate D2E/DX2                !
 ! R39   R(21,22)                1.3788         estimate D2E/DX2                !
 ! R40   R(21,43)                1.095          estimate D2E/DX2                !
 ! R41   R(22,44)                1.1006         estimate D2E/DX2                !
 ! R42   R(23,24)                1.4183         estimate D2E/DX2                !
 ! R43   R(23,27)                1.4592         estimate D2E/DX2                !
 ! R44   R(24,25)                1.4366         estimate D2E/DX2                !
 ! R45   R(25,26)                1.4319         estimate D2E/DX2                !
 ! R46   R(26,28)                1.4599         estimate D2E/DX2                !
 ! R47   R(27,28)                1.4048         estimate D2E/DX2                !
 ! R48   R(27,32)                1.4037         estimate D2E/DX2                !
 ! R49   R(28,29)                1.4037         estimate D2E/DX2                !
 ! R50   R(29,30)                1.3835         estimate D2E/DX2                !
 ! R51   R(29,45)                1.1009         estimate D2E/DX2                !
 ! R52   R(30,31)                1.3951         estimate D2E/DX2                !
 ! R53   R(30,46)                1.0948         estimate D2E/DX2                !
 ! R54   R(31,32)                1.3835         estimate D2E/DX2                !
 ! R55   R(31,47)                1.0948         estimate D2E/DX2                !
 ! R56   R(32,48)                1.1008         estimate D2E/DX2                !
 ! A1    A(2,1,16)             120.8951         estimate D2E/DX2                !
 ! A2    A(2,1,33)             119.9172         estimate D2E/DX2                !
 ! A3    A(16,1,33)            119.1877         estimate D2E/DX2                !
 ! A4    A(1,2,3)              120.4146         estimate D2E/DX2                !
 ! A5    A(1,2,34)             119.1533         estimate D2E/DX2                !
 ! A6    A(3,2,34)             120.4321         estimate D2E/DX2                !
 ! A7    A(2,3,4)              120.1631         estimate D2E/DX2                !
 ! A8    A(2,3,35)             120.7283         estimate D2E/DX2                !
 ! A9    A(4,3,35)             119.1085         estimate D2E/DX2                !
 ! A10   A(3,4,5)              120.842          estimate D2E/DX2                !
 ! A11   A(3,4,17)             119.6983         estimate D2E/DX2                !
 ! A12   A(5,4,17)             119.4598         estimate D2E/DX2                !
 ! A13   A(4,5,26)             121.3639         estimate D2E/DX2                !
 ! A14   A(4,5,36)             118.903          estimate D2E/DX2                !
 ! A15   A(26,5,36)            119.7331         estimate D2E/DX2                !
 ! A16   A(7,6,13)             119.3137         estimate D2E/DX2                !
 ! A17   A(7,6,19)             120.7989         estimate D2E/DX2                !
 ! A18   A(13,6,19)            119.8875         estimate D2E/DX2                !
 ! A19   A(6,7,8)              121.2046         estimate D2E/DX2                !
 ! A20   A(6,7,37)             117.979          estimate D2E/DX2                !
 ! A21   A(8,7,37)             120.8164         estimate D2E/DX2                !
 ! A22   A(7,8,9)              120.5571         estimate D2E/DX2                !
 ! A23   A(7,8,38)             120.8316         estimate D2E/DX2                !
 ! A24   A(9,8,38)             118.6113         estimate D2E/DX2                !
 ! A25   A(8,9,10)             120.9012         estimate D2E/DX2                !
 ! A26   A(8,9,14)             119.2856         estimate D2E/DX2                !
 ! A27   A(10,9,14)            119.8132         estimate D2E/DX2                !
 ! A28   A(9,10,11)            120.1451         estimate D2E/DX2                !
 ! A29   A(9,10,39)            119.1906         estimate D2E/DX2                !
 ! A30   A(11,10,39)           120.6643         estimate D2E/DX2                !
 ! A31   A(10,11,12)           120.3635         estimate D2E/DX2                !
 ! A32   A(10,11,40)           120.3782         estimate D2E/DX2                !
 ! A33   A(12,11,40)           119.2583         estimate D2E/DX2                !
 ! A34   A(11,12,15)           120.8754         estimate D2E/DX2                !
 ! A35   A(11,12,41)           120.0            estimate D2E/DX2                !
 ! A36   A(15,12,41)           119.1246         estimate D2E/DX2                !
 ! A37   A(6,13,14)            120.0644         estimate D2E/DX2                !
 ! A38   A(6,13,18)            120.3393         estimate D2E/DX2                !
 ! A39   A(14,13,18)           119.5963         estimate D2E/DX2                !
 ! A40   A(9,14,13)            119.5746         estimate D2E/DX2                !
 ! A41   A(9,14,15)            119.3398         estimate D2E/DX2                !
 ! A42   A(13,14,15)           121.0856         estimate D2E/DX2                !
 ! A43   A(12,15,14)           119.463          estimate D2E/DX2                !
 ! A44   A(12,15,16)           121.2415         estimate D2E/DX2                !
 ! A45   A(14,15,16)           119.2954         estimate D2E/DX2                !
 ! A46   A(1,16,15)            121.3331         estimate D2E/DX2                !
 ! A47   A(1,16,17)            119.4596         estimate D2E/DX2                !
 ! A48   A(15,16,17)           119.2073         estimate D2E/DX2                !
 ! A49   A(4,17,16)            119.3693         estimate D2E/DX2                !
 ! A50   A(4,17,18)            119.3575         estimate D2E/DX2                !
 ! A51   A(16,17,18)           121.2732         estimate D2E/DX2                !
 ! A52   A(13,18,17)           119.5422         estimate D2E/DX2                !
 ! A53   A(13,18,25)           120.1442         estimate D2E/DX2                !
 ! A54   A(17,18,25)           120.3136         estimate D2E/DX2                !
 ! A55   A(6,19,22)            121.006          estimate D2E/DX2                !
 ! A56   A(6,19,24)            119.6712         estimate D2E/DX2                !
 ! A57   A(22,19,24)           119.3228         estimate D2E/DX2                !
 ! A58   A(21,20,23)           120.7725         estimate D2E/DX2                !
 ! A59   A(21,20,42)           119.8713         estimate D2E/DX2                !
 ! A60   A(23,20,42)           119.3562         estimate D2E/DX2                !
 ! A61   A(20,21,22)           120.1652         estimate D2E/DX2                !
 ! A62   A(20,21,43)           119.6135         estimate D2E/DX2                !
 ! A63   A(22,21,43)           120.2213         estimate D2E/DX2                !
 ! A64   A(19,22,21)           120.6799         estimate D2E/DX2                !
 ! A65   A(19,22,44)           118.8067         estimate D2E/DX2                !
 ! A66   A(21,22,44)           120.5134         estimate D2E/DX2                !
 ! A67   A(20,23,24)           119.4852         estimate D2E/DX2                !
 ! A68   A(20,23,27)           120.912          estimate D2E/DX2                !
 ! A69   A(24,23,27)           119.6027         estimate D2E/DX2                !
 ! A70   A(19,24,23)           119.5744         estimate D2E/DX2                !
 ! A71   A(19,24,25)           119.9844         estimate D2E/DX2                !
 ! A72   A(23,24,25)           120.4411         estimate D2E/DX2                !
 ! A73   A(18,25,24)           119.9734         estimate D2E/DX2                !
 ! A74   A(18,25,26)           119.8011         estimate D2E/DX2                !
 ! A75   A(24,25,26)           120.2255         estimate D2E/DX2                !
 ! A76   A(5,26,25)            119.704          estimate D2E/DX2                !
 ! A77   A(5,26,28)            121.0986         estimate D2E/DX2                !
 ! A78   A(25,26,28)           119.1974         estimate D2E/DX2                !
 ! A79   A(23,27,28)           120.2445         estimate D2E/DX2                !
 ! A80   A(23,27,32)           120.5846         estimate D2E/DX2                !
 ! A81   A(28,27,32)           119.1709         estimate D2E/DX2                !
 ! A82   A(26,28,27)           120.2887         estimate D2E/DX2                !
 ! A83   A(26,28,29)           120.525          estimate D2E/DX2                !
 ! A84   A(27,28,29)           119.1863         estimate D2E/DX2                !
 ! A85   A(28,29,30)           120.9415         estimate D2E/DX2                !
 ! A86   A(28,29,45)           118.8313         estimate D2E/DX2                !
 ! A87   A(30,29,45)           120.2272         estimate D2E/DX2                !
 ! A88   A(29,30,31)           119.8733         estimate D2E/DX2                !
 ! A89   A(29,30,46)           120.1228         estimate D2E/DX2                !
 ! A90   A(31,30,46)           120.0039         estimate D2E/DX2                !
 ! A91   A(30,31,32)           119.8851         estimate D2E/DX2                !
 ! A92   A(30,31,47)           119.9978         estimate D2E/DX2                !
 ! A93   A(32,31,47)           120.1171         estimate D2E/DX2                !
 ! A94   A(27,32,31)           120.943          estimate D2E/DX2                !
 ! A95   A(27,32,48)           118.8481         estimate D2E/DX2                !
 ! A96   A(31,32,48)           120.209          estimate D2E/DX2                !
 ! D1    D(16,1,2,3)             0.0            estimate D2E/DX2                !
 ! D2    D(16,1,2,34)          180.0            estimate D2E/DX2                !
 ! D3    D(33,1,2,3)           180.0            estimate D2E/DX2                !
 ! D4    D(33,1,2,34)            0.0            estimate D2E/DX2                !
 ! D5    D(2,1,16,15)          180.0            estimate D2E/DX2                !
 ! D6    D(2,1,16,17)            0.0            estimate D2E/DX2                !
 ! D7    D(33,1,16,15)           0.0            estimate D2E/DX2                !
 ! D8    D(33,1,16,17)         180.0            estimate D2E/DX2                !
 ! D9    D(1,2,3,4)              0.0            estimate D2E/DX2                !
 ! D10   D(1,2,3,35)           180.0            estimate D2E/DX2                !
 ! D11   D(34,2,3,4)           180.0            estimate D2E/DX2                !
 ! D12   D(34,2,3,35)            0.0            estimate D2E/DX2                !
 ! D13   D(2,3,4,5)            180.0            estimate D2E/DX2                !
 ! D14   D(2,3,4,17)             0.0            estimate D2E/DX2                !
 ! D15   D(35,3,4,5)             0.0            estimate D2E/DX2                !
 ! D16   D(35,3,4,17)          180.0            estimate D2E/DX2                !
 ! D17   D(3,4,5,26)           180.0            estimate D2E/DX2                !
 ! D18   D(3,4,5,36)             0.0            estimate D2E/DX2                !
 ! D19   D(17,4,5,26)            0.0            estimate D2E/DX2                !
 ! D20   D(17,4,5,36)          180.0            estimate D2E/DX2                !
 ! D21   D(3,4,17,16)            0.0            estimate D2E/DX2                !
 ! D22   D(3,4,17,18)          180.0            estimate D2E/DX2                !
 ! D23   D(5,4,17,16)          180.0            estimate D2E/DX2                !
 ! D24   D(5,4,17,18)            0.0            estimate D2E/DX2                !
 ! D25   D(4,5,26,25)            0.0            estimate D2E/DX2                !
 ! D26   D(4,5,26,28)          180.0            estimate D2E/DX2                !
 ! D27   D(36,5,26,25)         180.0            estimate D2E/DX2                !
 ! D28   D(36,5,26,28)           0.0            estimate D2E/DX2                !
 ! D29   D(13,6,7,8)             0.0            estimate D2E/DX2                !
 ! D30   D(13,6,7,37)          180.0            estimate D2E/DX2                !
 ! D31   D(19,6,7,8)           180.0            estimate D2E/DX2                !
 ! D32   D(19,6,7,37)            0.0            estimate D2E/DX2                !
 ! D33   D(7,6,13,14)            0.0            estimate D2E/DX2                !
 ! D34   D(7,6,13,18)          180.0            estimate D2E/DX2                !
 ! D35   D(19,6,13,14)         180.0            estimate D2E/DX2                !
 ! D36   D(19,6,13,18)           0.0            estimate D2E/DX2                !
 ! D37   D(7,6,19,22)            0.0            estimate D2E/DX2                !
 ! D38   D(7,6,19,24)          180.0            estimate D2E/DX2                !
 ! D39   D(13,6,19,22)         180.0            estimate D2E/DX2                !
 ! D40   D(13,6,19,24)           0.0            estimate D2E/DX2                !
 ! D41   D(6,7,8,9)              0.0            estimate D2E/DX2                !
 ! D42   D(6,7,8,38)           180.0            estimate D2E/DX2                !
 ! D43   D(37,7,8,9)           180.0            estimate D2E/DX2                !
 ! D44   D(37,7,8,38)            0.0            estimate D2E/DX2                !
 ! D45   D(7,8,9,10)           180.0            estimate D2E/DX2                !
 ! D46   D(7,8,9,14)             0.0            estimate D2E/DX2                !
 ! D47   D(38,8,9,10)            0.0            estimate D2E/DX2                !
 ! D48   D(38,8,9,14)          180.0            estimate D2E/DX2                !
 ! D49   D(8,9,10,11)          180.0            estimate D2E/DX2                !
 ! D50   D(8,9,10,39)            0.0            estimate D2E/DX2                !
 ! D51   D(14,9,10,11)           0.0            estimate D2E/DX2                !
 ! D52   D(14,9,10,39)         180.0            estimate D2E/DX2                !
 ! D53   D(8,9,14,13)            0.0            estimate D2E/DX2                !
 ! D54   D(8,9,14,15)          180.0            estimate D2E/DX2                !
 ! D55   D(10,9,14,13)         180.0            estimate D2E/DX2                !
 ! D56   D(10,9,14,15)           0.0            estimate D2E/DX2                !
 ! D57   D(9,10,11,12)           0.0            estimate D2E/DX2                !
 ! D58   D(9,10,11,40)         180.0            estimate D2E/DX2                !
 ! D59   D(39,10,11,12)        180.0            estimate D2E/DX2                !
 ! D60   D(39,10,11,40)          0.0            estimate D2E/DX2                !
 ! D61   D(10,11,12,15)          0.0            estimate D2E/DX2                !
 ! D62   D(10,11,12,41)        180.0            estimate D2E/DX2                !
 ! D63   D(40,11,12,15)        180.0            estimate D2E/DX2                !
 ! D64   D(40,11,12,41)          0.0            estimate D2E/DX2                !
 ! D65   D(11,12,15,14)          0.0            estimate D2E/DX2                !
 ! D66   D(11,12,15,16)        180.0            estimate D2E/DX2                !
 ! D67   D(41,12,15,14)        180.0            estimate D2E/DX2                !
 ! D68   D(41,12,15,16)          0.0            estimate D2E/DX2                !
 ! D69   D(6,13,14,9)            0.0            estimate D2E/DX2                !
 ! D70   D(6,13,14,15)         180.0            estimate D2E/DX2                !
 ! D71   D(18,13,14,9)         180.0            estimate D2E/DX2                !
 ! D72   D(18,13,14,15)          0.0            estimate D2E/DX2                !
 ! D73   D(6,13,18,17)         180.0            estimate D2E/DX2                !
 ! D74   D(6,13,18,25)           0.0            estimate D2E/DX2                !
 ! D75   D(14,13,18,17)          0.0            estimate D2E/DX2                !
 ! D76   D(14,13,18,25)        180.0            estimate D2E/DX2                !
 ! D77   D(9,14,15,12)           0.0            estimate D2E/DX2                !
 ! D78   D(9,14,15,16)         180.0            estimate D2E/DX2                !
 ! D79   D(13,14,15,12)        180.0            estimate D2E/DX2                !
 ! D80   D(13,14,15,16)          0.0            estimate D2E/DX2                !
 ! D81   D(12,15,16,1)           0.0            estimate D2E/DX2                !
 ! D82   D(12,15,16,17)        180.0            estimate D2E/DX2                !
 ! D83   D(14,15,16,1)         180.0            estimate D2E/DX2                !
 ! D84   D(14,15,16,17)          0.0            estimate D2E/DX2                !
 ! D85   D(1,16,17,4)            0.0            estimate D2E/DX2                !
 ! D86   D(1,16,17,18)         180.0            estimate D2E/DX2                !
 ! D87   D(15,16,17,4)         180.0            estimate D2E/DX2                !
 ! D88   D(15,16,17,18)          0.0            estimate D2E/DX2                !
 ! D89   D(4,17,18,13)         180.0            estimate D2E/DX2                !
 ! D90   D(4,17,18,25)           0.0            estimate D2E/DX2                !
 ! D91   D(16,17,18,13)          0.0            estimate D2E/DX2                !
 ! D92   D(16,17,18,25)        180.0            estimate D2E/DX2                !
 ! D93   D(13,18,25,24)          0.0            estimate D2E/DX2                !
 ! D94   D(13,18,25,26)        180.0            estimate D2E/DX2                !
 ! D95   D(17,18,25,24)        180.0            estimate D2E/DX2                !
 ! D96   D(17,18,25,26)          0.0            estimate D2E/DX2                !
 ! D97   D(6,19,22,21)         180.0            estimate D2E/DX2                !
 ! D98   D(6,19,22,44)           0.0            estimate D2E/DX2                !
 ! D99   D(24,19,22,21)          0.0            estimate D2E/DX2                !
 ! D100  D(24,19,22,44)        180.0            estimate D2E/DX2                !
 ! D101  D(6,19,24,23)         180.0            estimate D2E/DX2                !
 ! D102  D(6,19,24,25)           0.0            estimate D2E/DX2                !
 ! D103  D(22,19,24,23)          0.0            estimate D2E/DX2                !
 ! D104  D(22,19,24,25)        180.0            estimate D2E/DX2                !
 ! D105  D(23,20,21,22)          0.0            estimate D2E/DX2                !
 ! D106  D(23,20,21,43)        180.0            estimate D2E/DX2                !
 ! D107  D(42,20,21,22)        180.0            estimate D2E/DX2                !
 ! D108  D(42,20,21,43)          0.0            estimate D2E/DX2                !
 ! D109  D(21,20,23,24)          0.0            estimate D2E/DX2                !
 ! D110  D(21,20,23,27)        180.0            estimate D2E/DX2                !
 ! D111  D(42,20,23,24)        180.0            estimate D2E/DX2                !
 ! D112  D(42,20,23,27)          0.0            estimate D2E/DX2                !
 ! D113  D(20,21,22,19)          0.0            estimate D2E/DX2                !
 ! D114  D(20,21,22,44)        180.0            estimate D2E/DX2                !
 ! D115  D(43,21,22,19)        180.0            estimate D2E/DX2                !
 ! D116  D(43,21,22,44)          0.0            estimate D2E/DX2                !
 ! D117  D(20,23,24,19)          0.0            estimate D2E/DX2                !
 ! D118  D(20,23,24,25)        180.0            estimate D2E/DX2                !
 ! D119  D(27,23,24,19)        180.0            estimate D2E/DX2                !
 ! D120  D(27,23,24,25)          0.0            estimate D2E/DX2                !
 ! D121  D(20,23,27,28)        180.0            estimate D2E/DX2                !
 ! D122  D(20,23,27,32)          0.0            estimate D2E/DX2                !
 ! D123  D(24,23,27,28)          0.0            estimate D2E/DX2                !
 ! D124  D(24,23,27,32)        180.0            estimate D2E/DX2                !
 ! D125  D(19,24,25,18)          0.0            estimate D2E/DX2                !
 ! D126  D(19,24,25,26)        180.0            estimate D2E/DX2                !
 ! D127  D(23,24,25,18)        180.0            estimate D2E/DX2                !
 ! D128  D(23,24,25,26)          0.0            estimate D2E/DX2                !
 ! D129  D(18,25,26,5)           0.0            estimate D2E/DX2                !
 ! D130  D(18,25,26,28)        180.0            estimate D2E/DX2                !
 ! D131  D(24,25,26,5)         180.0            estimate D2E/DX2                !
 ! D132  D(24,25,26,28)          0.0            estimate D2E/DX2                !
 ! D133  D(5,26,28,27)         180.0            estimate D2E/DX2                !
 ! D134  D(5,26,28,29)           0.0            estimate D2E/DX2                !
 ! D135  D(25,26,28,27)          0.0            estimate D2E/DX2                !
 ! D136  D(25,26,28,29)        180.0            estimate D2E/DX2                !
 ! D137  D(23,27,28,26)          0.0            estimate D2E/DX2                !
 ! D138  D(23,27,28,29)        180.0            estimate D2E/DX2                !
 ! D139  D(32,27,28,26)        180.0            estimate D2E/DX2                !
 ! D140  D(32,27,28,29)          0.0            estimate D2E/DX2                !
 ! D141  D(23,27,32,31)        180.0            estimate D2E/DX2                !
 ! D142  D(23,27,32,48)          0.0            estimate D2E/DX2                !
 ! D143  D(28,27,32,31)          0.0            estimate D2E/DX2                !
 ! D144  D(28,27,32,48)        180.0            estimate D2E/DX2                !
 ! D145  D(26,28,29,30)        180.0            estimate D2E/DX2                !
 ! D146  D(26,28,29,45)          0.0            estimate D2E/DX2                !
 ! D147  D(27,28,29,30)          0.0            estimate D2E/DX2                !
 ! D148  D(27,28,29,45)        180.0            estimate D2E/DX2                !
 ! D149  D(28,29,30,31)          0.0            estimate D2E/DX2                !
 ! D150  D(28,29,30,46)        180.0            estimate D2E/DX2                !
 ! D151  D(45,29,30,31)        180.0            estimate D2E/DX2                !
 ! D152  D(45,29,30,46)          0.0            estimate D2E/DX2                !
 ! D153  D(29,30,31,32)          0.0            estimate D2E/DX2                !
 ! D154  D(29,30,31,47)        180.0            estimate D2E/DX2                !
 ! D155  D(46,30,31,32)        180.0            estimate D2E/DX2                !
 ! D156  D(46,30,31,47)          0.0            estimate D2E/DX2                !
 ! D157  D(30,31,32,27)          0.0            estimate D2E/DX2                !
 ! D158  D(30,31,32,48)        180.0            estimate D2E/DX2                !
 ! D159  D(47,31,32,27)        180.0            estimate D2E/DX2                !
 ! D160  D(47,31,32,48)          0.0            estimate D2E/DX2                !
 --------------------------------------------------------------------------------
 Trust Radius=3.00D-01 FncErr=1.00D-07 GrdErr=1.00D-06
 Number of steps in this run=    288 maximum allowed number of steps=    288.
 GradGradGradGradGradGradGradGradGradGradGradGradGradGradGradGradGradGrad

 Leave Link  103 at Sat Jul 27 10:01:40 2019, MaxMem=  4194304000 cpu:         0.3
 (Enter /home/minenky/programs//g09/l202.exe)
                          Input orientation:                          
 ---------------------------------------------------------------------
 Center     Atomic      Atomic             Coordinates (Angstroms)
 Number     Number       Type             X           Y           Z
 ---------------------------------------------------------------------
      1          6           0       -3.004540   -3.109625    0.000000
      2          6           0       -2.141027   -4.218586    0.000000
      3          6           0       -0.780212   -4.039621    0.000000
      4          6           0       -0.234181   -2.732434    0.000000
      5          6           0        1.170527   -2.530738    0.000000
      6          6           0       -0.885590    2.129444    0.000000
      7          6           0       -1.773816    3.247231    0.000000
      8          6           0       -3.123141    3.075165    0.000000
      9          6           0       -3.687676    1.763700    0.000000
     10          6           0       -5.088306    1.576537    0.000000
     11          6           0       -5.615243    0.306523    0.000000
     12          6           0       -4.768898   -0.812440    0.000000
     13          6           0       -1.412164    0.840056    0.000000
     14          6           0       -2.831169    0.644421    0.000000
     15          6           0       -3.392161   -0.662217    0.000000
     16          6           0       -2.504507   -1.820338    0.000000
     17          6           0       -1.095137   -1.615701    0.000000
     18          6           0       -0.537313   -0.302297    0.000000
     19          6           0        0.546315    2.322354    0.000000
     20          6           0        3.321571    2.683814    0.000000
     21          6           0        2.471393    3.791309    0.000000
     22          6           0        1.103900    3.614994    0.000000
     23          6           0        2.807333    1.392613    0.000000
     24          6           0        1.402022    1.200868    0.000000
     25          6           0        0.848278   -0.124752    0.000000
     26          6           0        1.712079   -1.266775    0.000000
     27          6           0        3.693052    0.232983    0.000000
     28          6           0        3.158109   -1.065976    0.000000
     29          6           0        4.030609   -2.165588    0.000000
     30          6           0        5.402317   -1.985263    0.000000
     31          6           0        5.933580   -0.695308    0.000000
     32          6           0        5.086946    0.398894    0.000000
     33          1           0       -4.094904   -3.262663    0.000000
     34          1           0       -2.567827   -5.227003    0.000000
     35          1           0       -0.102241   -4.900535    0.000000
     36          1           0        1.834927   -3.410063    0.000000
     37          1           0       -1.334000    4.256363    0.000000
     38          1           0       -3.799403    3.937674    0.000000
     39          1           0       -5.744779    2.454005    0.000000
     40          1           0       -6.700004    0.157074    0.000000
     41          1           0       -5.197305   -1.826750    0.000000
     42          1           0        4.412574    2.830172    0.000000
     43          1           0        2.897025    4.800173    0.000000
     44          1           0        0.428415    4.483937    0.000000
     45          1           0        3.605106   -3.180891    0.000000
     46          1           0        6.070473   -2.852505    0.000000
     47          1           0        7.018716   -0.550257    0.000000
     48          1           0        5.500400    1.419138    0.000000
 ---------------------------------------------------------------------
                    Distance matrix (angstroms):
                    1          2          3          4          5
     1  C    0.000000
     2  C    1.405507   0.000000
     3  C    2.410919   1.372532   0.000000
     4  C    2.795918   2.417583   1.416647   0.000000
     5  C    4.215009   3.716883   2.466194   1.419115   0.000000
     6  C    5.651353   6.470982   6.169965   4.905322   5.093615
     7  C    6.474897   7.474842   7.354281   6.174695   6.484912
     8  C    6.185927   7.359576   7.490627   6.486470   7.061285
     9  C    4.920972   6.178986   6.490907   5.669378   6.484161
    10  C    5.128566   6.501531   7.078199   6.490744   7.486167
    11  C    4.299515   5.704979   6.501268   6.179893   7.355048
    12  C    2.896552   4.302039   5.130722   4.924432   6.182986
    13  C    4.258596   5.110881   4.920428   3.761692   4.246475
    14  C    3.758047   4.911735   5.113382   4.259987   5.108347
    15  C    2.477914   3.770027   4.269560   3.776061   4.930466
    16  C    1.382857   2.425636   2.810411   2.446691   3.743066
    17  C    2.424382   2.805155   2.444293   1.410084   2.443467
    18  C    3.737419   4.231928   3.745209   2.448970   2.807609
    19  C    6.489604   7.071470   6.498799   5.114689   4.893071
    20  C    8.578089   8.802448   7.875862   6.479129   5.640793
    21  C    8.809582   9.242988   8.479175   7.062532   6.454497
    22  C    7.880341   8.479064   7.883084   6.486933   6.146093
    23  C    7.351736   7.481432   6.509965   5.125117   4.251096
    24  C    6.164263   6.474849   5.676695   4.260049   3.738779
    25  C    4.873774   5.069065   4.240068   2.823424   2.427471
    26  C    5.063851   4.853824   3.728295   2.436408   1.375093
    27  C    7.485370   7.338456   6.185890   4.921063   3.741829
    28  C    6.492668   6.166018   4.934869   3.779512   2.469009
    29  C    7.098205   6.504143   5.162944   4.302296   2.883297
    30  C    8.481712   7.867005   6.514910   5.685805   4.266801
    31  C    9.258451   8.809811   7.500629   6.495473   5.104457
    32  C    8.819402   8.576987   7.356898   6.174108   4.890918
    33  H    1.101051   2.175184   3.404533   3.896963   5.316058
    34  H    2.161946   1.095018   2.146030   3.415960   4.609245
    35  H    3.410381   2.149814   1.095818   2.172112   2.689958
    36  H    4.848784   4.057329   2.689851   2.177244   1.102107
    37  H    7.553044   8.513287   8.314447   7.074806   7.234459
    38  H    7.091983   8.323148   8.529523   7.563144   8.157240
    39  H    6.201845   7.583568   8.173989   7.567419   8.524618
    40  H    4.932320   6.319073   7.256459   7.082099   8.316827
    41  H    2.540469   3.880943   4.940395   5.045083   6.406628
    42  H    9.502356   9.624691   8.611567   7.248098   6.265000
    43  H    9.868808  10.330536   9.574134   8.157489   7.531471
    44  H    8.333508   9.073915   8.608822   7.246726   7.053821
    45  H    6.610031   5.839080   4.468606   3.865391   2.519896
    46  H    9.078655   8.324356   6.952778   6.305797   4.910499
    47  H   10.344855   9.866991   8.543942   7.574062   6.174432
    48  H    9.635543   9.496069   8.321306   7.079617   5.860829
                    6          7          8          9         10
     6  C    0.000000
     7  C    1.427723   0.000000
     8  C    2.429203   1.360252   0.000000
     9  C    2.825855   2.421513   1.427810   0.000000
    10  C    4.238930   3.711747   2.471388   1.413079   0.000000
    11  C    5.068793   4.837802   3.725044   2.416377   1.374991
    12  C    4.871833   5.044942   4.221609   2.793839   2.410235
    13  C    1.392767   2.434190   2.814810   2.455824   3.749190
    14  C    2.447564   2.809379   2.448216   1.409393   2.442030
    15  C    3.751836   4.231173   3.747051   2.443849   2.808723
    16  C    4.268684   5.119976   4.934436   3.774283   4.267878
    17  C    3.751002   4.910062   5.110482   4.259296   5.112316
    18  C    2.456554   3.758734   4.253676   3.767377   4.923571
    19  C    1.444841   2.497680   3.745882   4.270688   5.683766
    20  C    4.243528   5.126442   6.456584   7.069382   8.482458
    21  C    3.745815   4.279932   5.640184   6.484237   7.877453
    22  C    2.482927   2.901120   4.261372   5.136778   6.519104
    23  C    3.765714   4.942321   6.164537   6.505602   7.897781
    24  C    2.468891   3.778035   4.897969   5.120724   6.501191
    25  C    2.843888   4.271492   5.100161   4.913363   6.175550
    26  C    4.275767   5.703307   6.498600   6.192022   7.370865
    27  C    4.955858   6.242783   7.385018   7.537788   8.883546
    28  C    5.153854   6.551918   7.523507   7.407553   8.659459
    29  C    6.528117   7.936621   8.868012   8.660902   9.856881
    30  C    7.514558   8.881209   9.914201   9.832736  11.078790
    31  C    7.381077   8.657226   9.810233   9.930524  11.253589
    32  C    6.218198   7.428531   8.635274   8.880129  10.243173
    33  H    6.274911   6.911307   6.411894   5.042832   4.940111
    34  H    7.546339   8.511351   8.320720   7.079830   7.255410
    35  H    7.073488   8.317466   8.528635   7.567520   8.173940
    36  H    6.171495   7.572489   8.163371   7.567494   8.532136
    37  H    2.173673   1.100812   2.143888   3.428289   4.612622
    38  H    3.429286   2.140027   1.096016   2.176844   2.690026
    39  H    4.870016   4.049414   2.694220   2.169837   1.095859
    40  H    6.139842   5.815187   4.616189   3.413996   2.147661
    41  H    5.851697   6.120912   5.322681   3.894908   3.405032
    42  H    5.344302   6.200432   7.539697   8.170154   9.583231
    43  H    4.630440   4.922234   6.262433   7.251101   8.611466
    44  H    2.696339   2.525720   3.820758   4.933751   6.235959
    45  H    6.954567   8.381739   9.187358   8.810996   9.910022
    46  H    8.556087   9.936782  10.938913  10.794944  12.005613
    47  H    8.346187   9.577553  10.770374  10.953594  12.292405
    48  H    6.425372   7.500409   8.781110   9.194535  10.589876
                   11         12         13         14         15
    11  C    0.000000
    12  C    1.402989   0.000000
    13  C    4.236807   3.741444   0.000000
    14  C    2.804505   2.424302   1.432427   0.000000
    15  C    2.424984   1.384908   2.485400   1.421976   0.000000
    16  C    3.768318   2.478573   2.875919   2.486312   1.459169
    17  C    4.911853   3.760551   2.476136   2.849905   2.487057
    18  C    5.114297   4.262224   1.438866   2.481542   2.877447
    19  C    6.482929   6.170771   2.456185   3.771320   4.941584
    20  C    9.247603   8.813596   5.080127   6.481923   7.501342
    21  C    8.805534   8.579995   4.877695   6.166041   7.363095
    22  C    7.489517   7.354721   3.745778   4.930422   6.205570
    23  C    8.492313   7.890598   4.255523   5.687925   6.531161
    24  C    7.074028   6.491044   2.837222   4.269606   5.143469
    25  C    6.477894   5.659115   2.457733   3.758983   4.274365
    26  C    7.494325   6.496882   3.768240   4.928871   5.139918
    27  C    9.308586   8.526283   5.141184   6.537181   7.141543
    28  C    8.880059   7.931060   4.951803   6.228716   6.562702
    29  C    9.957600   8.902939   6.217529   7.414860   7.573483
    30  C   11.253396  10.238609   7.376963   8.643236   8.893441
    31  C   11.592195  10.703119   7.504485   8.866550   9.325800
    32  C   10.702588   9.930004   6.514066   7.921920   8.545245
    33  H    3.879499   2.541232   4.901979   4.106377   2.693727
    34  H    6.317171   4.932857   6.176145   5.877327   4.638621
    35  H    7.583313   6.204047   5.888148   6.180096   5.365344
    36  H    8.325746   7.096348   5.348562   6.181529   5.905346
    37  H    5.824971   6.123013   3.417201   3.909941   5.331834
    38  H    4.059869   4.848041   3.910773   3.432636   4.617883
    39  H    2.151385   3.409106   4.623460   3.429827   3.904567
    40  H    1.095008   2.160817   5.331766   3.899410   3.407795
    41  H    2.173827   1.101071   4.630243   3.421300   2.148181
    42  H   10.340499   9.877654   6.155334   7.566328   8.550478
    43  H    9.625571   9.500937   5.852490   7.076898   8.330160
    44  H    7.346877   7.420490   4.082352   5.036543   6.409345
    45  H    9.857834   8.702500   6.429698   7.487232   7.436765
    46  H   12.105181  11.029679   8.344151   9.563875   9.712816
    47  H   12.662977  11.790529   8.544747   9.922070  10.411479
    48  H   11.171188  10.508968   6.936777   8.367510   9.132890
                   16         17         18         19         20
    16  C    0.000000
    17  C    1.424148   0.000000
    18  C    2.484814   1.426954   0.000000
    19  C    5.144842   4.266455   2.839549   0.000000
    20  C    7.364140   6.163857   4.879328   2.798696   0.000000
    21  C    7.500011   6.477337   5.080347   2.421520   1.396191
    22  C    6.524065   5.674146   4.247205   1.407771   2.405236
    23  C    6.207954   4.927395   3.749584   2.444713   1.389835
    24  C    4.938486   3.764155   2.453676   1.410661   2.425654
    25  C    3.757150   2.449447   1.396920   2.465666   3.742355
    26  C    4.252766   2.828818   2.447444   3.773705   4.265867
    27  C    6.528848   5.132678   4.264096   3.777225   2.478825
    28  C    5.712641   4.288624   3.773506   4.278112   3.753352
    29  C    6.544229   5.155157   4.933332   5.681719   4.900963
    30  C    7.908544   6.507956   6.173458   6.491249   5.111730
    31  C    8.512755   7.088723   6.482817   6.174861   4.270955
    32  C    7.909180   6.502056   5.667800   4.931230   2.887457
    33  H    2.147013   3.422146   4.628198   7.261771   9.506034
    34  H    3.407254   3.900041   5.326887   8.166436   9.862355
    35  H    3.906212   3.431614   4.618775   7.251947   8.321348
    36  H    4.621462   3.435843   3.909697   5.875468   6.272595
    37  H    6.188407   5.876920   4.627752   2.697402   4.913985
    38  H    5.901818   6.176814   5.349634   4.636219   7.230521
    39  H    5.363708   6.179132   5.891935   6.292471   9.069262
    40  H    4.638142   5.878543   6.179789   7.562908  10.335202
    41  H    2.692806   4.107593   4.903008   7.085494   9.639318
    42  H    8.335061   7.078182   5.857793   3.899467   1.100776
    43  H    8.544455   7.556507   6.150600   3.415469   2.158522
    44  H    6.953122   6.287033   4.882690   2.164796   3.407461
    45  H    6.259271   4.953999   5.044397   6.296182   5.871555
    46  H    8.636877   7.271564   7.082824   7.569378   6.181204
    47  H    9.607542   8.183506   7.560096   7.081233   4.912035
    48  H    8.635551   7.260259   6.278321   5.035748   2.519266
                   21         22         23         24         25
    21  C    0.000000
    22  C    1.378813   0.000000
    23  C    2.422106   2.800118   0.000000
    24  C    2.802489   2.432464   1.418332   0.000000
    25  C    4.239108   3.748472   2.477962   1.436628   0.000000
    26  C    5.114761   4.919507   2.876096   2.487046   1.431911
    27  C    3.762198   4.259308   1.459191   2.487091   2.867179
    28  C    4.905589   5.111874   2.483486   2.867476   2.494237
    29  C    6.157579   6.479256   3.762605   4.271123   3.780508
    30  C    6.477584   7.059693   4.259576   5.114077   4.919428
    31  C    5.667140   6.473370   3.759366   4.912281   5.117209
    32  C    4.283643   5.119371   2.486787   3.771183   4.270891
    33  H    9.637156   8.621468   8.325411   7.080910   5.855043
    34  H   10.330716   9.574053   8.527114   7.554947   6.140256
    35  H    9.064863   8.600523   6.933205   6.284100   4.869455
    36  H    7.229443   7.062990   4.900129   4.631208   3.430269
    37  H    3.833705   2.520855   5.035048   4.101447   4.894538
    38  H    6.272504   4.913909   7.079993   5.877494   6.172864
    39  H    8.324294   6.946387   8.617724   7.255833   7.079434
    40  H    9.865201   8.535698   9.587285   8.168986   7.553542
    41  H    9.506394   8.325729   8.627777   7.260688   6.280595
    42  H    2.166095   3.400481   2.154849   3.423165   4.629879
    43  H    1.094975   2.149407   3.408740   3.897440   5.334065
    44  H    2.157195   1.100609   3.900709   3.424391   4.627774
    45  H    7.063772   7.241553   4.642562   4.904425   4.115834
    46  H    7.556033   8.154470   5.354354   6.182577   5.891685
    47  H    6.287077   7.234249   4.637940   5.883339   6.185091
    48  H    3.847347   4.914366   2.693197   4.104186   4.901616
                   26         27         28         29         30
    26  C    0.000000
    27  C    2.484659   0.000000
    28  C    1.459905   1.404799   0.000000
    29  C    2.486654   2.422207   1.403710   0.000000
    30  C    3.759532   2.800393   2.425193   1.383511   0.000000
    31  C    4.260006   2.425220   2.800114   2.404792   1.395071
    32  C    3.763533   1.403733   2.422036   2.773521   2.404924
    33  H    6.140408   8.536498   7.578365   8.199239   9.582742
    34  H    5.831038   8.307229   7.078170   7.274037   8.604190
    35  H    4.061522   6.384141   5.033261   4.955843   6.228882
    36  H    2.146805   4.089549   2.691756   2.523833   3.841396
    37  H    6.307428   6.438854   6.964649   8.367824   9.183456
    38  H    7.580417   8.358327   8.569918   9.927683  10.943164
    39  H    8.333602   9.695648   9.573488  10.811977  11.998535
    40  H    8.531734  10.393334   9.933692  10.979108  12.290476
    41  H    6.932038   9.125840   8.389977   9.234132  10.600807
    42  H    4.906899   2.695015   4.093123   5.010342   4.916097
    43  H    6.181583   4.636042   5.871957   7.057396   7.233161
    44  H    5.892239   5.359894   6.184882   7.562538   8.160284
    45  H    2.692098   3.415006   2.161636   1.100859   2.158586
    46  H    4.637902   3.895172   3.416658   2.152417   1.094779
    47  H    5.354792   3.416651   3.894901   3.396775   2.161478
    48  H    4.643868   2.161821   3.414985   3.874345   3.405813
                   31         32         33         34         35
    31  C    0.000000
    32  C    1.383498   0.000000
    33  H   10.351898   9.885006   0.000000
    34  H    9.633805   9.499803   2.488091   0.000000
    35  H    7.356295   7.416981   4.315551   2.487106   0.000000
    36  H    4.916182   5.008370   5.931663   4.762932   2.444203
    37  H    8.794133   7.490568   8.009890   9.563293   9.239372
    38  H   10.779401   9.565049   7.206398   9.247059   9.580341
    39  H   12.095546  11.024960   5.949989   8.312094   9.269708
    40  H   12.662307  11.789431   4.298971   6.786986   8.313235
    41  H   11.188242  10.522324   1.810285   4.298357   5.950447
    42  H    3.839593   2.523072  10.464216  10.660398   8.952507
    43  H    6.278613   4.915995  10.672225  11.419671  10.153784
    44  H    7.558533   6.195925   8.970519  10.162668   9.399463
    45  H    3.405864   3.874365   7.700444   6.503206   4.086759
    46  H    2.161536   3.396898  10.173648   8.958709   6.503601
    47  H    1.094787   2.152353  11.439829  10.666479   8.344636
    48  H    2.158362   1.100837  10.676568  10.453109   8.445582
                   36         37         38         39         40
    36  H    0.000000
    37  H    8.295552   0.000000
    38  H    9.259315   2.485915   0.000000
    39  H    9.583279   4.764815   2.446582   0.000000
    40  H    9.250380   6.752642   4.765126   2.487639   0.000000
    41  H    7.208271   7.206205   5.931502   4.315622   2.488707
    42  H    6.751652   5.920906   8.286322  10.164316  11.429561
    43  H    8.278649   4.265830   6.751745   8.954624  10.661208
    44  H    8.018323   1.777047   4.262963   6.498381   8.338832
    45  H    1.784952   8.927907  10.271355  10.916611  10.832235
    46  H    4.272086  10.264610  11.980024  12.952189  13.120314
    47  H    5.920317   9.636983  11.712097  13.112299  13.736943
    48  H    6.062745   7.399923   9.634800  11.292697  12.265508
                   41         42         43         44         45
    41  H    0.000000
    42  H   10.678797   0.000000
    43  H   10.461085   2.485516   0.000000
    44  H    8.454200   4.313752   2.488783   0.000000
    45  H    8.905961   6.065055   8.012413   8.297045   0.000000
    46  H   11.314371   5.919582   8.284579   9.255063   2.487141
    47  H   12.282532   4.268404   6.753920   8.293079   4.309636
    48  H   11.179297   1.781680   4.267196   5.926046   4.975179
                   46         47         48
    46  H    0.000000
    47  H    2.489882   0.000000
    48  H    4.309515   2.486724   0.000000
 Stoichiometry    C32H16
 Framework group  CS[SG(C32H16)]
 Deg. of freedom    93
 Full point group                 CS      NOp   2
 Largest Abelian subgroup         CS      NOp   2
 Largest concise Abelian subgroup C1      NOp   1
                         Standard orientation:                         
 ---------------------------------------------------------------------
 Center     Atomic      Atomic             Coordinates (Angstroms)
 Number     Number       Type             X           Y           Z
 ---------------------------------------------------------------------
      1          6           0       -1.262013    4.138039    0.000000
      2          6           0       -2.650398    3.919321    0.000000
      3          6           0       -3.152590    2.641962    0.000000
      4          6           0       -2.273134    1.531356    0.000000
      5          6           0       -2.776686    0.204585    0.000000
      6          6           0        2.296392   -0.252353    0.000000
      7          6           0        3.704463   -0.016285    0.000000
      8          6           0        4.207130    1.247682    0.000000
      9          6           0        3.332889    2.376550    0.000000
     10          6           0        3.847183    3.692717    0.000000
     11          6           0        2.991010    4.768620    0.000000
     12          6           0        1.602185    4.569766    0.000000
     13          6           0        1.423092    0.832611    0.000000
     14          6           0        1.938868    2.168958    0.000000
     15          6           0        1.067136    3.292389    0.000000
     16          6           0       -0.375952    3.076347    0.000000
     17          6           0       -0.879186    1.744073    0.000000
     18          6           0        0.000000    0.620139    0.000000
     19          6           0        1.771987   -1.598668    0.000000
     20          6           0        0.744731   -4.202021    0.000000
     21          6           0        2.125377   -3.994262    0.000000
     22          6           0        2.633121   -2.712341    0.000000
     23          6           0       -0.136129   -3.126973    0.000000
     24          6           0        0.376421   -1.804491    0.000000
     25          6           0       -0.515429   -0.678213    0.000000
     26          6           0       -1.932883   -0.881176    0.000000
     27          6           0       -1.579599   -3.340591    0.000000
     28          6           0       -2.457223   -2.243670    0.000000
     29          6           0       -3.841778   -2.474777    0.000000
     30          6           0       -4.348054   -3.762328    0.000000
     31          6           0       -3.476527   -4.851669    0.000000
     32          6           0       -2.109228   -4.640575    0.000000
     33          1           0       -0.868063    5.166201    0.000000
     34          1           0       -3.326150    4.780962    0.000000
     35          1           0       -4.234108    2.465512    0.000000
     36          1           0       -3.867744    0.048923    0.000000
     37          1           0        4.374540   -0.889660    0.000000
     38          1           0        5.289218    1.421864    0.000000
     39          1           0        4.932779    3.842342    0.000000
     40          1           0        3.385388    5.790142    0.000000
     41          1           0        0.922054    5.435666    0.000000
     42          1           0        0.344627   -5.227508    0.000000
     43          1           0        2.802085   -4.855097    0.000000
     44          1           0        3.720461   -2.541955    0.000000
     45          1           0       -4.524183   -1.610939    0.000000
     46          1           0       -5.430358   -3.927125    0.000000
     47          1           0       -3.874934   -5.871390    0.000000
     48          1           0       -1.416666   -5.496263    0.000000
 ---------------------------------------------------------------------
 Rotational constants (GHZ):      0.2515601      0.1237528      0.0829475
 Leave Link  202 at Sat Jul 27 10:01:40 2019, MaxMem=  4194304000 cpu:         0.2
 (Enter /home/minenky/programs//g09/l301.exe)
 Standard basis: def2TZVP (5D, 7F)
 ======================================================================================================
                                       Pseudopotential Parameters
 ======================================================================================================
  Center     Atomic      Valence      Angular      Power
  Number     Number     Electrons     Momentum     of R      Exponent        Coefficient   SO-Coeffient
 ======================================================================================================
    1          6
                                   No pseudopotential on this center.
    2          6
                                   No pseudopotential on this center.
    3          6
                                   No pseudopotential on this center.
    4          6
                                   No pseudopotential on this center.
    5          6
                                   No pseudopotential on this center.
    6          6
                                   No pseudopotential on this center.
    7          6
                                   No pseudopotential on this center.
    8          6
                                   No pseudopotential on this center.
    9          6
                                   No pseudopotential on this center.
   10          6
                                   No pseudopotential on this center.
   11          6
                                   No pseudopotential on this center.
   12          6
                                   No pseudopotential on this center.
   13          6
                                   No pseudopotential on this center.
   14          6
                                   No pseudopotential on this center.
   15          6
                                   No pseudopotential on this center.
   16          6
                                   No pseudopotential on this center.
   17          6
                                   No pseudopotential on this center.
   18          6
                                   No pseudopotential on this center.
   19          6
                                   No pseudopotential on this center.
   20          6
                                   No pseudopotential on this center.
   21          6
                                   No pseudopotential on this center.
   22          6
                                   No pseudopotential on this center.
   23          6
                                   No pseudopotential on this center.
   24          6
                                   No pseudopotential on this center.
   25          6
                                   No pseudopotential on this center.
   26          6
                                   No pseudopotential on this center.
   27          6
                                   No pseudopotential on this center.
   28          6
                                   No pseudopotential on this center.
   29          6
                                   No pseudopotential on this center.
   30          6
                                   No pseudopotential on this center.
   31          6
                                   No pseudopotential on this center.
   32          6
                                   No pseudopotential on this center.
   33          1
                                   No pseudopotential on this center.
   34          1
                                   No pseudopotential on this center.
   35          1
                                   No pseudopotential on this center.
   36          1
                                   No pseudopotential on this center.
   37          1
                                   No pseudopotential on this center.
   38          1
                                   No pseudopotential on this center.
   39          1
                                   No pseudopotential on this center.
   40          1
                                   No pseudopotential on this center.
   41          1
                                   No pseudopotential on this center.
   42          1
                                   No pseudopotential on this center.
   43          1
                                   No pseudopotential on this center.
   44          1
                                   No pseudopotential on this center.
   45          1
                                   No pseudopotential on this center.
   46          1
                                   No pseudopotential on this center.
   47          1
                                   No pseudopotential on this center.
   48          1
                                   No pseudopotential on this center.
 ======================================================================================================
 Ernie: Thresh=  0.10000D-02 Tol=  0.10000D-05 Strict=F.
 AO basis set (Overlap normalization):
 Atom C1       Shell     1 S   6     bf    1 -     1         -2.384858484500          7.819760207742          0.000000000000
      0.1357534968D+05  0.6064550360D-03
      0.2035233368D+04  0.4697908888D-02
      0.4632256236D+03  0.2433247765D-01
      0.1312001960D+03  0.9739996831D-01
      0.4285301589D+02  0.3019558425D+00
      0.1558418577D+02  0.6623360914D+00
 Atom C1       Shell     2 S   2     bf    2 -     2         -2.384858484500          7.819760207742          0.000000000000
      0.6206713851D+01  0.6559530854D+00
      0.2576489653D+01  0.3758563329D+00
 Atom C1       Shell     3 S   1     bf    3 -     3         -2.384858484500          7.819760207742          0.000000000000
      0.5769633942D+00  0.1000000000D+01
 Atom C1       Shell     4 S   1     bf    4 -     4         -2.384858484500          7.819760207742          0.000000000000
      0.2297283136D+00  0.1000000000D+01
 Atom C1       Shell     5 S   1     bf    5 -     5         -2.384858484500          7.819760207742          0.000000000000
      0.9516444003D-01  0.1000000000D+01
 Atom C1       Shell     6 P   4     bf    6 -     8         -2.384858484500          7.819760207742          0.000000000000
      0.3469723224D+02  0.1132722000D-01
      0.7958262283D+01  0.7616965920D-01
      0.2378082688D+01  0.3019225220D+00
      0.8143320818D+00  0.7278502735D+00
 Atom C1       Shell     7 P   1     bf    9 -    11         -2.384858484500          7.819760207742          0.000000000000
      0.2888754725D+00  0.1000000000D+01
 Atom C1       Shell     8 P   1     bf   12 -    14         -2.384858484500          7.819760207742          0.000000000000
      0.1005682367D+00  0.1000000000D+01
 Atom C1       Shell     9 D   1     bf   15 -    19         -2.384858484500          7.819760207742          0.000000000000
      0.1097000000D+01  0.1000000000D+01
 Atom C1       Shell    10 D   1     bf   20 -    24         -2.384858484500          7.819760207742          0.000000000000
      0.3180000000D+00  0.1000000000D+01
 Atom C1       Shell    11 F   1     bf   25 -    31         -2.384858484500          7.819760207742          0.000000000000
      0.7610000000D+00  0.1000000000D+01
 Atom C2       Shell    12 S   6     bf   32 -    32         -5.008526463492          7.406444222334          0.000000000000
      0.1357534968D+05  0.6064550360D-03
      0.2035233368D+04  0.4697908888D-02
      0.4632256236D+03  0.2433247765D-01
      0.1312001960D+03  0.9739996831D-01
      0.4285301589D+02  0.3019558425D+00
      0.1558418577D+02  0.6623360914D+00
 Atom C2       Shell    13 S   2     bf   33 -    33         -5.008526463492          7.406444222334          0.000000000000
      0.6206713851D+01  0.6559530854D+00
      0.2576489653D+01  0.3758563329D+00
 Atom C2       Shell    14 S   1     bf   34 -    34         -5.008526463492          7.406444222334          0.000000000000
      0.5769633942D+00  0.1000000000D+01
 Atom C2       Shell    15 S   1     bf   35 -    35         -5.008526463492          7.406444222334          0.000000000000
      0.2297283136D+00  0.1000000000D+01
 Atom C2       Shell    16 S   1     bf   36 -    36         -5.008526463492          7.406444222334          0.000000000000
      0.9516444003D-01  0.1000000000D+01
 Atom C2       Shell    17 P   4     bf   37 -    39         -5.008526463492          7.406444222334          0.000000000000
      0.3469723224D+02  0.1132722000D-01
      0.7958262283D+01  0.7616965920D-01
      0.2378082688D+01  0.3019225220D+00
      0.8143320818D+00  0.7278502735D+00
 Atom C2       Shell    18 P   1     bf   40 -    42         -5.008526463492          7.406444222334          0.000000000000
      0.2888754725D+00  0.1000000000D+01
 Atom C2       Shell    19 P   1     bf   43 -    45         -5.008526463492          7.406444222334          0.000000000000
      0.1005682367D+00  0.1000000000D+01
 Atom C2       Shell    20 D   1     bf   46 -    50         -5.008526463492          7.406444222334          0.000000000000
      0.1097000000D+01  0.1000000000D+01
 Atom C2       Shell    21 D   1     bf   51 -    55         -5.008526463492          7.406444222334          0.000000000000
      0.3180000000D+00  0.1000000000D+01
 Atom C2       Shell    22 F   1     bf   56 -    62         -5.008526463492          7.406444222334          0.000000000000
      0.7610000000D+00  0.1000000000D+01
 Atom C3       Shell    23 S   6     bf   63 -    63         -5.957531471089          4.992584312296          0.000000000000
      0.1357534968D+05  0.6064550360D-03
      0.2035233368D+04  0.4697908888D-02
      0.4632256236D+03  0.2433247765D-01
      0.1312001960D+03  0.9739996831D-01
      0.4285301589D+02  0.3019558425D+00
      0.1558418577D+02  0.6623360914D+00
 Atom C3       Shell    24 S   2     bf   64 -    64         -5.957531471089          4.992584312296          0.000000000000
      0.6206713851D+01  0.6559530854D+00
      0.2576489653D+01  0.3758563329D+00
 Atom C3       Shell    25 S   1     bf   65 -    65         -5.957531471089          4.992584312296          0.000000000000
      0.5769633942D+00  0.1000000000D+01
 Atom C3       Shell    26 S   1     bf   66 -    66         -5.957531471089          4.992584312296          0.000000000000
      0.2297283136D+00  0.1000000000D+01
 Atom C3       Shell    27 S   1     bf   67 -    67         -5.957531471089          4.992584312296          0.000000000000
      0.9516444003D-01  0.1000000000D+01
 Atom C3       Shell    28 P   4     bf   68 -    70         -5.957531471089          4.992584312296          0.000000000000
      0.3469723224D+02  0.1132722000D-01
      0.7958262283D+01  0.7616965920D-01
      0.2378082688D+01  0.3019225220D+00
      0.8143320818D+00  0.7278502735D+00
 Atom C3       Shell    29 P   1     bf   71 -    73         -5.957531471089          4.992584312296          0.000000000000
      0.2888754725D+00  0.1000000000D+01
 Atom C3       Shell    30 P   1     bf   74 -    76         -5.957531471089          4.992584312296          0.000000000000
      0.1005682367D+00  0.1000000000D+01
 Atom C3       Shell    31 D   1     bf   77 -    81         -5.957531471089          4.992584312296          0.000000000000
      0.1097000000D+01  0.1000000000D+01
 Atom C3       Shell    32 D   1     bf   82 -    86         -5.957531471089          4.992584312296          0.000000000000
      0.3180000000D+00  0.1000000000D+01
 Atom C3       Shell    33 F   1     bf   87 -    93         -5.957531471089          4.992584312296          0.000000000000
      0.7610000000D+00  0.1000000000D+01
 Atom C4       Shell    34 S   6     bf   94 -    94         -4.295599881961          2.893843848465          0.000000000000
      0.1357534968D+05  0.6064550360D-03
      0.2035233368D+04  0.4697908888D-02
      0.4632256236D+03  0.2433247765D-01
      0.1312001960D+03  0.9739996831D-01
      0.4285301589D+02  0.3019558425D+00
      0.1558418577D+02  0.6623360914D+00
 Atom C4       Shell    35 S   2     bf   95 -    95         -4.295599881961          2.893843848465          0.000000000000
      0.6206713851D+01  0.6559530854D+00
      0.2576489653D+01  0.3758563329D+00
 Atom C4       Shell    36 S   1     bf   96 -    96         -4.295599881961          2.893843848465          0.000000000000
      0.5769633942D+00  0.1000000000D+01
 Atom C4       Shell    37 S   1     bf   97 -    97         -4.295599881961          2.893843848465          0.000000000000
      0.2297283136D+00  0.1000000000D+01
 Atom C4       Shell    38 S   1     bf   98 -    98         -4.295599881961          2.893843848465          0.000000000000
      0.9516444003D-01  0.1000000000D+01
 Atom C4       Shell    39 P   4     bf   99 -   101         -4.295599881961          2.893843848465          0.000000000000
      0.3469723224D+02  0.1132722000D-01
      0.7958262283D+01  0.7616965920D-01
      0.2378082688D+01  0.3019225220D+00
      0.8143320818D+00  0.7278502735D+00
 Atom C4       Shell    40 P   1     bf  102 -   104         -4.295599881961          2.893843848465          0.000000000000
      0.2888754725D+00  0.1000000000D+01
 Atom C4       Shell    41 P   1     bf  105 -   107         -4.295599881961          2.893843848465          0.000000000000
      0.1005682367D+00  0.1000000000D+01
 Atom C4       Shell    42 D   1     bf  108 -   112         -4.295599881961          2.893843848465          0.000000000000
      0.1097000000D+01  0.1000000000D+01
 Atom C4       Shell    43 D   1     bf  113 -   117         -4.295599881961          2.893843848465          0.000000000000
      0.3180000000D+00  0.1000000000D+01
 Atom C4       Shell    44 F   1     bf  118 -   124         -4.295599881961          2.893843848465          0.000000000000
      0.7610000000D+00  0.1000000000D+01
 Atom C5       Shell    45 S   6     bf  125 -   125         -5.247175677641          0.386608879651          0.000000000000
      0.1357534968D+05  0.6064550360D-03
      0.2035233368D+04  0.4697908888D-02
      0.4632256236D+03  0.2433247765D-01
      0.1312001960D+03  0.9739996831D-01
      0.4285301589D+02  0.3019558425D+00
      0.1558418577D+02  0.6623360914D+00
 Atom C5       Shell    46 S   2     bf  126 -   126         -5.247175677641          0.386608879651          0.000000000000
      0.6206713851D+01  0.6559530854D+00
      0.2576489653D+01  0.3758563329D+00
 Atom C5       Shell    47 S   1     bf  127 -   127         -5.247175677641          0.386608879651          0.000000000000
      0.5769633942D+00  0.1000000000D+01
 Atom C5       Shell    48 S   1     bf  128 -   128         -5.247175677641          0.386608879651          0.000000000000
      0.2297283136D+00  0.1000000000D+01
 Atom C5       Shell    49 S   1     bf  129 -   129         -5.247175677641          0.386608879651          0.000000000000
      0.9516444003D-01  0.1000000000D+01
 Atom C5       Shell    50 P   4     bf  130 -   132         -5.247175677641          0.386608879651          0.000000000000
      0.3469723224D+02  0.1132722000D-01
      0.7958262283D+01  0.7616965920D-01
      0.2378082688D+01  0.3019225220D+00
      0.8143320818D+00  0.7278502735D+00
 Atom C5       Shell    51 P   1     bf  133 -   135         -5.247175677641          0.386608879651          0.000000000000
      0.2888754725D+00  0.1000000000D+01
 Atom C5       Shell    52 P   1     bf  136 -   138         -5.247175677641          0.386608879651          0.000000000000
      0.1005682367D+00  0.1000000000D+01
 Atom C5       Shell    53 D   1     bf  139 -   143         -5.247175677641          0.386608879651          0.000000000000
      0.1097000000D+01  0.1000000000D+01
 Atom C5       Shell    54 D   1     bf  144 -   148         -5.247175677641          0.386608879651          0.000000000000
      0.3180000000D+00  0.1000000000D+01
 Atom C5       Shell    55 F   1     bf  149 -   155         -5.247175677641          0.386608879651          0.000000000000
      0.7610000000D+00  0.1000000000D+01
 Atom C6       Shell    56 S   6     bf  156 -   156          4.339552785902         -0.476878278456          0.000000000000
      0.1357534968D+05  0.6064550360D-03
      0.2035233368D+04  0.4697908888D-02
      0.4632256236D+03  0.2433247765D-01
      0.1312001960D+03  0.9739996831D-01
      0.4285301589D+02  0.3019558425D+00
      0.1558418577D+02  0.6623360914D+00
[...]
 .00002466,0.,0.00007663,0.00001565,0.,-0.00006113,-0.00005333,0.,0.000
 00791,-0.00020898,0.,-0.00000281,-0.00004218,0.,-0.00003394,-0.0000239
 2,0.,-0.00000151,0.00001905,0.,-0.00001117,-0.00001982,0.,-0.00001647,
 0.00001618,0.,0.00001299,-0.00000595,0.,-0.00012543,0.00014843,0.,0.00
 003060,-0.00001125,0.,-0.00003092,0.00001049,0.,-0.00001447,-0.0000376
 5,0.,0.00000076,0.00004381,0.,0.00003563,-0.00007511,0.,-0.00012057,0.
 00185685,0.,-0.01247250,-0.01798977,0.,-0.10029967,-0.30017134,0.,0.00
 107245,0.00013719,0.,0.00405171,-0.00192729,0.,0.00073335,0.00047852,0
 .,-0.00006871,-0.00004075,0.,0.00008203,0.00007928,0.,-0.00105886,-0.0
 0063902,0.,0.00036168,-0.00021170,0.,-0.00007337,-0.00009059,0.,0.0000
 1593,-0.00004857,0.,0.00000632,0.00003148,0.,-0.00000048,-0.00005302,0
 .,-0.00000345,0.00000019,0.,-0.00000246,-0.00000516,0.,0.00000348,-0.0
 0000004,0.,0.00000317,-0.00000043,0.,0.00001096,-0.00001794,0.,-0.0000
 1231,0.00000402,0.,-0.00000387,0.00000440,0.,-0.00000439,-0.00000080,0
 .,-0.00000017,-0.00000366,0.,0.00029183,0.00082505,0.,0.10791494,0.317
 16640,0.,0.,-0.00000566,0.,0.,0.00000031,0.,0.,-0.00001245,0.,0.,-0.00
 000470,0.,0.,0.00005443,0.,0.,0.00021841,0.,0.,0.00028795,0.,0.,-0.000
 10969,0.,0.,0.00005561,0.,0.,0.00000154,0.,0.,-0.00001315,0.,0.,-0.000
 00673,0.,0.,-0.00058968,0.,0.,-0.00001701,0.,0.,0.00000094,0.,0.,-0.00
 001565,0.,0.,0.00010353,0.,0.,0.00009230,0.,0.,0.00860877,0.,0.,0.0019
 8114,0.,0.,-0.03658090,0.,0.,0.00240376,0.,0.,0.00714237,0.,0.,-0.0009
 1874,0.,0.,-0.00088462,0.,0.,0.00006601,0.,0.,0.00016578,0.,0.,-0.0003
 0096,0.,0.,-0.00001263,0.,0.,0.00000910,0.,0.,-0.00006250,0.,0.,0.0001
 6483,0.,0.,-0.00000119,0.,0.,0.00000219,0.,0.,0.00000254,0.,0.,-0.0000
 0750,0.,0.,-0.00004609,0.,0.,0.00001413,0.,0.,0.00000424,0.,0.,0.00000
 126,0.,0.,0.00001684,0.,0.,-0.00342787,0.,0.,0.02595624,-0.00001321,0.
 00009729,0.,0.00006736,-0.00004398,0.,-0.00006558,-0.00003755,0.,0.000
 11583,0.00004576,0.,-0.00005755,-0.00011815,0.,-0.00079383,0.00114079,
 0.,-0.00302542,-0.00205565,0.,-0.00002104,0.00003790,0.,0.00001310,-0.
 00003228,0.,-0.00006054,0.00002279,0.,-0.00000570,0.00005665,0.,0.0000
 5182,0.00003468,0.,0.00011693,0.00028298,0.,0.00001183,0.00014199,0.,-
 0.00000044,-0.00003738,0.,-0.00001708,-0.00008476,0.,0.00000577,0.0001
 2643,0.,0.00012463,-0.00011047,0.,0.01221536,-0.00877065,0.,-0.0053119
 4,-0.00198642,0.,-0.01456803,0.02809728,0.,-0.15533872,0.13589728,0.,-
 0.00053966,-0.00106248,0.,-0.00064942,-0.00282049,0.,0.00058706,-0.000
 49410,0.,-0.00006095,-0.00005149,0.,-0.00003696,0.00018561,0.,-0.00010
 971,-0.00001457,0.,0.00003207,0.00002213,0.,-0.00001605,-0.00001095,0.
 ,0.00004057,0.00005058,0.,-0.00006158,-0.00003259,0.,-0.00000003,-0.00
 000605,0.,0.00000156,0.00000418,0.,-0.00000309,0.00000273,0.,-0.000010
 36,-0.00002127,0.,-0.00566728,-0.00142960,0.,-0.00001706,-0.00000301,0
 .,-0.00000339,-0.00000538,0.,0.00000777,0.00000690,0.,0.00000733,0.000
 00455,0.,-0.00081570,0.00118070,0.,0.00082238,-0.00032031,0.,0.1729564
 5,-0.00001385,0.00004063,0.,-0.00001615,-0.00006125,0.,-0.00003668,0.0
 0003852,0.,0.00003332,-0.00000784,0.,0.00008654,-0.00010687,0.,0.00177
 896,0.00022007,0.,0.00077068,-0.00082359,0.,-0.00015102,0.00094993,0.,
 0.00017878,-0.00003718,0.,-0.00003956,0.00013816,0.,0.00001766,0.00002
 048,0.,0.00000970,0.00006822,0.,-0.00015724,-0.00001510,0.,0.00010934,
 0.00005759,0.,-0.00001256,-0.00010950,0.,0.00006085,-0.00007236,0.,-0.
 00005703,0.00014487,0.,0.00010346,-0.00003612,0.,0.01885848,-0.0176272
 5,0.,-0.00121177,0.00147549,0.,-0.00451578,0.00661845,0.,0.13619500,-0
 .25073982,0.,-0.00089495,-0.00021309,0.,-0.00373503,-0.00335962,0.,0.0
 0141019,-0.00054847,0.,-0.00032577,-0.00028854,0.,0.00002830,0.0001532
 0,0.,-0.00009116,-0.00002348,0.,0.00001298,-0.00000131,0.,-0.00000605,
 -0.00000659,0.,0.00002378,0.00002379,0.,0.00002681,-0.00002978,0.,-0.0
 0000979,-0.00001630,0.,-0.00000320,0.00000171,0.,0.00000120,-0.0000027
 3,0.,-0.00001845,-0.00005625,0.,-0.00047828,0.00211344,0.,0.00000007,-
 0.00002030,0.,-0.00001293,-0.00000629,0.,0.00000773,0.00001531,0.,0.00
 000777,0.00000420,0.,-0.00025049,0.00011000,0.,0.00022645,0.00091229,0
 .,-0.14792253,0.26111406,0.,0.,-0.00003013,0.,0.,0.00001455,0.,0.,-0.0
 0004486,0.,0.,0.00014019,0.,0.,-0.00008451,0.,0.,-0.00250139,0.,0.,-0.
 00085308,0.,0.,-0.00021290,0.,0.,0.00017050,0.,0.,0.00002550,0.,0.,0.0
 0000474,0.,0.,-0.00000187,0.,0.,0.00012469,0.,0.,-0.00006596,0.,0.,0.0
 0010105,0.,0.,0.00001138,0.,0.,0.00001899,0.,0.,-0.00035565,0.,0.,0.00
 174404,0.,0.,0.00847117,0.,0.,0.00319563,0.,0.,-0.03483146,0.,0.,-0.00
 109551,0.,0.,0.00630829,0.,0.,0.00025004,0.,0.,0.00010141,0.,0.,-0.001
 01562,0.,0.,0.00003313,0.,0.,0.00013545,0.,0.,-0.00002604,0.,0.,-0.000
 08296,0.,0.,0.00005565,0.,0.,0.00000585,0.,0.,0.00000321,0.,0.,0.00000
 491,0.,0.,-0.00008019,0.,0.,0.00221475,0.,0.,-0.00002624,0.,0.,0.00001
 041,0.,0.,-0.00001477,0.,0.,-0.00001528,0.,0.,-0.00006444,0.,0.,-0.004
 33598,0.,0.,0.02249661,0.00000577,-0.00005111,0.,-0.00003145,0.0000433
 6,0.,0.00002529,0.00004914,0.,-0.00002480,-0.00039267,0.,-0.00282345,0
 .00161663,0.,0.00004123,-0.00001761,0.,-0.00000770,0.00002930,0.,0.000
 01360,-0.00003285,0.,-0.00000156,-0.00001544,0.,0.00001483,-0.00000408
 ,0.,-0.00001628,-0.00000308,0.,0.00001752,-0.00000460,0.,-0.00003858,0
 .00001449,0.,0.00001068,-0.00003454,0.,0.00000834,0.00003841,0.,0.0000
 1874,-0.00001872,0.,0.00004002,-0.00001796,0.,0.00007358,-0.00008808,0
 .,0.00001380,-0.00004638,0.,-0.00035126,0.00015018,0.,0.00004780,0.000
 07066,0.,-0.00001600,0.00002160,0.,0.00074532,0.00080890,0.,0.00015666
 ,0.00000120,0.,0.00010352,0.00004124,0.,-0.00003101,-0.00154596,0.,-0.
 00237116,0.00323797,0.,0.01292952,0.01675874,0.,-0.09374161,-0.0937406
 8,0.,-0.00770630,-0.03178277,0.,-0.00585404,0.00001614,0.,-0.00102558,
 0.00078685,0.,0.00001209,-0.00000131,0.,0.00001176,0.00000755,0.,-0.00
 002445,-0.00003832,0.,-0.00526563,-0.00048993,0.,0.00000505,-0.0000126
 3,0.,0.00000267,-0.00000120,0.,0.00000111,-0.00000388,0.,0.00000668,-0
 .00000040,0.,-0.00000371,0.00000271,0.,0.00001436,-0.00000960,0.,-0.00
 002280,0.00002635,0.,0.00000026,-0.00000154,0.,0.10464325,0.00003005,0
 .00004335,0.,0.00001400,-0.00005403,0.,0.00001901,0.00003251,0.,-0.000
 06235,0.00085915,0.,-0.00123501,-0.00033659,0.,-0.00006204,0.00002188,
 0.,0.00002587,-0.00001602,0.,-0.00001030,0.00002606,0.,0.00001156,0.00
 000838,0.,-0.00001598,0.00000891,0.,0.00001876,0.00000480,0.,-0.000012
 23,0.00000960,0.,0.00009184,-0.00001039,0.,-0.00002074,0.00001778,0.,-
 0.00001454,-0.00003460,0.,-0.00003391,0.00008421,0.,-0.00019403,-0.000
 03047,0.,-0.00007886,-0.00004361,0.,-0.00003460,0.00002530,0.,0.000443
 89,-0.00024165,0.,-0.00007736,-0.00005590,0.,0.00007342,-0.00005122,0.
 ,-0.00109375,-0.00065231,0.,-0.00014441,-0.00003983,0.,0.00023867,-0.0
 0005514,0.,-0.00191042,-0.00057462,0.,0.00407002,-0.00168552,0.,-0.010
 78806,-0.01872873,0.,-0.09434452,-0.30952861,0.,0.00083306,-0.00065243
 ,0.,-0.00070017,0.00175578,0.,0.00074264,0.00042404,0.,-0.00000730,-0.
 00000055,0.,-0.00001039,-0.00000183,0.,0.00001736,0.00002447,0.,-0.001
 32395,0.00194071,0.,-0.00001206,0.00001498,0.,0.00000200,-0.00000062,0
 .,0.00000071,0.00000078,0.,-0.00000292,0.00000128,0.,0.00000353,-0.000
 00027,0.,-0.00001942,0.00002754,0.,0.00002856,-0.00004180,0.,0.0000037
 7,-0.00000622,0.,0.10579221,0.32678618,0.,0.,0.00006358,0.,0.,-0.00005
 298,0.,0.,0.00000311,0.,0.,-0.00041057,0.,0.,-0.00056025,0.,0.,0.00007
 220,0.,0.,-0.00007729,0.,0.,0.00003526,0.,0.,-0.00003247,0.,0.,0.00000
 376,0.,0.,-0.00000257,0.,0.,-0.00001286,0.,0.,-0.00004363,0.,0.,0.0000
 3507,0.,0.,0.00001795,0.,0.,-0.00003845,0.,0.,0.00013375,0.,0.,0.00009
 835,0.,0.,0.00005377,0.,0.,-0.00005315,0.,0.,-0.00001880,0.,0.,0.,0.,0
 .,0.00025608,0.,0.,-0.00019295,0.,0.,-0.00012896,0.,0.,-0.00258395,0.,
 0.,0.00687336,0.,0.,0.00173528,0.,0.,-0.03605005,0.,0.,0.00342521,0.,0
 .,0.00867366,0.,0.,-0.00117793,0.,0.,-0.00000895,0.,0.,0.00000241,0.,0
 .,0.00004696,0.,0.,0.00223369,0.,0.,0.00002406,0.,0.,-0.00000291,0.,0.
 ,0.00000121,0.,0.,0.00000145,0.,0.,0.00000793,0.,0.,0.00000577,0.,0.,0
 .00000041,0.,0.,-0.00001372,0.,0.,0.02314227,-0.00003361,0.00001008,0.
 ,0.00001343,-0.00001737,0.,-0.00006083,0.00001705,0.,0.00008353,-0.000
 03733,0.,-0.00004945,0.00000339,0.,-0.00000071,0.00000242,0.,-0.000001
 73,-0.00000942,0.,-0.00000447,0.00000900,0.,-0.00000678,0.00000151,0.,
 -0.00000176,0.00000169,0.,0.00000135,-0.00000144,0.,-0.00000689,0.0000
 0146,0.,-0.00003171,-0.00003483,0.,-0.00000376,0.00002529,0.,0.0000011
 8,-0.00000794,0.,0.00000884,-0.00002525,0.,-0.00000420,0.00004144,0.,-
 0.00006607,0.00012897,0.,0.00000785,0.00002443,0.,-0.00001576,0.000019
 75,0.,0.00005053,0.00002099,0.,-0.00001376,-0.00001468,0.,0.00015259,-
 0.00005472,0.,-0.00003649,-0.00011072,0.,-0.00040877,-0.00022483,0.,-0
 .00009821,0.00156506,0.,-0.00080471,-0.00093028,0.,-0.00496800,-0.0020
 6975,0.,-0.01381725,0.02689405,0.,-0.16287561,0.13517351,0.,0.01148502
 ,-0.01108243,0.,0.00011797,-0.00290802,0.,-0.00000257,-0.00000205,0.,-
 0.00000814,-0.00000536,0.,0.00000384,-0.00000908,0.,-0.00001634,-0.000
 00702,0.,0.00000061,0.00000357,0.,-0.00000248,0.00000139,0.,-0.0000015
 3,0.00000218,0.,-0.00000318,-0.00000002,0.,0.00000150,-0.00000217,0.,0
 .00002236,0.00002831,0.,-0.00000158,0.00000619,0.,0.00000143,0.0000048
 1,0.,0.00079960,-0.00023727,0.,0.16959251,0.00001528,0.00001489,0.,0.0
 0001488,-0.00000743,0.,0.00000161,-0.00001267,0.,0.00000576,-0.0000161
 3,0.,0.00004969,-0.00003174,0.,-0.00000995,-0.00000343,0.,0.00000892,0
 .00000864,0.,0.00000255,-0.00000284,0.,0.00000521,-0.00000382,0.,0.000
 00035,0.00000161,0.,0.00000066,0.00000096,0.,0.00000592,-0.00000216,0.
 ,-0.00000276,0.00000011,0.,-0.00000334,-0.00000441,0.,0.00000154,0.000
 00561,0.,-0.00002011,0.00000224,0.,0.00003060,0.00001763,0.,-0.0000275
 3,0.00001071,0.,0.00001528,0.00001575,0.,-0.00004164,-0.00007836,0.,0.
 00005324,0.00004084,0.,0.00000896,-0.00002113,0.,0.00011482,-0.0000045
 4,0.,-0.00001722,-0.00008263,0.,-0.00002261,0.00004662,0.,-0.00010753,
 0.00026220,0.,-0.00112658,-0.00000191,0.,-0.00163179,0.00133927,0.,-0.
 00489836,0.00682067,0.,0.13586162,-0.24069281,0.,0.02051788,-0.0169275
 5,0.,-0.00356378,-0.00418709,0.,0.00000297,0.00000060,0.,0.00000311,0.
 00000371,0.,-0.00000415,-0.00000060,0.,-0.00000939,-0.00002319,0.,-0.0
 0000381,0.00000018,0.,0.00000323,-0.00000165,0.,0.00000104,-0.00000256
 ,0.,0.00000312,0.00000028,0.,-0.00000166,0.00000213,0.,0.00005453,0.00
 008481,0.,-0.00000147,-0.00000667,0.,0.00001019,-0.00000355,0.,0.00030
 006,0.00095610,0.,-0.14616533,0.25259040,0.,0.,-0.00000049,0.,0.,-0.00
 000869,0.,0.,0.00001475,0.,0.,-0.00008470,0.,0.,0.00025395,0.,0.,-0.00
 001239,0.,0.,0.00000270,0.,0.,0.00000105,0.,0.,-0.00000358,0.,0.,0.000
 00098,0.,0.,-0.00000248,0.,0.,0.00000015,0.,0.,-0.00000492,0.,0.,0.000
 00206,0.,0.,0.00000047,0.,0.,-0.00000519,0.,0.,0.00004712,0.,0.,-0.000
 03855,0.,0.,0.00007750,0.,0.,0.00004154,0.,0.,-0.00008600,0.,0.,-0.000
 00808,0.,0.,-0.00097594,0.,0.,0.00008708,0.,0.,-0.00033719,0.,0.,0.000
 11974,0.,0.,-0.00112851,0.,0.,0.00861095,0.,0.,0.00233886,0.,0.,-0.036
 45900,0.,0.,0.00221970,0.,0.,0.00719937,0.,0.,0.00000240,0.,0.,0.00000
 226,0.,0.,0.00000655,0.,0.,-0.00005765,0.,0.,-0.00000024,0.,0.,0.00000
 022,0.,0.,0.00000079,0.,0.,0.00000092,0.,0.,0.00000112,0.,0.,0.0001084
 7,0.,0.,0.00000530,0.,0.,0.00001959,0.,0.,-0.00441915,0.,0.,0.02581273
 ,-0.00000595,0.00000121,0.,-0.00000121,-0.00001106,0.,-0.00001478,0.00
 000267,0.,0.00002062,0.00001849,0.,-0.00004075,-0.00006388,0.,0.000008
 31,0.00002852,0.,-0.00001989,-0.00001883,0.,-0.00000483,0.00000965,0.,
 -0.00000765,0.00000635,0.,-0.00000042,-0.00000370,0.,-0.00000085,-0.00
 000150,0.,-0.00000758,0.00000020,0.,0.00000190,-0.00000178,0.,0.000005
 82,0.00000752,0.,-0.00000500,-0.00000434,0.,0.00000480,-0.00000643,0.,
 -0.00001130,0.00001485,0.,-0.00000620,-0.00000884,0.,-0.00006172,-0.00
 003515,0.,-0.00004716,0.00003421,0.,0.00001575,-0.00001856,0.,-0.00004
 576,0.00003897,0.,-0.00065193,-0.00067676,0.,-0.00007193,0.00033847,0.
 ,0.00000510,0.00002717,0.,0.00004252,0.00001749,0.,0.00001220,0.003419
 06,0.,0.00061873,0.00031159,0.,0.00121617,-0.00245780,0.,-0.00732656,0
 .00152868,0.,-0.33692243,-0.03912670,0.,-0.01455305,-0.00565492,0.,-0.
 00000440,-0.00000026,0.,-0.00000335,-0.00000401,0.,0.00000538,0.000001
 33,0.,0.00001633,0.00004115,0.,0.00000714,-0.00000038,0.,-0.00000594,0
 .00000186,0.,-0.00000155,0.00000336,0.,-0.00000421,-0.00000065,0.,0.00
 000059,-0.00000280,0.,-0.00000993,-0.00000761,0.,-0.00000791,0.0000261
 9,0.,-0.00000374,0.00000715,0.,-0.00048721,0.00009174,0.,0.00066821,-0
 .00035640,0.,0.35682941,0.00000255,-0.00001463,0.,-0.00001788,0.000005
 41,0.,0.00001662,0.00001087,0.,-0.00003106,0.00007346,0.,0.00000814,-0
 .00003837,0.,0.00000416,-0.00003171,0.,0.00001260,0.00000543,0.,0.0000
 0034,-0.00000025,0.,0.00000091,0.00000062,0.,-0.00000290,0.00000190,0.
 ,0.00000335,0.00000110,0.,-0.00000161,0.00000137,0.,0.00000381,-0.0000
 0590,0.,-0.00000434,0.00000565,0.,-0.00000087,-0.00000624,0.,0.0000171
 1,0.00001833,0.,-0.00003083,-0.00003830,0.,0.00002441,0.00004713,0.,0.
 00009987,0.00003704,0.,-0.00001067,0.00000432,0.,-0.00006848,-0.000007
 09,0.,0.00003213,0.00001987,0.,0.00098977,0.00079690,0.,0.00015678,-0.
 00031433,0.,-0.00009862,-0.00012302,0.,-0.00016602,0.00008484,0.,0.002
 96417,-0.00368854,0.,0.00049160,-0.00143440,0.,-0.00181282,-0.00528061
 ,0.,-0.03004669,0.00196037,0.,-0.03983034,-0.06643009,0.,0.02614673,0.
 00755435,0.,-0.00000150,-0.00000009,0.,-0.00000178,-0.00000069,0.,0.00
 000398,0.00000627,0.,0.00003007,0.00009193,0.,-0.00000194,0.00000111,0
 .,0.00000174,0.00000012,0.,0.00000011,0.00000026,0.,-0.00000067,0.0000
 0027,0.,0.00000102,-0.00000017,0.,-0.00000772,-0.00002387,0.,0.0000090
 5,-0.00001547,0.,-0.00000096,-0.00000405,0.,-0.00141737,-0.00016377,0.
 ,0.00056047,0.00088343,0.,0.04216100,0.06508238,0.,0.,0.00000187,0.,0.
 ,-0.00000848,0.,0.,-0.00000051,0.,0.,-0.00004196,0.,0.,0.00002045,0.,0
 .,0.00000770,0.,0.,-0.00000089,0.,0.,-0.00000280,0.,0.,0.00000220,0.,0
 .,-0.00000144,0.,0.,-0.00000028,0.,0.,-0.00000399,0.,0.,-0.00001314,0.
 ,0.,-0.00000384,0.,0.,0.00000697,0.,0.,0.00000551,0.,0.,-0.00000998,0.
 ,0.,0.00006851,0.,0.,-0.00002013,0.,0.,0.00020918,0.,0.,-0.00006261,0.
 ,0.,0.00001489,0.,0.,0.00013836,0.,0.,-0.00034344,0.,0.,0.00006885,0.,
 0.,-0.00096559,0.,0.,0.00862690,0.,0.,-0.00113684,0.,0.,0.00720884,0.,
 0.,0.00222368,0.,0.,-0.03643667,0.,0.,0.00233732,0.,0.,0.00000107,0.,0
 .,0.00000103,0.,0.,0.00000405,0.,0.,0.00011763,0.,0.,0.00000231,0.,0.,
 0.00000112,0.,0.,0.00000091,0.,0.,0.00000079,0.,0.,0.00000132,0.,0.,-0
 .00004237,0.,0.,0.00001696,0.,0.,0.00000229,0.,0.,-0.00006231,0.,0.,-0
 .00329742,0.,0.,0.02578393,-0.00002577,0.00000827,0.,-0.00001011,-0.00
 001593,0.,-0.00006356,0.00003124,0.,0.00002878,-0.00012421,0.,-0.00060
 326,0.00021311,0.,-0.00006051,0.00006177,0.,0.00003225,0.00000262,0.,-
 0.00000036,0.00003121,0.,0.00001459,-0.00000499,0.,-0.00001739,0.00002
 226,0.,0.00002989,0.00000478,0.,-0.00001065,0.00000382,0.,0.00006667,-
 0.00005886,0.,-0.00004116,0.00002623,0.,0.00001864,-0.00003885,0.,0.00
 004313,-0.00000063,0.,-0.00004670,-0.00001361,0.,0.00001073,0.00006422
 ,0.,0.00004687,-0.00008906,0.,-0.00156484,-0.00043295,0.,0.00058934,0.
 00052502,0.,0.00019356,-0.00005803,0.,0.00140222,-0.00056371,0.,-0.000
 11247,0.00008804,0.,0.00014260,-0.00020593,0.,0.00020206,-0.00166437,0
 .,-0.00576116,-0.02961811,0.,-0.00564441,0.00073997,0.,-0.00108902,0.0
 0069248,0.,-0.00171174,0.00346353,0.,0.01120574,0.01985621,0.,-0.10719
 158,-0.10799599,0.,-0.00000194,-0.00000342,0.,-0.00000783,-0.00000058,
 0.,0.00000341,0.00000491,0.,0.00003388,0.00000108,0.,-0.00001501,0.000
 01754,0.,0.00000487,-0.00000229,0.,0.00000165,-0.00000181,0.,0.0000004
 2,0.00000165,0.,0.00000723,0.00000258,0.,-0.00121749,0.00358945,0.,-0.
 00002865,-0.00000102,0.,0.00009455,0.00000179,0.,0.00008156,-0.0001060
 8,0.,0.00033399,0.00092238,0.,0.00085622,-0.00018739,0.,0.10978074,-0.
 00001844,0.00001171,0.,0.00000914,-0.00000782,0.,-0.00002955,-0.000000
 63,0.,0.00004953,-0.00000324,0.,-0.00010714,-0.00000561,0.,-0.00001796
 ,0.00002747,0.,-0.00000320,-0.00001719,0.,-0.00000617,0.00000972,0.,-0
 .00000519,0.00000308,0.,-0.00000328,0.00000032,0.,0.00000210,-0.000000
 58,0.,-0.00000776,0.00000235,0.,0.00000984,-0.00000784,0.,0.00000014,0
 .00001260,0.,0.00000022,-0.00000733,0.,-0.00000033,-0.00001548,0.,-0.0
 0001487,0.00002413,0.,-0.00002450,-0.00002066,0.,-0.00005857,-0.000075
 69,0.,0.00247544,-0.00116215,0.,0.00027278,0.00021772,0.,0.00004109,-0
 .00006083,0.,-0.00018695,-0.00196024,0.,-0.00020794,0.00016667,0.,-0.0
 0000092,-0.00001337,0.,0.00026135,-0.00008801,0.,-0.00201799,0.0000818
 1,0.,-0.00007884,0.00165073,0.,0.00075662,0.00046380,0.,0.00415925,-0.
 00240747,0.,-0.01269298,-0.01958627,0.,-0.10760446,-0.29625893,0.,-0.0
 0000315,-0.00000073,0.,-0.00000311,-0.00000354,0.,0.00000385,0.0000007
 8,0.,0.00001125,0.00000621,0.,0.00000160,0.00000541,0.,-0.00000433,0.0
 0000140,0.,-0.00000131,0.00000266,0.,-0.00000325,-0.00000022,0.,0.0000
 0198,-0.00000216,0.,0.00452127,-0.00290732,0.,0.00000038,-0.00000531,0
 .,0.00001988,0.00000303,0.,-0.00004098,-0.00006705,0.,-0.00058969,-0.0
 0099049,0.,0.00032349,0.00092687,0.,0.11081166,0.32205769,0.,0.,0.0000
 3784,0.,0.,-0.00000864,0.,0.,-0.00001452,0.,0.,-0.00004275,0.,0.,0.000
 01200,0.,0.,0.00003130,0.,0.,-0.00001244,0.,0.,-0.00000981,0.,0.,0.000
 01938,0.,0.,-0.00000804,0.,0.,0.00000858,0.,0.,-0.00002976,0.,0.,-0.00
 000292,0.,0.,-0.00003760,0.,0.,0.00005198,0.,0.,-0.00005074,0.,0.,0.00
 003369,0.,0.,0.00001488,0.,0.,0.00015370,0.,0.,-0.00094874,0.,0.,-0.00
 022608,0.,0.,-0.00003090,0.,0.,-0.00216774,0.,0.,-0.00026686,0.,0.,-0.
 00008762,0.,0.,0.00011942,0.,0.,0.00139910,0.,0.,0.00699713,0.,0.,-0.0
 0120314,0.,0.,0.00868739,0.,0.,0.00333751,0.,0.,-0.03588897,0.,0.,-0.0
 0001432,0.,0.,0.00000578,0.,0.,0.00000113,0.,0.,0.00000242,0.,0.,0.000
 01107,0.,0.,0.00000276,0.,0.,0.00000120,0.,0.,-0.00000003,0.,0.,0.0000
 1011,0.,0.,0.00234435,0.,0.,-0.00002320,0.,0.,0.00008854,0.,0.,-0.0010
 0262,0.,0.,-0.00004811,0.,0.,-0.00441994,0.,0.,0.02317421\\0.00000014,
 -0.00000029,0.,0.00000200,-0.00000076,0.,0.00000101,-0.00000105,0.,0.0
 0000159,0.00000138,0.,-0.00000064,-0.00000142,0.,-0.00000191,0.0000010
 1,0.,-0.00000015,-0.00000098,0.,-0.00000336,-0.00000251,0.,0.00000056,
 0.00000165,0.,-0.00000130,-0.00000179,0.,0.00000043,-0.00000053,0.,-0.
 00000001,-0.00000186,0.,-0.00000279,-0.00000011,0.,0.00000211,-0.00000
 122,0.,-0.00000038,-0.00000120,0.,-0.00000059,-0.00000141,0.,0.0000019
 4,0.00000073,0.,0.00000075,-0.00000149,0.,0.00000070,0.00000080,0.,-0.
 00000170,0.00000430,0.,0.00000044,-0.00000067,0.,-0.00000075,0.0000006
 6,0.,-0.00000149,-0.00000057,0.,0.00000110,0.00000077,0.,0.00000020,-0
 .00000007,0.,-0.00000025,0.00000186,0.,-0.00000013,0.00000100,0.,-0.00
 000029,0.00000049,0.,0.00000174,0.00000032,0.,0.00000009,0.00000212,0.
 ,-0.00000031,0.00000129,0.,0.00000186,0.00000114,0.,0.00000026,-0.0000
 0056,0.,0.00000131,-0.00000054,0.,0.00000085,0.00000003,0.,0.00000168,
 0.00000095,0.,-0.00000148,-0.00000104,0.,-0.00000065,-0.00000092,0.,-0
 .00000071,-0.00000180,0.,0.00000004,-0.00000178,0.,0.00000090,-0.00000
 213,0.,-0.00000114,0.00000077,0.,-0.00000118,0.00000088,0.,-0.00000060
 ,-0.00000067,0.,0.00000012,0.00000095,0.,0.00000078,0.00000158,0.,0.00
 000020,0.00000162,0.,-0.00000099,0.00000111,0.\\\@


 KNIGHT- SIRE, I'VE JUST RETURNED FROM THE FRONT
 KING-   HOW GOES THE BATTLE                    
 KNIGHT- THE SITUATION IS QUITE FLUID           
 KING-   WHAT DOES *THAT* MEAN                  
 KNIGHT- WE'RE UP THE CREEK                     
                THE WIZARD OF ID                
 Job cpu time:       4 days 20 hours 39 minutes 17.6 seconds.
 File lengths (MBytes):  RWF=   4428 Int=      0 D2E=      0 Chk=     85 Scr=      1
 Normal termination of Gaussian 09 at Sat Jul 27 22:20:36 2019.
