 Entering Gaussian System, Link 0=g09
 Initial command:
 /home/minenky/programs//g09/l1.exe "/local/scratch/minenky/m1_00_108-88-30_C7H8_wB97XD/Gau-178460.inp" -scrdir="/local/scratch/minenky/m1_00_108-88-30_C7H8_wB97XD/"
 Entering Link 1 = /home/minenky/programs//g09/l1.exe PID=    178470.
  
 Copyright (c) 1988,1990,1992,1993,1995,1998,2003,2009,2013,
            Gaussian, Inc.  All Rights Reserved.
  
 This is part of the Gaussian(R) 09 program.  It is based on
 the Gaussian(R) 03 system (copyright 2003, Gaussian, Inc.),
 the Gaussian(R) 98 system (copyright 1998, Gaussian, Inc.),
 the Gaussian(R) 94 system (copyright 1995, Gaussian, Inc.),
 the Gaussian 92(TM) system (copyright 1992, Gaussian, Inc.),
 the Gaussian 90(TM) system (copyright 1990, Gaussian, Inc.),
 the Gaussian 88(TM) system (copyright 1988, Gaussian, Inc.),
 the Gaussian 86(TM) system (copyright 1986, Carnegie Mellon
 University), and the Gaussian 82(TM) system (copyright 1983,
 Carnegie Mellon University). Gaussian is a federally registered
 trademark of Gaussian, Inc.
  
 This software contains proprietary and confidential information,
 including trade secrets, belonging to Gaussian, Inc.
  
 This software is provided under written license and may be
 used, copied, transmitted, or stored only in accord with that
 written license.
  
 The following legend is applicable only to US Government
 contracts under FAR:
  
                    RESTRICTED RIGHTS LEGEND
  
 Use, reproduction and disclosure by the US Government is
 subject to restrictions as set forth in subparagraphs (a)
 and (c) of the Commercial Computer Software - Restricted
 Rights clause in FAR 52.227-19.
  
 Gaussian, Inc.
 340 Quinnipiac St., Bldg. 40, Wallingford CT 06492
  
  
 ---------------------------------------------------------------
 Warning -- This program may not be used in any manner that
 competes with the business of Gaussian, Inc. or will provide
 assistance to any competitor of Gaussian, Inc.  The licensee
 of this program is prohibited from giving any competitor of
 Gaussian, Inc. access to this program.  By using this program,
 the user acknowledges that Gaussian, Inc. is engaged in the
 business of creating and licensing software in the field of
 computational chemistry and represents and warrants to the
 licensee that it is not a competitor of Gaussian, Inc. and that
 it will not use this program in any manner prohibited above.
 ---------------------------------------------------------------
  

 Cite this work as:
 Gaussian 09, Revision D.01,
 M. J. Frisch, G. W. Trucks, H. B. Schlegel, G. E. Scuseria, 
 M. A. Robb, J. R. Cheeseman, G. Scalmani, V. Barone, B. Mennucci, 
 G. A. Petersson, H. Nakatsuji, M. Caricato, X. Li, H. P. Hratchian, 
 A. F. Izmaylov, J. Bloino, G. Zheng, J. L. Sonnenberg, M. Hada, 
 M. Ehara, K. Toyota, R. Fukuda, J. Hasegawa, M. Ishida, T. Nakajima, 
 Y. Honda, O. Kitao, H. Nakai, T. Vreven, J. A. Montgomery, Jr., 
 J. E. Peralta, F. Ogliaro, M. Bearpark, J. J. Heyd, E. Brothers, 
 K. N. Kudin, V. N. Staroverov, T. Keith, R. Kobayashi, J. Normand, 
 K. Raghavachari, A. Rendell, J. C. Burant, S. S. Iyengar, J. Tomasi, 
 M. Cossi, N. Rega, J. M. Millam, M. Klene, J. E. Knox, J. B. Cross, 
 V. Bakken, C. Adamo, J. Jaramillo, R. Gomperts, R. E. Stratmann, 
 O. Yazyev, A. J. Austin, R. Cammi, C. Pomelli, J. W. Ochterski, 
 R. L. Martin, K. Morokuma, V. G. Zakrzewski, G. A. Voth, 
 P. Salvador, J. J. Dannenberg, S. Dapprich, A. D. Daniels, 
 O. Farkas, J. B. Foresman, J. V. Ortiz, J. Cioslowski, 
 and D. J. Fox, Gaussian, Inc., Wallingford CT, 2013.
 
 ******************************************
 Gaussian 09:  AM64L-G09RevD.01 24-Apr-2013
                 9-Jul-2021 
 ******************************************
 %Mem=32000MB
 %NProcShared=16
 Will use up to   16 processors via shared memory.
 %Chk=m1_00_108-88-30_C7H8_wB97XD
 ----------------------------------------------------------------------
 #P wB97XD/def2tzvp opt=(tight) freq integral(Grid=ultrafine) # SCF(Max
 Cycle=380) 5d 7f GFPrint
 ----------------------------------------------------------------------
 1/7=10,14=-1,18=20,19=15,26=4,38=1/1,3;
 2/9=110,12=2,17=6,18=5,40=1/2;
 3/5=44,7=101,8=11,11=2,16=1,24=100,25=1,30=1,71=1,74=-58,75=-5/1,2,3;
 4//1;
 5/5=2,7=380,38=5/2;
 6/7=2,8=2,9=2,10=2,28=1/1;
 7//1,2,3,16;
 1/7=10,14=-1,18=20,19=15,26=4/3(2);
 2/9=110/2;
 99//99;
 2/9=110/2;
 3/5=44,7=101,8=11,11=2,16=1,25=1,30=1,71=1,74=-58,75=-5/1,2,3;
 4/5=5,16=3,69=1/1;
 5/5=2,7=380,38=5/2;
 7//1,2,3,16;
 1/7=10,14=-1,18=20,19=15,26=4/3(-5);
 2/9=110/2;
 6/7=2,8=2,9=2,10=2,19=2,28=1/1;
 99/9=1/99;
 Leave Link    1 at Fri Jul  9 19:19:35 2021, MaxMem=  4194304000 cpu:         0.9
 (Enter /home/minenky/programs//g09/l101.exe)
 ---------------------------------------
 The PBEPBE optimization and frequencies
 ---------------------------------------
 Symbolic Z-matrix:
 Charge =  0 Multiplicity = 1
 C                     2.41448   0.        0.0094 
 C                     0.90991  0.        -0.01177 
 C                     0.19389   1.19704  -0.00906 
 C                     0.19389  -1.19704  -0.00906 
 C                    -1.19549   1.20005   0.00206 
 C                    -1.19549  -1.20005   0.00206 
 C                    -1.89635   0.        0.00869 
 H                     2.79056  -0.00003   1.03646 
 H                     2.81878  -0.88357  -0.48595 
 H                     2.81877   0.8836   -0.4859 
 H                     0.73193   2.13776  -0.01812 
 H                     0.73193  -2.13776  -0.01812 
 H                    -1.73115   2.14097   0.00169 
 H                    -1.73115  -2.14097   0.00169 
 H                    -2.97862   0.        0.01441 
 
 NAtoms=     15 NQM=       15 NQMF=       0 NMMI=      0 NMMIF=      0
                NMic=       0 NMicF=      0.
                    Isotopes and Nuclear Properties:
 (Nuclear quadrupole moments (NQMom) in fm**2, nuclear magnetic moments (NMagM)
  in nuclear magnetons)

  Atom         1           2           3           4           5           6           7           8           9          10
 IAtWgt=          12          12          12          12          12          12          12           1           1           1
 AtmWgt=  12.0000000  12.0000000  12.0000000  12.0000000  12.0000000  12.0000000  12.0000000   1.0078250   1.0078250   1.0078250
 NucSpn=           0           0           0           0           0           0           0           1           1           1
 AtZEff=   0.0000000   0.0000000   0.0000000   0.0000000   0.0000000   0.0000000   0.0000000   0.0000000   0.0000000   0.0000000
 NQMom=    0.0000000   0.0000000   0.0000000   0.0000000   0.0000000   0.0000000   0.0000000   0.0000000   0.0000000   0.0000000
 NMagM=    0.0000000   0.0000000   0.0000000   0.0000000   0.0000000   0.0000000   0.0000000   2.7928460   2.7928460   2.7928460
 AtZNuc=   6.0000000   6.0000000   6.0000000   6.0000000   6.0000000   6.0000000   6.0000000   1.0000000   1.0000000   1.0000000

  Atom        11          12          13          14          15
 IAtWgt=           1           1           1           1           1
 AtmWgt=   1.0078250   1.0078250   1.0078250   1.0078250   1.0078250
 NucSpn=           1           1           1           1           1
 AtZEff=   0.0000000   0.0000000   0.0000000   0.0000000   0.0000000
 NQMom=    0.0000000   0.0000000   0.0000000   0.0000000   0.0000000
 NMagM=    2.7928460   2.7928460   2.7928460   2.7928460   2.7928460
 AtZNuc=   1.0000000   1.0000000   1.0000000   1.0000000   1.0000000
 Leave Link  101 at Fri Jul  9 19:19:36 2021, MaxMem=  4194304000 cpu:         1.6
 (Enter /home/minenky/programs//g09/l103.exe)

 GradGradGradGradGradGradGradGradGradGradGradGradGradGradGradGradGradGrad
 Berny optimization.
 Initialization pass.
                           ----------------------------
                           !    Initial Parameters    !
                           ! (Angstroms and Degrees)  !
 --------------------------                            --------------------------
 ! Name  Definition              Value          Derivative Info.                !
 --------------------------------------------------------------------------------
 ! R1    R(1,2)                  1.5047         estimate D2E/DX2                !
 ! R2    R(1,8)                  1.0938         estimate D2E/DX2                !
 ! R3    R(1,9)                  1.0907         estimate D2E/DX2                !
 ! R4    R(1,10)                 1.0907         estimate D2E/DX2                !
 ! R5    R(2,3)                  1.3948         estimate D2E/DX2                !
 ! R6    R(2,4)                  1.3948         estimate D2E/DX2                !
 ! R7    R(3,5)                  1.3894         estimate D2E/DX2                !
 ! R8    R(3,11)                 1.0838         estimate D2E/DX2                !
 ! R9    R(4,6)                  1.3894         estimate D2E/DX2                !
 ! R10   R(4,12)                 1.0838         estimate D2E/DX2                !
 ! R11   R(5,7)                  1.3897         estimate D2E/DX2                !
 ! R12   R(5,13)                 1.0827         estimate D2E/DX2                !
 ! R13   R(6,7)                  1.3897         estimate D2E/DX2                !
 ! R14   R(6,14)                 1.0827         estimate D2E/DX2                !
 ! R15   R(7,15)                 1.0823         estimate D2E/DX2                !
 ! A1    A(2,1,8)              110.9174         estimate D2E/DX2                !
 ! A2    A(2,1,9)              111.3626         estimate D2E/DX2                !
 ! A3    A(2,1,10)             111.3626         estimate D2E/DX2                !
 ! A4    A(8,1,9)              107.3972         estimate D2E/DX2                !
 ! A5    A(8,1,10)             107.3973         estimate D2E/DX2                !
 ! A6    A(9,1,10)             108.2202         estimate D2E/DX2                !
 ! A7    A(1,2,3)              120.8804         estimate D2E/DX2                !
 ! A8    A(1,2,4)              120.8806         estimate D2E/DX2                !
 ! A9    A(3,2,4)              118.228          estimate D2E/DX2                !
 ! A10   A(2,3,5)              121.0096         estimate D2E/DX2                !
 ! A11   A(2,3,11)             119.345          estimate D2E/DX2                !
 ! A12   A(5,3,11)             119.6452         estimate D2E/DX2                !
 ! A13   A(2,4,6)              121.0097         estimate D2E/DX2                !
 ! A14   A(2,4,12)             119.3451         estimate D2E/DX2                !
 ! A15   A(6,4,12)             119.6451         estimate D2E/DX2                !
 ! A16   A(3,5,7)              120.1631         estimate D2E/DX2                !
 ! A17   A(3,5,13)             119.7754         estimate D2E/DX2                !
 ! A18   A(7,5,13)             120.0611         estimate D2E/DX2                !
 ! A19   A(4,6,7)              120.1631         estimate D2E/DX2                !
 ! A20   A(4,6,14)             119.7753         estimate D2E/DX2                !
 ! A21   A(7,6,14)             120.0612         estimate D2E/DX2                !
 ! A22   A(5,7,6)              119.4258         estimate D2E/DX2                !
 ! A23   A(5,7,15)             120.2868         estimate D2E/DX2                !
 ! A24   A(6,7,15)             120.2869         estimate D2E/DX2                !
 ! D1    D(8,1,2,3)             89.3897         estimate D2E/DX2                !
 ! D2    D(8,1,2,4)            -89.3861         estimate D2E/DX2                !
 ! D3    D(9,1,2,3)           -151.0589         estimate D2E/DX2                !
 ! D4    D(9,1,2,4)             30.1652         estimate D2E/DX2                !
 ! D5    D(10,1,2,3)           -30.1617         estimate D2E/DX2                !
 ! D6    D(10,1,2,4)           151.0624         estimate D2E/DX2                !
 ! D7    D(1,2,3,5)           -178.5263         estimate D2E/DX2                !
 ! D8    D(1,2,3,11)             1.618          estimate D2E/DX2                !
 ! D9    D(4,2,3,5)              0.2813         estimate D2E/DX2                !
 ! D10   D(4,2,3,11)          -179.5744         estimate D2E/DX2                !
 ! D11   D(1,2,4,6)            178.5263         estimate D2E/DX2                !
 ! D12   D(1,2,4,12)            -1.618          estimate D2E/DX2                !
 ! D13   D(3,2,4,6)             -0.2813         estimate D2E/DX2                !
 ! D14   D(3,2,4,12)           179.5744         estimate D2E/DX2                !
 ! D15   D(2,3,5,7)             -0.0956         estimate D2E/DX2                !
 ! D16   D(2,3,5,13)          -179.8608         estimate D2E/DX2                !
 ! D17   D(11,3,5,7)           179.7597         estimate D2E/DX2                !
 ! D18   D(11,3,5,13)           -0.0055         estimate D2E/DX2                !
 ! D19   D(2,4,6,7)              0.0956         estimate D2E/DX2                !
 ! D20   D(2,4,6,14)           179.8608         estimate D2E/DX2                !
 ! D21   D(12,4,6,7)          -179.7597         estimate D2E/DX2                !
 ! D22   D(12,4,6,14)            0.0055         estimate D2E/DX2                !
 ! D23   D(3,5,7,6)             -0.0968         estimate D2E/DX2                !
 ! D24   D(3,5,7,15)          -179.8197         estimate D2E/DX2                !
 ! D25   D(13,5,7,6)           179.6678         estimate D2E/DX2                !
 ! D26   D(13,5,7,15)           -0.0552         estimate D2E/DX2                !
 ! D27   D(4,6,7,5)              0.0968         estimate D2E/DX2                !
 ! D28   D(4,6,7,15)           179.8197         estimate D2E/DX2                !
 ! D29   D(14,6,7,5)          -179.6678         estimate D2E/DX2                !
 ! D30   D(14,6,7,15)            0.0552         estimate D2E/DX2                !
 --------------------------------------------------------------------------------
 Trust Radius=3.00D-01 FncErr=1.00D-07 GrdErr=1.00D-06
 Number of steps in this run=     79 maximum allowed number of steps=    100.
 GradGradGradGradGradGradGradGradGradGradGradGradGradGradGradGradGradGrad

 Leave Link  103 at Fri Jul  9 19:19:36 2021, MaxMem=  4194304000 cpu:         0.0
 (Enter /home/minenky/programs//g09/l202.exe)
                          Input orientation:                          
 ---------------------------------------------------------------------
 Center     Atomic      Atomic             Coordinates (Angstroms)
 Number     Number       Type             X           Y           Z
 ---------------------------------------------------------------------
      1          6           0        2.414476    0.000000    0.009395
      2          6           0        0.909905   -0.000001   -0.011774
      3          6           0        0.193892    1.197044   -0.009059
      4          6           0        0.193892   -1.197043   -0.009059
      5          6           0       -1.195492    1.200051    0.002057
      6          6           0       -1.195493   -1.200050    0.002057
      7          6           0       -1.896352    0.000000    0.008688
      8          1           0        2.790561   -0.000032    1.036465
      9          1           0        2.818776   -0.883570   -0.485949
     10          1           0        2.818774    0.883602   -0.485895
     11          1           0        0.731927    2.137763   -0.018116
     12          1           0        0.731925   -2.137764   -0.018116
     13          1           0       -1.731152    2.140971    0.001691
     14          1           0       -1.731152   -2.140971    0.001691
     15          1           0       -2.978623    0.000001    0.014408
 ---------------------------------------------------------------------
                    Distance matrix (angstroms):
                    1          2          3          4          5
     1  C    0.000000
     2  C    1.504720   0.000000
     3  C    2.522746   1.394847   0.000000
     4  C    2.522746   1.394845   2.394087   0.000000
     5  C    3.804214   2.423430   1.389432   2.770663   0.000000
     6  C    3.804215   2.423429   2.770663   1.389433   2.400101
     7  C    4.310828   2.806332   2.408807   2.408806   1.389738
     8  H    1.093761   2.153061   3.044471   3.044445   4.289384
     9  H    1.090651   2.156229   3.383252   2.686207   4.549063
    10  H    1.090652   2.156230   2.686191   3.383262   4.056177
    11  H    2.720617   2.145169   1.083751   3.377942   2.143515
    12  H    2.720619   2.145168   3.377944   1.083752   3.854394
    13  H    4.665838   3.399871   2.144040   3.853342   1.082711
    14  H    4.665838   3.399870   3.853343   2.144041   3.383690
    15  H    5.393101   3.888616   3.390916   3.390917   2.149379
                    6          7          8          9         10
     6  C    0.000000
     7  C    1.389736   0.000000
     8  H    4.289367   4.798279   0.000000
     9  H    4.056188   4.822633   1.760449   0.000000
    10  H    4.549070   4.822632   1.760450   1.767172   0.000000
    11  H    3.854394   3.388008   3.149648   3.701656   2.479247
    12  H    2.143515   3.388007   3.149607   2.479278   3.701676
    13  H    3.383689   2.147346   5.108869   5.485206   4.745581
    14  H    1.082711   2.147346   5.108842   4.745597   5.485217
    15  H    2.149378   1.082286   5.859017   5.885651   5.885649
                   11         12         13         14         15
    11  H    0.000000
    12  H    4.275527   0.000000
    13  H    2.463161   4.937075   0.000000
    14  H    4.937076   2.463159   4.281942   0.000000
    15  H    4.282437   4.282437   2.477922   2.477924   0.000000
 Stoichiometry    C7H8
 Framework group  C1[X(C7H8)]
 Deg. of freedom    39
 Full point group                 C1      NOp   1
 Largest Abelian subgroup         C1      NOp   1
 Largest concise Abelian subgroup C1      NOp   1
                         Standard orientation:                         
 ---------------------------------------------------------------------
 Center     Atomic      Atomic             Coordinates (Angstroms)
 Number     Number       Type             X           Y           Z
 ---------------------------------------------------------------------
      1          6           0        2.414476    0.000000    0.009395
      2          6           0        0.909905   -0.000001   -0.011774
      3          6           0        0.193892    1.197044   -0.009059
      4          6           0        0.193892   -1.197043   -0.009059
      5          6           0       -1.195492    1.200051    0.002057
      6          6           0       -1.195493   -1.200050    0.002057
      7          6           0       -1.896352    0.000000    0.008688
      8          1           0        2.790561   -0.000032    1.036465
      9          1           0        2.818776   -0.883570   -0.485949
     10          1           0        2.818774    0.883602   -0.485895
     11          1           0        0.731927    2.137763   -0.018116
     12          1           0        0.731925   -2.137764   -0.018116
     13          1           0       -1.731152    2.140971    0.001691
     14          1           0       -1.731152   -2.140971    0.001691
     15          1           0       -2.978623    0.000001    0.014408
 ---------------------------------------------------------------------
 Rotational constants (GHZ):      5.5816802      2.5318093      1.7607552
 Leave Link  202 at Fri Jul  9 19:19:37 2021, MaxMem=  4194304000 cpu:         1.3
 (Enter /home/minenky/programs//g09/l301.exe)
 Standard basis: def2TZVP (5D, 7F)
 ======================================================================================================
                                       Pseudopotential Parameters
 ======================================================================================================
  Center     Atomic      Valence      Angular      Power
  Number     Number     Electrons     Momentum     of R      Exponent        Coefficient   SO-Coeffient
 ======================================================================================================
    1          6
                                   No pseudopotential on this center.
    2          6
                                   No pseudopotential on this center.
    3          6
                                   No pseudopotential on this center.
    4          6
                                   No pseudopotential on this center.
    5          6
                                   No pseudopotential on this center.
    6          6
                                   No pseudopotential on this center.
    7          6
                                   No pseudopotential on this center.
    8          1
                                   No pseudopotential on this center.
    9          1
                                   No pseudopotential on this center.
   10          1
                                   No pseudopotential on this center.
   11          1
                                   No pseudopotential on this center.
   12          1
                                   No pseudopotential on this center.
   13          1
                                   No pseudopotential on this center.
   14          1
                                   No pseudopotential on this center.
   15          1
                                   No pseudopotential on this center.
 ======================================================================================================
 Ernie: Thresh=  0.10000D-02 Tol=  0.10000D-05 Strict=F.
 AO basis set (Overlap normalization):
 Atom C1       Shell     1 S   6     bf    1 -     1          4.562698243247          0.000000096906          0.017753636868
      0.1357534968D+05  0.6064550360D-03
      0.2035233368D+04  0.4697908888D-02
      0.4632256236D+03  0.2433247765D-01
      0.1312001960D+03  0.9739996831D-01
      0.4285301589D+02  0.3019558425D+00
      0.1558418577D+02  0.6623360914D+00
 Atom C1       Shell     2 S   2     bf    2 -     2          4.562698243247          0.000000096906          0.017753636868
      0.6206713851D+01  0.6559530854D+00
      0.2576489653D+01  0.3758563329D+00
 Atom C1       Shell     3 S   1     bf    3 -     3          4.562698243247          0.000000096906          0.017753636868
      0.5769633942D+00  0.1000000000D+01
 Atom C1       Shell     4 S   1     bf    4 -     4          4.562698243247          0.000000096906          0.017753636868
      0.2297283136D+00  0.1000000000D+01
 Atom C1       Shell     5 S   1     bf    5 -     5          4.562698243247          0.000000096906          0.017753636868
      0.9516444003D-01  0.1000000000D+01
 Atom C1       Shell     6 P   4     bf    6 -     8          4.562698243247          0.000000096906          0.017753636868
      0.3469723224D+02  0.1132722000D-01
      0.7958262283D+01  0.7616965920D-01
      0.2378082688D+01  0.3019225220D+00
      0.8143320818D+00  0.7278502735D+00
 Atom C1       Shell     7 P   1     bf    9 -    11          4.562698243247          0.000000096906          0.017753636868
      0.2888754725D+00  0.1000000000D+01
 Atom C1       Shell     8 P   1     bf   12 -    14          4.562698243247          0.000000096906          0.017753636868
      0.1005682367D+00  0.1000000000D+01
 Atom C1       Shell     9 D   1     bf   15 -    19          4.562698243247          0.000000096906          0.017753636868
      0.1097000000D+01  0.1000000000D+01
 Atom C1       Shell    10 D   1     bf   20 -    24          4.562698243247          0.000000096906          0.017753636868
      0.3180000000D+00  0.1000000000D+01
 Atom C1       Shell    11 F   1     bf   25 -    31          4.562698243247          0.000000096906          0.017753636868
      0.7610000000D+00  0.1000000000D+01
 Atom C2       Shell    12 S   6     bf   32 -    32          1.719471105765         -0.000001994516         -0.022249975639
      0.1357534968D+05  0.6064550360D-03
      0.2035233368D+04  0.4697908888D-02
      0.4632256236D+03  0.2433247765D-01
      0.1312001960D+03  0.9739996831D-01
      0.4285301589D+02  0.3019558425D+00
      0.1558418577D+02  0.6623360914D+00
 Atom C2       Shell    13 S   2     bf   33 -    33          1.719471105765         -0.000001994516         -0.022249975639
      0.6206713851D+01  0.6559530854D+00
      0.2576489653D+01  0.3758563329D+00
 Atom C2       Shell    14 S   1     bf   34 -    34          1.719471105765         -0.000001994516         -0.022249975639
      0.5769633942D+00  0.1000000000D+01
 Atom C2       Shell    15 S   1     bf   35 -    35          1.719471105765         -0.000001994516         -0.022249975639
      0.2297283136D+00  0.1000000000D+01
 Atom C2       Shell    16 S   1     bf   36 -    36          1.719471105765         -0.000001994516         -0.022249975639
      0.9516444003D-01  0.1000000000D+01
 Atom C2       Shell    17 P   4     bf   37 -    39          1.719471105765         -0.000001994516         -0.022249975639
      0.3469723224D+02  0.1132722000D-01
      0.7958262283D+01  0.7616965920D-01
      0.2378082688D+01  0.3019225220D+00
      0.8143320818D+00  0.7278502735D+00
 Atom C2       Shell    18 P   1     bf   40 -    42          1.719471105765         -0.000001994516         -0.022249975639
      0.2888754725D+00  0.1000000000D+01
 Atom C2       Shell    19 P   1     bf   43 -    45          1.719471105765         -0.000001994516         -0.022249975639
      0.1005682367D+00  0.1000000000D+01
 Atom C2       Shell    20 D   1     bf   46 -    50          1.719471105765         -0.000001994516         -0.022249975639
      0.1097000000D+01  0.1000000000D+01
 Atom C2       Shell    21 D   1     bf   51 -    55          1.719471105765         -0.000001994516         -0.022249975639
      0.3180000000D+00  0.1000000000D+01
 Atom C2       Shell    22 F   1     bf   56 -    62          1.719471105765         -0.000001994516         -0.022249975639
      0.7610000000D+00  0.1000000000D+01
 Atom C3       Shell    23 S   6     bf   63 -    63          0.366402467709          2.262085128239         -0.017119369189
      0.1357534968D+05  0.6064550360D-03
      0.2035233368D+04  0.4697908888D-02
      0.4632256236D+03  0.2433247765D-01
      0.1312001960D+03  0.9739996831D-01
      0.4285301589D+02  0.3019558425D+00
      0.1558418577D+02  0.6623360914D+00
 Atom C3       Shell    24 S   2     bf   64 -    64          0.366402467709          2.262085128239         -0.017119369189
      0.6206713851D+01  0.6559530854D+00
      0.2576489653D+01  0.3758563329D+00
 Atom C3       Shell    25 S   1     bf   65 -    65          0.366402467709          2.262085128239         -0.017119369189
      0.5769633942D+00  0.1000000000D+01
 Atom C3       Shell    26 S   1     bf   66 -    66          0.366402467709          2.262085128239         -0.017119369189
      0.2297283136D+00  0.1000000000D+01
 Atom C3       Shell    27 S   1     bf   67 -    67          0.366402467709          2.262085128239         -0.017119369189
      0.9516444003D-01  0.1000000000D+01
 Atom C3       Shell    28 P   4     bf   68 -    70          0.366402467709          2.262085128239         -0.017119369189
      0.3469723224D+02  0.1132722000D-01
      0.7958262283D+01  0.7616965920D-01
      0.2378082688D+01  0.3019225220D+00
      0.8143320818D+00  0.7278502735D+00
 Atom C3       Shell    29 P   1     bf   71 -    73          0.366402467709          2.262085128239         -0.017119369189
      0.2888754725D+00  0.1000000000D+01
 Atom C3       Shell    30 P   1     bf   74 -    76          0.366402467709          2.262085128239         -0.017119369189
      0.1005682367D+00  0.1000000000D+01
 Atom C3       Shell    31 D   1     bf   77 -    81          0.366402467709          2.262085128239         -0.017119369189
      0.1097000000D+01  0.1000000000D+01
 Atom C3       Shell    32 D   1     bf   82 -    86          0.366402467709          2.262085128239         -0.017119369189
      0.3180000000D+00  0.1000000000D+01
 Atom C3       Shell    33 F   1     bf   87 -    93          0.366402467709          2.262085128239         -0.017119369189
      0.7610000000D+00  0.1000000000D+01
 Atom C4       Shell    34 S   6     bf   94 -    94          0.366402788649         -2.262083640063         -0.017119369189
      0.1357534968D+05  0.6064550360D-03
      0.2035233368D+04  0.4697908888D-02
      0.4632256236D+03  0.2433247765D-01
      0.1312001960D+03  0.9739996831D-01
      0.4285301589D+02  0.3019558425D+00
      0.1558418577D+02  0.6623360914D+00
 Atom C4       Shell    35 S   2     bf   95 -    95          0.366402788649         -2.262083640063         -0.017119369189
      0.6206713851D+01  0.6559530854D+00
      0.2576489653D+01  0.3758563329D+00
 Atom C4       Shell    36 S   1     bf   96 -    96          0.366402788649         -2.262083640063         -0.017119369189
      0.5769633942D+00  0.1000000000D+01
 Atom C4       Shell    37 S   1     bf   97 -    97          0.366402788649         -2.262083640063         -0.017119369189
      0.2297283136D+00  0.1000000000D+01
 Atom C4       Shell    38 S   1     bf   98 -    98          0.366402788649         -2.262083640063         -0.017119369189
      0.9516444003D-01  0.1000000000D+01
 Atom C4       Shell    39 P   4     bf   99 -   101          0.366402788649         -2.262083640063         -0.017119369189
      0.3469723224D+02  0.1132722000D-01
      0.7958262283D+01  0.7616965920D-01
      0.2378082688D+01  0.3019225220D+00
      0.8143320818D+00  0.7278502735D+00
 Atom C4       Shell    40 P   1     bf  102 -   104          0.366402788649         -2.262083640063         -0.017119369189
      0.2888754725D+00  0.1000000000D+01
 Atom C4       Shell    41 P   1     bf  105 -   107          0.366402788649         -2.262083640063         -0.017119369189
      0.1005682367D+00  0.1000000000D+01
 Atom C4       Shell    42 D   1     bf  108 -   112          0.366402788649         -2.262083640063         -0.017119369189
      0.1097000000D+01  0.1000000000D+01
 Atom C4       Shell    43 D   1     bf  113 -   117          0.366402788649         -2.262083640063         -0.017119369189
      0.3180000000D+00  0.1000000000D+01
 Atom C4       Shell    44 F   1     bf  118 -   124          0.366402788649         -2.262083640063         -0.017119369189
      0.7610000000D+00  0.1000000000D+01
 Atom C5       Shell    45 S   6     bf  125 -   125         -2.259152786107          2.267767348466          0.003886826505
      0.1357534968D+05  0.6064550360D-03
      0.2035233368D+04  0.4697908888D-02
      0.4632256236D+03  0.2433247765D-01
      0.1312001960D+03  0.9739996831D-01
      0.4285301589D+02  0.3019558425D+00
      0.1558418577D+02  0.6623360914D+00
 Atom C5       Shell    46 S   2     bf  126 -   126         -2.259152786107          2.267767348466          0.003886826505
      0.6206713851D+01  0.6559530854D+00
      0.2576489653D+01  0.3758563329D+00
 Atom C5       Shell    47 S   1     bf  127 -   127         -2.259152786107          2.267767348466          0.003886826505
      0.5769633942D+00  0.1000000000D+01
 Atom C5       Shell    48 S   1     bf  128 -   128         -2.259152786107          2.267767348466          0.003886826505
      0.2297283136D+00  0.1000000000D+01
 Atom C5       Shell    49 S   1     bf  129 -   129         -2.259152786107          2.267767348466          0.003886826505
      0.9516444003D-01  0.1000000000D+01
 Atom C5       Shell    50 P   4     bf  130 -   132         -2.259152786107          2.267767348466          0.003886826505
      0.3469723224D+02  0.1132722000D-01
      0.7958262283D+01  0.7616965920D-01
      0.2378082688D+01  0.3019225220D+00
      0.8143320818D+00  0.7278502735D+00
 Atom C5       Shell    51 P   1     bf  133 -   135         -2.259152786107          2.267767348466          0.003886826505
      0.2888754725D+00  0.1000000000D+01
 Atom C5       Shell    52 P   1     bf  136 -   138         -2.259152786107          2.267767348466          0.003886826505
      0.1005682367D+00  0.1000000000D+01
 Atom C5       Shell    53 D   1     bf  139 -   143         -2.259152786107          2.267767348466          0.003886826505
      0.1097000000D+01  0.1000000000D+01
 Atom C5       Shell    54 D   1     bf  144 -   148         -2.259152786107          2.267767348466          0.003886826505
      0.3180000000D+00  0.1000000000D+01
 Atom C5       Shell    55 F   1     bf  149 -   155         -2.259152786107          2.267767348466          0.003886826505
      0.7610000000D+00  0.1000000000D+01
 Atom C6       Shell    56 S   6     bf  156 -   156         -2.259154354087         -2.267766232799          0.003886826505
      0.1357534968D+05  0.6064550360D-03
      0.2035233368D+04  0.4697908888D-02
      0.4632256236D+03  0.2433247765D-01
      0.1312001960D+03  0.9739996831D-01
      0.4285301589D+02  0.3019558425D+00
      0.1558418577D+02  0.6623360914D+00
 Atom C6       Shell    57 S   2     bf  157 -   157         -2.259154354087         -2.267766232799          0.003886826505
      0.6206713851D+01  0.6559530854D+00
      0.2576489653D+01  0.3758563329D+00
 Atom C6       Shell    58 S   1     bf  158 -   158         -2.259154354087         -2.267766232799          0.003886826505
      0.5769633942D+00  0.1000000000D+01
 Atom C6       Shell    59 S   1     bf  159 -   159         -2.259154354087         -2.267766232799          0.003886826505
      0.2297283136D+00  0.1000000000D+01
 Atom C6       Shell    60 S   1     bf  160 -   160         -2.259154354087         -2.267766232799          0.003886826505
      0.9516444003D-01  0.1000000000D+01
 Atom C6       Shell    61 P   4     bf  161 -   163         -2.259154354087         -2.267766232799          0.003886826505
      0.3469723224D+02  0.1132722000D-01
      0.7958262283D+01  0.7616965920D-01
      0.2378082688D+01  0.3019225220D+00
      0.8143320818D+00  0.7278502735D+00
 Atom C6       Shell    62 P   1     bf  164 -   166         -2.259154354087         -2.267766232799          0.003886826505
      0.2888754725D+00  0.1000000000D+01
 Atom C6       Shell    63 P   1     bf  167 -   169         -2.259154354087         -2.267766232799          0.003886826505
      0.1005682367D+00  0.1000000000D+01
 Atom C6       Shell    64 D   1     bf  170 -   174         -2.259154354087         -2.267766232799          0.003886826505
      0.1097000000D+01  0.1000000000D+01
 Atom C6       Shell    65 D   1     bf  175 -   179         -2.259154354087         -2.267766232799          0.003886826505
      0.3180000000D+00  0.1000000000D+01
 Atom C6       Shell    66 F   1     bf  180 -   186         -2.259154354087         -2.267766232799          0.003886826505
      0.7610000000D+00  0.1000000000D+01
 Atom C7       Shell    67 S   6     bf  187 -   187         -3.583586082728         -0.000000480983          0.016417600492
      0.1357534968D+05  0.6064550360D-03
      0.2035233368D+04  0.4697908888D-02
      0.4632256236D+03  0.2433247765D-01
      0.1312001960D+03  0.9739996831D-01
      0.4285301589D+02  0.3019558425D+00
      0.1558418577D+02  0.6623360914D+00
 Atom C7       Shell    68 S   2     bf  188 -   188         -3.583586082728         -0.000000480983          0.016417600492
      0.6206713851D+01  0.6559530854D+00
      0.2576489653D+01  0.3758563329D+00
 Atom C7       Shell    69 S   1     bf  189 -   189         -3.583586082728         -0.000000480983          0.016417600492
      0.5769633942D+00  0.1000000000D+01
 Atom C7       Shell    70 S   1     bf  190 -   190         -3.583586082728         -0.000000480983          0.016417600492
      0.2297283136D+00  0.1000000000D+01
 Atom C7       Shell    71 S   1     bf  191 -   191         -3.583586082728         -0.000000480983          0.016417600492
      0.9516444003D-01  0.1000000000D+01
 Atom C7       Shell    72 P   4     bf  192 -   194         -3.583586082728         -0.000000480983          0.016417600492
      0.3469723224D+02  0.1132722000D-01
      0.7958262283D+01  0.7616965920D-01
      0.2378082688D+01  0.3019225220D+00
      0.8143320818D+00  0.7278502735D+00
 Atom C7       Shell    73 P   1     bf  195 -   197         -3.583586082728         -0.000000480983          0.016417600492
      0.2888754725D+00  0.1000000000D+01
 Atom C7       Shell    74 P   1     bf  198 -   200         -3.583586082728         -0.000000480983          0.016417600492
      0.1005682367D+00  0.1000000000D+01
 Atom C7       Shell    75 D   1     bf  201 -   205         -3.583586082728         -0.000000480983          0.016417600492
      0.1097000000D+01  0.1000000000D+01
 Atom C7       Shell    76 D   1     bf  206 -   210         -3.583586082728         -0.000000480983          0.016417600492
      0.3180000000D+00  0.1000000000D+01
 Atom C7       Shell    77 F   1     bf  211 -   217         -3.583586082728         -0.000000480983          0.016417600492
      0.7610000000D+00  0.1000000000D+01
 Atom H8       Shell    78 S   3     bf  218 -   218          5.273395895938         -0.000060323914          1.958634656171
      0.3406134100D+02  0.2543930721D-01
      0.5123574600D+01  0.1900859489D+00
      0.1164662600D+01  0.8524411301D+00
 Atom H8       Shell    79 S   1     bf  219 -   219          5.273395895938         -0.000060323914          1.958634656171
      0.3272304100D+00  0.1000000000D+01
 Atom H8       Shell    80 S   1     bf  220 -   220          5.273395895938         -0.000060323914          1.958634656171
      0.1030724100D+00  0.1000000000D+01
 Atom H8       Shell    81 P   1     bf  221 -   223          5.273395895938         -0.000060323914          1.958634656171
      0.8000000000D+00  0.1000000000D+01
 Atom H9       Shell    82 S   3     bf  224 -   224          5.326714637220         -1.669705168129         -0.918310864700
      0.3406134100D+02  0.2543930721D-01
      0.5123574600D+01  0.1900859489D+00
      0.1164662600D+01  0.8524411301D+00
 Atom H9       Shell    83 S   1     bf  225 -   225          5.326714637220         -1.669705168129         -0.918310864700
      0.3272304100D+00  0.1000000000D+01
 Atom H9       Shell    84 S   1     bf  226 -   226          5.326714637220         -1.669705168129         -0.918310864700
      0.1030724100D+00  0.1000000000D+01
 Atom H9       Shell    85 P   1     bf  227 -   229          5.326714637220         -1.669705168129         -0.918310864700
      0.8000000000D+00  0.1000000000D+01
 Atom H10      Shell    86 S   3     bf  230 -   230          5.326710620869          1.669765941575         -0.918208819489
      0.3406134100D+02  0.2543930721D-01
      0.5123574600D+01  0.1900859489D+00
      0.1164662600D+01  0.8524411301D+00
 Atom H10      Shell    87 S   1     bf  231 -   231          5.326710620869          1.669765941575         -0.918208819489
      0.3272304100D+00  0.1000000000D+01
 Atom H10      Shell    88 S   1     bf  232 -   232          5.326710620869          1.669765941575         -0.918208819489
      0.1030724100D+00  0.1000000000D+01
 Atom H10      Shell    89 P   1     bf  233 -   235          5.326710620869          1.669765941575         -0.918208819489
      0.8000000000D+00  0.1000000000D+01
 Atom H11      Shell    90 S   3     bf  236 -   236          1.383141141508          4.039786478368         -0.034234618774
      0.3406134100D+02  0.2543930721D-01
      0.5123574600D+01  0.1900859489D+00
      0.1164662600D+01  0.8524411301D+00
 Atom H11      Shell    91 S   1     bf  237 -   237          1.383141141508          4.039786478368         -0.034234618774
      0.3272304100D+00  0.1000000000D+01
 Atom H11      Shell    92 S   1     bf  238 -   238          1.383141141508          4.039786478368         -0.034234618774
      0.1030724100D+00  0.1000000000D+01
 Atom H11      Shell    93 P   1     bf  239 -   241          1.383141141508          4.039786478368         -0.034234618774
      0.8000000000D+00  0.1000000000D+01
 Atom H12      Shell    94 S   3     bf  242 -   242          1.383137935213         -4.039788625391         -0.034234618774
      0.3406134100D+02  0.2543930721D-01
      0.5123574600D+01  0.1900859489D+00
      0.1164662600D+01  0.8524411301D+00
 Atom H12      Shell    95 S   1     bf  243 -   243          1.383137935213         -4.039788625391         -0.034234618774
      0.3272304100D+00  0.1000000000D+01
 Atom H12      Shell    96 S   1     bf  244 -   244          1.383137935213         -4.039788625391         -0.034234618774
      0.1030724100D+00  0.1000000000D+01
 Atom H12      Shell    97 P   1     bf  245 -   247          1.383137935213         -4.039788625391         -0.034234618774
      0.8000000000D+00  0.1000000000D+01
 Atom H13      Shell    98 S   3     bf  248 -   248         -3.271403612584          4.045848389613          0.003195186740
      0.3406134100D+02  0.2543930721D-01
      0.5123574600D+01  0.1900859489D+00
      0.1164662600D+01  0.8524411301D+00
 Atom H13      Shell    99 S   1     bf  249 -   249         -3.271403612584          4.045848389613          0.003195186740
      0.3272304100D+00  0.1000000000D+01
 Atom H13      Shell   100 S   1     bf  250 -   250         -3.271403612584          4.045848389613          0.003195186740
      0.1030724100D+00  0.1000000000D+01
 Atom H13      Shell   101 P   1     bf  251 -   253         -3.271403612584          4.045848389613          0.003195186740
      0.8000000000D+00  0.1000000000D+01
 Atom H14      Shell   102 S   3     bf  254 -   254         -3.271403038567         -4.045849307288          0.003195186740
      0.3406134100D+02  0.2543930721D-01
      0.5123574600D+01  0.1900859489D+00
      0.1164662600D+01  0.8524411301D+00
 Atom H14      Shell   103 S   1     bf  255 -   255         -3.271403038567         -4.045849307288          0.003195186740
      0.3272304100D+00  0.1000000000D+01
 Atom H14      Shell   104 S   1     bf  256 -   256         -3.271403038567         -4.045849307288          0.003195186740
      0.1030724100D+00  0.1000000000D+01
 Atom H14      Shell   105 P   1     bf  257 -   259         -3.271403038567         -4.045849307288          0.003195186740
      0.8000000000D+00  0.1000000000D+01
 Atom H15      Shell   106 S   3     bf  260 -   260         -5.628781874292          0.000001263658          0.027226833972
      0.3406134100D+02  0.2543930721D-01
      0.5123574600D+01  0.1900859489D+00
      0.1164662600D+01  0.8524411301D+00
 Atom H15      Shell   107 S   1     bf  261 -   261         -5.628781874292          0.000001263658          0.027226833972
      0.3272304100D+00  0.1000000000D+01
 Atom H15      Shell   108 S   1     bf  262 -   262         -5.628781874292          0.000001263658          0.027226833972
      0.1030724100D+00  0.1000000000D+01
 Atom H15      Shell   109 P   1     bf  263 -   265         -5.628781874292          0.000001263658          0.027226833972
      0.8000000000D+00  0.1000000000D+01
 There are   300 symmetry adapted cartesian basis functions of A   symmetry.
 There are   265 symmetry adapted basis functions of A   symmetry.
   265 basis functions,   421 primitive gaussians,   300 cartesian basis functions
    25 alpha electrons       25 beta electrons
       nuclear repulsion energy       269.8459461526 Hartrees.
 IExCor= 4639 DFT=T Ex+Corr=wB97XD ExCW=0 ScaHFX=  1.000000
 ScaDFX=  1.000000  1.000000  1.000000  1.000000 ScalE2=  1.000000  1.000000
 IRadAn=      5 IRanWt=     -1 IRanGd=            0 ICorTp=0 IEmpDi=121
  HFx wShort=  0.000000 wLong=  0.200000 cFull=  0.222036 cShort=  0.000000 cLong=  0.777964
  DFx wShort=  0.000000 wLong=  0.200000 cFull=  0.000000 cShort=  0.000000 cLong=  1.000000
 NAtoms=   15 NActive=   15 NUniq=   15 SFac= 1.00D+00 NAtFMM=   60 NAOKFM=F Big=F
 Integral buffers will be    131072 words long.
 Raffenetti 2 integral format.
 Two-electron integral symmetry is turned on.
 R6Disp:  Grimme-D2 Dispersion energy=       -0.0064311814 Hartrees.
 Nuclear repulsion after empirical dispersion term =      269.8395149713 Hartrees.
 Leave Link  301 at Fri Jul  9 19:19:38 2021, MaxMem=  4194304000 cpu:         0.3
 (Enter /home/minenky/programs//g09/l302.exe)
 NPDir=0 NMtPBC=     1 NCelOv=     1 NCel=       1 NClECP=     1 NCelD=      1
         NCelK=      1 NCelE2=     1 NClLst=     1 CellRange=     0.0.
 One-electron integrals computed using PRISM.
   1 Symmetry operations used in ECPInt.
 ECPInt:  NShTT=    5995 NPrTT=   17944 LenC2=    5920 LenP2D=   14584.
 LDataN:  DoStor=T MaxTD1= 6 Len=  172
 NBasis=   265 RedAO= T EigKep=  8.49D-06  NBF=   265
 NBsUse=   265 1.00D-06 EigRej= -1.00D+00 NBFU=   265
 Precomputing XC quadrature grid using
 IXCGrd= 4 IRadAn=           5 IRanWt=          -1 IRanGd=           0 AccXCQ= 0.00D+00.
 Generated NRdTot=       0 NPtTot=           0 NUsed=           0 NTot=          32
 NSgBfM=   299   299   299   299   299 MxSgAt=    15 MxSgA2=    15.
 Leave Link  302 at Fri Jul  9 19:19:52 2021, MaxMem=  4194304000 cpu:        42.3
 (Enter /home/minenky/programs//g09/l303.exe)
 DipDrv:  MaxL=1.
 Leave Link  303 at Fri Jul  9 19:19:54 2021, MaxMem=  4194304000 cpu:         5.0
 (Enter /home/minenky/programs//g09/l401.exe)
 ExpMin= 9.52D-02 ExpMax= 1.36D+04 ExpMxC= 4.63D+02 IAcc=3 IRadAn=         5 AccDes= 0.00D+00
 Harris functional with IExCor= 4639 and IRadAn=       5 diagonalized for initial guess.
 HarFok:  IExCor= 4639 AccDes= 0.00D+00 IRadAn=         5 IDoV= 1 UseB2=F ITyADJ=14
 ICtDFT=  3500011 ScaDFX=  1.000000  1.000000  1.000000  1.000000
 FoFCou: FMM=F IPFlag=           0 FMFlag=      100000 FMFlg1=           0
         NFxFlg=           0 DoJE=T BraDBF=F KetDBF=T FulRan=T
         wScrn=  0.000000 ICntrl=     500 IOpCl=  0 I1Cent=   200000004 NGrid=           0
         NMat0=    1 NMatS0=      1 NMatT0=    0 NMatD0=    1 NMtDS0=    0 NMtDT0=    0
 Petite list used in FoFCou.
 Harris En= -258.815952421740    
 JPrj=0 DoOrth=F DoCkMO=F.
 Leave Link  401 at Fri Jul  9 19:20:02 2021, MaxMem=  4194304000 cpu:        42.9
 (Enter /home/minenky/programs//g09/l502.exe)
 Closed shell SCF:
 Using DIIS extrapolation, IDIIS=  1040.
 Integral symmetry usage will be decided dynamically.
 Keep R1 ints in memory in canonical form, NReq=1256305400.
 IVT=      424830 IEndB=      424830 NGot=  4194304000 MDV=  2951633901
 LenX=  2951633901 LenY=  2951543460
 Requested convergence on RMS density matrix=1.00D-08 within 380 cycles.
 Requested convergence on MAX density matrix=1.00D-06.
 Requested convergence on             energy=1.00D-06.
 No special actions if energy rises.
 FoFCou: FMM=F IPFlag=           0 FMFlag=           0 FMFlg1=           0
         NFxFlg=           0 DoJE=F BraDBF=F KetDBF=F FulRan=T
         wScrn=  0.000000 ICntrl=     600 IOpCl=  0 I1Cent=           0 NGrid=           0
         NMat0=    1 NMatS0=  35245 NMatT0=    0 NMatD0=    1 NMtDS0=    0 NMtDT0=    0
 Symmetry not used in FoFCou.
 Integral accuracy reduced to 1.0D-05 until final iterations.

 Cycle   1  Pass 0  IDiag  1:
 E= -271.492299082666    
 DIIS: error= 5.47D-02 at cycle   1 NSaved=   1.
 NSaved= 1 IEnMin= 1 EnMin= -271.492299082666     IErMin= 1 ErrMin= 5.47D-02
 ErrMax= 5.47D-02  0.00D+00 EMaxC= 1.00D-01 BMatC= 5.78D-01 BMatP= 5.78D-01
 IDIUse=3 WtCom= 4.53D-01 WtEn= 5.47D-01
 Coeff-Com:  0.100D+01
 Coeff-En:   0.100D+01
 Coeff:      0.100D+01
 Gap=     0.377 Goal=   None    Shift=    0.000
 GapD=    0.377 DampG=1.000 DampE=0.500 DampFc=0.5000 IDamp=-1.
 Damping current iteration by 5.00D-01
 RMSDP=1.33D-03 MaxDP=5.81D-02              OVMax= 4.81D-02

 Cycle   2  Pass 0  IDiag  1:
 E= -271.530189048329     Delta-E=       -0.037889965663 Rises=F Damp=T
 DIIS: error= 2.69D-02 at cycle   2 NSaved=   2.
 NSaved= 2 IEnMin= 2 EnMin= -271.530189048329     IErMin= 2 ErrMin= 2.69D-02
 ErrMax= 2.69D-02  0.00D+00 EMaxC= 1.00D-01 BMatC= 1.30D-01 BMatP= 5.78D-01
 IDIUse=3 WtCom= 7.31D-01 WtEn= 2.69D-01
 Coeff-Com: -0.859D+00 0.186D+01
 Coeff-En:   0.000D+00 0.100D+01
 Coeff:     -0.628D+00 0.163D+01
 Gap=     0.379 Goal=   None    Shift=    0.000
 RMSDP=7.58D-04 MaxDP=3.50D-02 DE=-3.79D-02 OVMax= 2.36D-02

 Cycle   3  Pass 0  IDiag  1:
 E= -271.564132982609     Delta-E=       -0.033943934280 Rises=F Damp=F
 DIIS: error= 3.71D-03 at cycle   3 NSaved=   3.
 NSaved= 3 IEnMin= 3 EnMin= -271.564132982609     IErMin= 3 ErrMin= 3.71D-03
 ErrMax= 3.71D-03  0.00D+00 EMaxC= 1.00D-01 BMatC= 2.16D-03 BMatP= 1.30D-01
 IDIUse=3 WtCom= 9.63D-01 WtEn= 3.71D-02
 Coeff-Com: -0.289D+00 0.624D+00 0.666D+00
 Coeff-En:   0.000D+00 0.000D+00 0.100D+01
 Coeff:     -0.279D+00 0.601D+00 0.678D+00
 Gap=     0.378 Goal=   None    Shift=    0.000
 RMSDP=1.17D-04 MaxDP=3.45D-03 DE=-3.39D-02 OVMax= 1.01D-02

 Cycle   4  Pass 0  IDiag  1:
 E= -271.566030431662     Delta-E=       -0.001897449053 Rises=F Damp=F
 DIIS: error= 5.06D-04 at cycle   4 NSaved=   4.
 NSaved= 4 IEnMin= 4 EnMin= -271.566030431662     IErMin= 4 ErrMin= 5.06D-04
 ErrMax= 5.06D-04  0.00D+00 EMaxC= 1.00D-01 BMatC= 3.21D-05 BMatP= 2.16D-03
 IDIUse=3 WtCom= 9.95D-01 WtEn= 5.06D-03
 Coeff-Com: -0.543D-01 0.117D+00 0.168D+00 0.769D+00
 Coeff-En:   0.000D+00 0.000D+00 0.000D+00 0.100D+01
 Coeff:     -0.540D-01 0.117D+00 0.167D+00 0.770D+00
 Gap=     0.378 Goal=   None    Shift=    0.000
 RMSDP=3.52D-05 MaxDP=7.07D-04 DE=-1.90D-03 OVMax= 2.68D-03

 Cycle   5  Pass 0  IDiag  1:
 E= -271.566053980018     Delta-E=       -0.000023548355 Rises=F Damp=F
 DIIS: error= 3.48D-04 at cycle   5 NSaved=   5.
 NSaved= 5 IEnMin= 5 EnMin= -271.566053980018     IErMin= 5 ErrMin= 3.48D-04
 ErrMax= 3.48D-04  0.00D+00 EMaxC= 1.00D-01 BMatC= 1.11D-05 BMatP= 3.21D-05
 IDIUse=3 WtCom= 9.97D-01 WtEn= 3.48D-03
 Coeff-Com:  0.274D-01-0.591D-01-0.414D-01 0.390D+00 0.683D+00
 Coeff-En:   0.000D+00 0.000D+00 0.000D+00 0.201D+00 0.799D+00
 Coeff:      0.273D-01-0.589D-01-0.412D-01 0.390D+00 0.683D+00
 Gap=     0.378 Goal=   None    Shift=    0.000
 RMSDP=1.80D-05 MaxDP=2.95D-04 DE=-2.35D-05 OVMax= 1.46D-03

 Cycle   6  Pass 0  IDiag  1:
 E= -271.566066227897     Delta-E=       -0.000012247880 Rises=F Damp=F
 DIIS: error= 3.16D-05 at cycle   6 NSaved=   6.
 NSaved= 6 IEnMin= 6 EnMin= -271.566066227897     IErMin= 6 ErrMin= 3.16D-05
 ErrMax= 3.16D-05  0.00D+00 EMaxC= 1.00D-01 BMatC= 1.26D-07 BMatP= 1.11D-05
 IDIUse=1 WtCom= 1.00D+00 WtEn= 0.00D+00
 Coeff-Com:  0.799D-02-0.172D-01-0.142D-01 0.602D-01 0.152D+00 0.811D+00
 Coeff:      0.799D-02-0.172D-01-0.142D-01 0.602D-01 0.152D+00 0.811D+00
 Gap=     0.378 Goal=   None    Shift=    0.000
 RMSDP=3.45D-06 MaxDP=7.11D-05 DE=-1.22D-05 OVMax= 1.27D-04

 Initial convergence to 1.0D-05 achieved.  Increase integral accuracy.
 Cycle   7  Pass 1  IDiag  1:
 E= -271.566126695535     Delta-E=       -0.000060467637 Rises=F Damp=F
 DIIS: error= 4.36D-05 at cycle   1 NSaved=   1.
 NSaved= 1 IEnMin= 1 EnMin= -271.566126695535     IErMin= 1 ErrMin= 4.36D-05
 ErrMax= 4.36D-05  0.00D+00 EMaxC= 1.00D-01 BMatC= 4.56D-07 BMatP= 4.56D-07
 IDIUse=1 WtCom= 1.00D+00 WtEn= 0.00D+00
 Coeff-Com:  0.100D+01
 Coeff:      0.100D+01
 Gap=     0.378 Goal=   None    Shift=    0.000
 RMSDP=3.45D-06 MaxDP=7.11D-05 DE=-6.05D-05 OVMax= 1.04D-04

 Cycle   8  Pass 1  IDiag  1:
 E= -271.566126977652     Delta-E=       -0.000000282117 Rises=F Damp=F
 DIIS: error= 1.08D-05 at cycle   2 NSaved=   2.
 NSaved= 2 IEnMin= 2 EnMin= -271.566126977652     IErMin= 2 ErrMin= 1.08D-05
 ErrMax= 1.08D-05  0.00D+00 EMaxC= 1.00D-01 BMatC= 2.14D-08 BMatP= 4.56D-07
 IDIUse=1 WtCom= 1.00D+00 WtEn= 0.00D+00
 Coeff-Com:  0.188D-01 0.981D+00
 Coeff:      0.188D-01 0.981D+00
 Gap=     0.378 Goal=   None    Shift=    0.000
 RMSDP=7.93D-07 MaxDP=2.06D-05 DE=-2.82D-07 OVMax= 6.19D-05

 Cycle   9  Pass 1  IDiag  1:
 E= -271.566126987314     Delta-E=       -0.000000009662 Rises=F Damp=F
 DIIS: error= 1.00D-05 at cycle   3 NSaved=   3.
 NSaved= 3 IEnMin= 3 EnMin= -271.566126987314     IErMin= 3 ErrMin= 1.00D-05
 ErrMax= 1.00D-05  0.00D+00 EMaxC= 1.00D-01 BMatC= 1.37D-08 BMatP= 2.14D-08
 IDIUse=1 WtCom= 1.00D+00 WtEn= 0.00D+00
 Coeff-Com: -0.390D-01 0.452D+00 0.587D+00
 Coeff:     -0.390D-01 0.452D+00 0.587D+00
 Gap=     0.378 Goal=   None    Shift=    0.000
 RMSDP=3.07D-07 MaxDP=9.27D-06 DE=-9.66D-09 OVMax= 2.81D-05

 Cycle  10  Pass 1  IDiag  1:
 E= -271.566127000361     Delta-E=       -0.000000013047 Rises=F Damp=F
 DIIS: error= 1.65D-06 at cycle   4 NSaved=   4.
 NSaved= 4 IEnMin= 4 EnMin= -271.566127000361     IErMin= 4 ErrMin= 1.65D-06
 ErrMax= 1.65D-06  0.00D+00 EMaxC= 1.00D-01 BMatC= 1.77D-10 BMatP= 1.37D-08
 IDIUse=1 WtCom= 1.00D+00 WtEn= 0.00D+00
 Coeff-Com: -0.806D-02 0.588D-01 0.115D+00 0.835D+00
 Coeff:     -0.806D-02 0.588D-01 0.115D+00 0.835D+00
 Gap=     0.378 Goal=   None    Shift=    0.000
 RMSDP=8.79D-08 MaxDP=1.74D-06 DE=-1.30D-08 OVMax= 1.03D-05

 Cycle  11  Pass 1  IDiag  1:
 E= -271.566127000581     Delta-E=       -0.000000000220 Rises=F Damp=F
 DIIS: error= 1.36D-06 at cycle   5 NSaved=   5.
 NSaved= 5 IEnMin= 5 EnMin= -271.566127000581     IErMin= 5 ErrMin= 1.36D-06
 ErrMax= 1.36D-06  0.00D+00 EMaxC= 1.00D-01 BMatC= 7.32D-11 BMatP= 1.77D-10
 IDIUse=1 WtCom= 1.00D+00 WtEn= 0.00D+00
 Coeff-Com:  0.388D-02-0.612D-01-0.615D-01 0.405D+00 0.714D+00
 Coeff:      0.388D-02-0.612D-01-0.615D-01 0.405D+00 0.714D+00
 Gap=     0.378 Goal=   None    Shift=    0.000
 RMSDP=4.45D-08 MaxDP=1.11D-06 DE=-2.20D-10 OVMax= 7.03D-06

 Cycle  12  Pass 1  IDiag  1:
 E= -271.566127000688     Delta-E=       -0.000000000107 Rises=F Damp=F
 DIIS: error= 2.19D-07 at cycle   6 NSaved=   6.
 NSaved= 6 IEnMin= 6 EnMin= -271.566127000688     IErMin= 6 ErrMin= 2.19D-07
 ErrMax= 2.19D-07  0.00D+00 EMaxC= 1.00D-01 BMatC= 2.93D-12 BMatP= 7.32D-11
 IDIUse=1 WtCom= 1.00D+00 WtEn= 0.00D+00
 Coeff-Com:  0.117D-02-0.120D-01-0.183D-01-0.430D-01 0.714D-01 0.100D+01
 Coeff:      0.117D-02-0.120D-01-0.183D-01-0.430D-01 0.714D-01 0.100D+01
 Gap=     0.378 Goal=   None    Shift=    0.000
 RMSDP=1.82D-08 MaxDP=3.74D-07 DE=-1.07D-10 OVMax= 1.76D-06

 Cycle  13  Pass 1  IDiag  1:
 E= -271.566127000699     Delta-E=       -0.000000000011 Rises=F Damp=F
 DIIS: error= 8.70D-08 at cycle   7 NSaved=   7.
 NSaved= 7 IEnMin= 7 EnMin= -271.566127000699     IErMin= 7 ErrMin= 8.70D-08
 ErrMax= 8.70D-08  0.00D+00 EMaxC= 1.00D-01 BMatC= 4.27D-13 BMatP= 2.93D-12
 IDIUse=1 WtCom= 1.00D+00 WtEn= 0.00D+00
 Coeff-Com: -0.161D-03 0.435D-02 0.259D-02-0.544D-01-0.549D-01 0.258D+00
 Coeff-Com:  0.845D+00
 Coeff:     -0.161D-03 0.435D-02 0.259D-02-0.544D-01-0.549D-01 0.258D+00
 Coeff:      0.845D+00
 Gap=     0.378 Goal=   None    Shift=    0.000
 RMSDP=5.09D-09 MaxDP=1.78D-07 DE=-1.09D-11 OVMax= 7.86D-07

 SCF Done:  E(RwB97XD) =  -271.566127001     A.U. after   13 cycles
            NFock= 13  Conv=0.51D-08     -V/T= 2.0053
 KE= 2.701308270544D+02 PE=-1.169112774767D+03 EE= 3.575763057404D+02
 Leave Link  502 at Fri Jul  9 19:21:02 2021, MaxMem=  4194304000 cpu:       558.5
 (Enter /home/minenky/programs//g09/l601.exe)
 Copying SCF densities to generalized density rwf, IOpCl= 0 IROHF=0.

 **********************************************************************

            Population analysis using the SCF density.

 **********************************************************************

 Orbital symmetries:
       Occupied  (A) (A) (A) (A) (A) (A) (A) (A) (A) (A) (A) (A)
                 (A) (A) (A) (A) (A) (A) (A) (A) (A) (A) (A) (A)
                 (A)
       Virtual   (A) (A) (A) (A) (A) (A) (A) (A) (A) (A) (A) (A)
                 (A) (A) (A) (A) (A) (A) (A) (A) (A) (A) (A) (A)
                 (A) (A) (A) (A) (A) (A) (A) (A) (A) (A) (A) (A)
                 (A) (A) (A) (A) (A) (A) (A) (A) (A) (A) (A) (A)
                 (A) (A) (A) (A) (A) (A) (A) (A) (A) (A) (A) (A)
                 (A) (A) (A) (A) (A) (A) (A) (A) (A) (A) (A) (A)
                 (A) (A) (A) (A) (A) (A) (A) (A) (A) (A) (A) (A)
                 (A) (A) (A) (A) (A) (A) (A) (A) (A) (A) (A) (A)
                 (A) (A) (A) (A) (A) (A) (A) (A) (A) (A) (A) (A)
                 (A) (A) (A) (A) (A) (A) (A) (A) (A) (A) (A) (A)
                 (A) (A) (A) (A) (A) (A) (A) (A) (A) (A) (A) (A)
                 (A) (A) (A) (A) (A) (A) (A) (A) (A) (A) (A) (A)
                 (A) (A) (A) (A) (A) (A) (A) (A) (A) (A) (A) (A)
                 (A) (A) (A) (A) (A) (A) (A) (A) (A) (A) (A) (A)
                 (A) (A) (A) (A) (A) (A) (A) (A) (A) (A) (A) (A)
                 (A) (A) (A) (A) (A) (A) (A) (A) (A) (A) (A) (A)
                 (A) (A) (A) (A) (A) (A) (A) (A) (A) (A) (A) (A)
                 (A) (A) (A) (A) (A) (A) (A) (A) (A) (A) (A) (A)
                 (A) (A) (A) (A) (A) (A) (A) (A) (A) (A) (A) (A)
                 (A) (A) (A) (A) (A) (A) (A) (A) (A) (A) (A) (A)
 The electronic state is 1-A.
 Alpha  occ. eigenvalues --  -10.29541 -10.28510 -10.28505 -10.28266 -10.28229
 Alpha  occ. eigenvalues --  -10.28226 -10.27931  -0.95922  -0.87210  -0.84339
 Alpha  occ. eigenvalues --   -0.78253  -0.69859  -0.67673  -0.60232  -0.54828
 Alpha  occ. eigenvalues --   -0.54096  -0.50883  -0.50395  -0.49251  -0.46906
 Alpha  occ. eigenvalues --   -0.44524  -0.42196  -0.41857  -0.32962  -0.31923
 Alpha virt. eigenvalues --    0.05851   0.06128   0.12180   0.13786   0.15428
 Alpha virt. eigenvalues --    0.17198   0.18523   0.18599   0.20368   0.20960
 Alpha virt. eigenvalues --    0.22185   0.23836   0.24732   0.26854   0.26894
 Alpha virt. eigenvalues --    0.29839   0.30736   0.31110   0.31987   0.33268
 Alpha virt. eigenvalues --    0.33958   0.35592   0.35754   0.38944   0.39326
 Alpha virt. eigenvalues --    0.39900   0.42805   0.43657   0.44086   0.44585
 Alpha virt. eigenvalues --    0.44967   0.48265   0.49338   0.49471   0.50325
 Alpha virt. eigenvalues --    0.51339   0.52241   0.53271   0.53474   0.56123
 Alpha virt. eigenvalues --    0.57494   0.58321   0.58800   0.59972   0.60162
 Alpha virt. eigenvalues --    0.64234   0.65443   0.67862   0.72885   0.73797
 Alpha virt. eigenvalues --    0.75500   0.76681   0.79081   0.79459   0.83132
 Alpha virt. eigenvalues --    0.83935   0.87005   0.89055   0.90315   0.91154
 Alpha virt. eigenvalues --    0.94530   0.94907   0.98068   1.00436   1.01796
 Alpha virt. eigenvalues --    1.04534   1.07939   1.08749   1.11027   1.12167
 Alpha virt. eigenvalues --    1.15378   1.19043   1.20021   1.20842   1.28162
 Alpha virt. eigenvalues --    1.28383   1.31174   1.31349   1.32554   1.35099
 Alpha virt. eigenvalues --    1.35158   1.37913   1.39238   1.39866   1.47622
 Alpha virt. eigenvalues --    1.50915   1.51546   1.54569   1.55038   1.58486
 Alpha virt. eigenvalues --    1.60720   1.61274   1.62260   1.65236   1.65807
 Alpha virt. eigenvalues --    1.68288   1.69846   1.71061   1.72212   1.75529
 Alpha virt. eigenvalues --    1.77652   1.78777   1.78843   1.81351   1.81766
 Alpha virt. eigenvalues --    1.83562   1.94473   1.96457   1.99411   2.01721
 Alpha virt. eigenvalues --    2.04598   2.08074   2.08754   2.13277   2.15385
 Alpha virt. eigenvalues --    2.16268   2.17595   2.22483   2.24889   2.26616
 Alpha virt. eigenvalues --    2.27664   2.29779   2.32517   2.33838   2.39335
 Alpha virt. eigenvalues --    2.45141   2.45801   2.46555   2.53804   2.56755
 Alpha virt. eigenvalues --    2.59536   2.59957   2.61125   2.63675   2.63959
 Alpha virt. eigenvalues --    2.69065   2.70437   2.72743   2.73500   2.75671
 Alpha virt. eigenvalues --    2.76024   2.77169   2.78642   2.78896   2.83701
 Alpha virt. eigenvalues --    2.85864   2.86904   2.87105   2.88096   2.90580
 Alpha virt. eigenvalues --    2.92178   2.93969   2.94035   2.97643   2.99601
 Alpha virt. eigenvalues --    3.03186   3.07030   3.08090   3.11119   3.11357
 Alpha virt. eigenvalues --    3.12113   3.17679   3.18715   3.22005   3.22648
 Alpha virt. eigenvalues --    3.24219   3.24858   3.26624   3.27104   3.28043
 Alpha virt. eigenvalues --    3.29930   3.30083   3.34048   3.37518   3.39412
 Alpha virt. eigenvalues --    3.39978   3.41833   3.43585   3.44714   3.47687
 Alpha virt. eigenvalues --    3.48593   3.49333   3.51575   3.53606   3.56899
 Alpha virt. eigenvalues --    3.58575   3.59227   3.62931   3.66538   3.67582
 Alpha virt. eigenvalues --    3.73231   3.76574   3.77514   3.80375   3.85906
 Alpha virt. eigenvalues --    3.86809   3.91506   3.95652   3.98254   3.98433
 Alpha virt. eigenvalues --    4.02972   4.11114   4.15064   4.19194   4.19660
 Alpha virt. eigenvalues --    4.22345   4.25636   4.27409   4.29916   4.30687
 Alpha virt. eigenvalues --    4.33947   4.37315   4.40213   4.40315   4.42152
 Alpha virt. eigenvalues --    4.51492   4.56416   4.61664   4.67506   4.76737
 Alpha virt. eigenvalues --    4.77561   4.79415   4.81395   4.97024   4.97796
 Alpha virt. eigenvalues --    5.05011   5.14398   5.31050   5.32719   5.45720
 Alpha virt. eigenvalues --    5.48958   5.54639   5.73300  22.03571  22.51383
 Alpha virt. eigenvalues --   22.71454  22.72875  22.83150  22.92280  23.32934
          Condensed to atoms (all electrons):
               1          2          3          4          5          6
     1  C    4.948546   0.292905  -0.070239  -0.070239   0.011038   0.011038
     2  C    0.292905   4.948762   0.453512   0.453510  -0.002588  -0.002587
     3  C   -0.070239   0.453512   5.023536  -0.002103   0.454092  -0.062237
     4  C   -0.070239   0.453510  -0.002103   5.023539  -0.062237   0.454090
     5  C    0.011038  -0.002588   0.454092  -0.062237   4.890744  -0.003102
     6  C    0.011038  -0.002587  -0.062237   0.454090  -0.003102   4.890744
     7  C   -0.003204  -0.071558   0.016351   0.016351   0.456287   0.456288
     8  H    0.390503  -0.019957  -0.004439  -0.004439  -0.000506  -0.000506
     9  H    0.429908  -0.055969   0.006153  -0.004753  -0.000433   0.001328
    10  H    0.429909  -0.055971  -0.004753   0.006153   0.001328  -0.000433
    11  H   -0.006808  -0.061876   0.439656   0.012731  -0.047056  -0.003388
    12  H   -0.006808  -0.061877   0.012731   0.439657  -0.003388  -0.047057
    13  H   -0.000155   0.011790  -0.057625  -0.003494   0.444111   0.010449
    14  H   -0.000155   0.011790  -0.003494  -0.057625   0.010449   0.444111
    15  H    0.000074  -0.002184   0.009488   0.009488  -0.052867  -0.052867
               7          8          9         10         11         12
     1  C   -0.003204   0.390503   0.429908   0.429909  -0.006808  -0.006808
     2  C   -0.071558  -0.019957  -0.055969  -0.055971  -0.061876  -0.061877
     3  C    0.016351  -0.004439   0.006153  -0.004753   0.439656   0.012731
     4  C    0.016351  -0.004439  -0.004753   0.006153   0.012731   0.439657
     5  C    0.456287  -0.000506  -0.000433   0.001328  -0.047056  -0.003388
     6  C    0.456288  -0.000506   0.001328  -0.000433  -0.003388  -0.047057
     7  C    4.925936   0.000232   0.000089   0.000089   0.009810   0.009810
     8  H    0.000232   0.561044  -0.026363  -0.026362   0.000333   0.000333
     9  H    0.000089  -0.026363   0.549660  -0.023822   0.000002   0.001385
    10  H    0.000089  -0.026362  -0.023822   0.549659   0.001385   0.000002
    11  H    0.009810   0.000333   0.000002   0.001385   0.549895  -0.000105
    12  H    0.009810   0.000333   0.001385   0.000002  -0.000105   0.549895
    13  H   -0.055280   0.000009   0.000009  -0.000033  -0.007175   0.000045
    14  H   -0.055280   0.000009  -0.000033   0.000009   0.000045  -0.007175
    15  H    0.439950  -0.000001  -0.000002  -0.000002  -0.000157  -0.000157
              13         14         15
     1  C   -0.000155  -0.000155   0.000074
     2  C    0.011790   0.011790  -0.002184
     3  C   -0.057625  -0.003494   0.009488
     4  C   -0.003494  -0.057625   0.009488
     5  C    0.444111   0.010449  -0.052867
     6  C    0.010449   0.444111  -0.052867
     7  C   -0.055280  -0.055280   0.439950
     8  H    0.000009   0.000009  -0.000001
     9  H    0.000009  -0.000033  -0.000002
    10  H   -0.000033   0.000009  -0.000002
    11  H   -0.007175   0.000045  -0.000157
    12  H    0.000045  -0.007175  -0.000157
    13  H    0.547348  -0.000140  -0.006899
    14  H   -0.000140   0.547348  -0.006899
    15  H   -0.006899  -0.006899   0.545448
 Mulliken charges:
               1
     1  C   -0.356314
     2  C    0.162298
     3  C   -0.210629
     4  C   -0.210629
     5  C   -0.095872
     6  C   -0.095871
     7  C   -0.145869
     8  H    0.130112
     9  H    0.122843
    10  H    0.122842
    11  H    0.112709
    12  H    0.112709
    13  H    0.117041
    14  H    0.117041
    15  H    0.117587
 Sum of Mulliken charges =   0.00000
 Mulliken charges with hydrogens summed into heavy atoms:
               1
     1  C    0.019484
     2  C    0.162298
     3  C   -0.097920
     4  C   -0.097920
     5  C    0.021169
     6  C    0.021170
     7  C   -0.028282
 Electronic spatial extent (au):  <R**2>=            714.5284
 Charge=              0.0000 electrons
 Dipole moment (field-independent basis, Debye):
    X=              0.3820    Y=              0.0000    Z=              0.0347  Tot=              0.3836
 Quadrupole moment (field-independent basis, Debye-Ang):
   XX=            -38.0078   YY=            -38.3793   ZZ=            -45.8682
   XY=              0.0000   XZ=              0.0268   YZ=              0.0000
 Traceless Quadrupole moment (field-independent basis, Debye-Ang):
   XX=              2.7439   YY=              2.3725   ZZ=             -5.1164
   XY=              0.0000   XZ=              0.0268   YZ=              0.0000
 Octapole moment (field-independent basis, Debye-Ang**2):
  XXX=             -4.4061  YYY=              0.0000  ZZZ=              0.7649  XYY=             -0.9957
  XXY=              0.0000  XXZ=              0.1165  XZZ=              3.9331  YZZ=             -0.0001
  YYZ=             -0.6758  XYZ=              0.0000
 Hexadecapole moment (field-independent basis, Debye-Ang**3):
 XXXX=           -603.3773 YYYY=           -282.9950 ZZZZ=            -59.8065 XXXY=             -0.0001
 XXXZ=             -0.3061 YYYX=              0.0002 YYYZ=              0.0000 ZZZX=              2.0951
 ZZZY=              0.0000 XXYY=           -144.3770 XXZZ=           -118.9475 YYZZ=            -67.5803
 XXYZ=              0.0000 YYXZ=             -1.9177 ZZXY=             -0.0002
 N-N= 2.698395149713D+02 E-N=-1.169112777377D+03  KE= 2.701308270544D+02
 No NMR shielding tensors so no spin-rotation constants.
 Leave Link  601 at Fri Jul  9 19:21:07 2021, MaxMem=  4194304000 cpu:        12.3
 (Enter /home/minenky/programs//g09/l701.exe)
 Compute integral first derivatives.
 ... and contract with generalized density number  0.
 R6Disp: Adding Grimme-D2 dispersion energy 1st derivatives to the gradient.
   1 Symmetry operations used in ECPInt.
 ECPInt:  NShTT=    5995 NPrTT=   17944 LenC2=    5920 LenP2D=   14584.
 LDataN:  DoStor=T MaxTD1= 7 Len=  274
 Leave Link  701 at Fri Jul  9 19:21:12 2021, MaxMem=  4194304000 cpu:        36.3
 (Enter /home/minenky/programs//g09/l702.exe)
 L702 exits ... SP integral derivatives will be done elsewhere.
 Leave Link  702 at Fri Jul  9 19:21:13 2021, MaxMem=  4194304000 cpu:         0.1
 (Enter /home/minenky/programs//g09/l703.exe)
 Compute integral first derivatives, UseDBF=F ICtDFT=           0.
 Integral derivatives from FoFJK, PRISM(SPDF).
 Calling FoFJK, ICntrl=      2127 FMM=F ISym2X=0 I1Cent= 0 IOpClX= 0 NMat=1 NMatS=1 NMatT=0.
 FoFJK:  IHMeth= 1 ICntrl=    2127 DoSepK=T KAlg= 0 I1Cent=   0 FoldK=F
 IRaf=         1 NMat=   1 IRICut=       1 DoRegI=T DoRafI=F ISym2E= 0.
 FoFCou: FMM=F IPFlag=           0 FMFlag=      100000 FMFlg1=         800
         NFxFlg=           0 DoJE=F BraDBF=F KetDBF=F FulRan=T
         wScrn=  0.000000 ICntrl=    2527 IOpCl=  0 I1Cent=           0 NGrid=           0
         NMat0=    1 NMatS0=      1 NMatT0=    0 NMatD0=    1 NMtDS0=    0 NMtDT0=    0
 Symmetry not used in FoFCou.
 Leave Link  703 at Fri Jul  9 19:21:44 2021, MaxMem=  4194304000 cpu:       300.2
 (Enter /home/minenky/programs//g09/l716.exe)
 Dipole        = 1.50306208D-01-1.43182965D-06 1.36481181D-02
 ***** Axes restored to original set *****
 -------------------------------------------------------------------
 Center     Atomic                   Forces (Hartrees/Bohr)
 Number     Number              X              Y              Z
 -------------------------------------------------------------------
      1        6          -0.000068546    0.000000201    0.000322773
      2        6          -0.002572315    0.000001590    0.000143617
      3        6          -0.001444814   -0.002968722    0.000056735
      4        6          -0.001445640    0.002966698    0.000056720
      5        6           0.001532558   -0.002887263   -0.000055890
      6        6           0.001533207    0.002886563   -0.000055899
      7        6           0.003372225    0.000000624   -0.000036881
      8        1          -0.000549548    0.000000060   -0.000289817
      9        1          -0.000152756    0.000073629   -0.000103953
     10        1          -0.000152922   -0.000074064   -0.000103673
     11        1           0.000106859    0.000269160    0.000011018
     12        1           0.000106781   -0.000268703    0.000011021
     13        1          -0.000063876    0.000122334    0.000017136
     14        1          -0.000063830   -0.000122053    0.000017137
     15        1          -0.000137383   -0.000000055    0.000009955
 -------------------------------------------------------------------
 Cartesian Forces:  Max     0.003372225 RMS     0.001173624
 Leave Link  716 at Fri Jul  9 19:21:44 2021, MaxMem=  4194304000 cpu:         0.1
 (Enter /home/minenky/programs//g09/l103.exe)

 GradGradGradGradGradGradGradGradGradGradGradGradGradGradGradGradGradGrad
 Berny optimization.
 FormGI is forming the generalized inverse of G from B-inverse, IUseBI=4.
 Internal  Forces:  Max     0.003234098 RMS     0.000948379
 Search for a local minimum.
 Step number   1 out of a maximum of   79
 All quantities printed in internal units (Hartrees-Bohrs-Radians)
 RMS Force = .94838D-03 SwitMx=.10000D-02 MixMth= 2
 Mixed Optimization -- En-DIIS/RFO-DIIS
 Second derivative matrix not updated -- first step.
 ITU=  0
     Eigenvalues ---    0.00704   0.01564   0.02166   0.02189   0.02196
     Eigenvalues ---    0.02213   0.02225   0.02226   0.02227   0.02227
     Eigenvalues ---    0.07107   0.07209   0.16000   0.16000   0.16000
     Eigenvalues ---    0.16000   0.16000   0.16000   0.16000   0.16000
     Eigenvalues ---    0.22000   0.22000   0.23470   0.24994   0.31887
     Eigenvalues ---    0.34382   0.34737   0.34737   0.35545   0.35545
     Eigenvalues ---    0.35669   0.35669   0.35720   0.42637   0.42717
     Eigenvalues ---    0.46670   0.46960   0.47375   0.47418
 RFO step:  Lambda=-1.35258875D-04 EMin= 7.03512020D-03
 Linear search not attempted -- first point.
 Iteration  1 RMS(Cart)=  0.00375138 RMS(Int)=  0.00000129
 Iteration  2 RMS(Cart)=  0.00000099 RMS(Int)=  0.00000025
 ITry= 1 IFail=0 DXMaxC= 1.34D-02 DCOld= 1.00D+10 DXMaxT= 3.00D-01 DXLimC= 3.00D+00 Rises=F
 Variable       Old X    -DE/DX   Delta X   Delta X   Delta X     New X
                                 (Linear)    (Quad)   (Total)
    R1        2.84351  -0.00093   0.00000  -0.00290  -0.00290   2.84061
    R2        2.06691  -0.00046   0.00000  -0.00134  -0.00134   2.06557
    R3        2.06103  -0.00007   0.00000  -0.00020  -0.00020   2.06083
    R4        2.06103  -0.00007   0.00000  -0.00020  -0.00020   2.06083
    R5        2.63588  -0.00323   0.00000  -0.00695  -0.00695   2.62893
    R6        2.63587  -0.00323   0.00000  -0.00695  -0.00695   2.62893
    R7        2.62565  -0.00309   0.00000  -0.00651  -0.00651   2.61914
    R8        2.04799   0.00029   0.00000   0.00081   0.00081   2.04880
    R9        2.62565  -0.00309   0.00000  -0.00651  -0.00651   2.61914
   R10        2.04799   0.00029   0.00000   0.00080   0.00080   2.04880
   R11        2.62622  -0.00318   0.00000  -0.00672  -0.00672   2.61950
   R12        2.04603   0.00014   0.00000   0.00039   0.00039   2.04641
   R13        2.62622  -0.00318   0.00000  -0.00672  -0.00672   2.61950
   R14        2.04603   0.00014   0.00000   0.00039   0.00039   2.04641
   R15        2.04522   0.00014   0.00000   0.00038   0.00038   2.04561
    A1        1.93587  -0.00052   0.00000  -0.00314  -0.00314   1.93273
    A2        1.94364  -0.00008   0.00000  -0.00054  -0.00054   1.94310
    A3        1.94364  -0.00008   0.00000  -0.00054  -0.00054   1.94310
    A4        1.87443   0.00033   0.00000   0.00211   0.00211   1.87655
    A5        1.87444   0.00033   0.00000   0.00211   0.00211   1.87655
    A6        1.88880   0.00006   0.00000   0.00025   0.00025   1.88905
    A7        2.10976  -0.00005   0.00000  -0.00021  -0.00021   2.10955
    A8        2.10976  -0.00005   0.00000  -0.00021  -0.00021   2.10955
    A9        2.06347   0.00010   0.00000   0.00042   0.00042   2.06389
   A10        2.11202  -0.00006   0.00000  -0.00023  -0.00023   2.11179
   A11        2.08296   0.00007   0.00000   0.00038   0.00038   2.08334
   A12        2.08820  -0.00001   0.00000  -0.00015  -0.00015   2.08806
   A13        2.11202  -0.00006   0.00000  -0.00023  -0.00023   2.11179
   A14        2.08296   0.00007   0.00000   0.00038   0.00038   2.08334
   A15        2.08820  -0.00001   0.00000  -0.00015  -0.00015   2.08805
   A16        2.09724   0.00000   0.00000  -0.00001  -0.00001   2.09723
   A17        2.09047   0.00000   0.00000  -0.00002  -0.00002   2.09045
   A18        2.09546   0.00001   0.00000   0.00004   0.00004   2.09550
   A19        2.09724   0.00000   0.00000  -0.00001  -0.00001   2.09723
   A20        2.09047   0.00000   0.00000  -0.00002  -0.00002   2.09045
   A21        2.09546   0.00001   0.00000   0.00004   0.00004   2.09550
   A22        2.08437   0.00002   0.00000   0.00007   0.00007   2.08445
   A23        2.09940  -0.00001   0.00000  -0.00003  -0.00003   2.09937
   A24        2.09940  -0.00001   0.00000  -0.00004  -0.00004   2.09937
    D1        1.56015   0.00000   0.00000  -0.00014  -0.00014   1.56000
    D2       -1.56008   0.00000   0.00000   0.00014   0.00014  -1.55994
    D3       -2.63648   0.00001   0.00000   0.00007   0.00007  -2.63640
    D4        0.52648   0.00002   0.00000   0.00036   0.00036   0.52684
    D5       -0.52642  -0.00002   0.00000  -0.00036  -0.00036  -0.52678
    D6        2.63654  -0.00001   0.00000  -0.00007  -0.00007   2.63646
    D7       -3.11587  -0.00001   0.00000  -0.00059  -0.00059  -3.11646
    D8        0.02824  -0.00001   0.00000  -0.00043  -0.00043   0.02781
    D9        0.00491  -0.00002   0.00000  -0.00087  -0.00087   0.00404
   D10       -3.13416  -0.00002   0.00000  -0.00072  -0.00072  -3.13488
   D11        3.11587   0.00001   0.00000   0.00059   0.00059   3.11646
   D12       -0.02824   0.00001   0.00000   0.00043   0.00043  -0.02781
   D13       -0.00491   0.00002   0.00000   0.00087   0.00087  -0.00404
   D14        3.13416   0.00002   0.00000   0.00072   0.00072   3.13488
   D15       -0.00167   0.00001   0.00000   0.00044   0.00044  -0.00122
   D16       -3.13916   0.00000   0.00000  -0.00021  -0.00021  -3.13937
   D17        3.13740   0.00001   0.00000   0.00029   0.00029   3.13769
   D18       -0.00010  -0.00001   0.00000  -0.00036  -0.00036  -0.00046
   D19        0.00167  -0.00001   0.00000  -0.00044  -0.00044   0.00122
   D20        3.13916   0.00000   0.00000   0.00021   0.00021   3.13937
   D21       -3.13740  -0.00001   0.00000  -0.00029  -0.00029  -3.13769
   D22        0.00010   0.00001   0.00000   0.00036   0.00036   0.00046
   D23       -0.00169   0.00000   0.00000   0.00001   0.00001  -0.00168
   D24       -3.13845  -0.00001   0.00000  -0.00051  -0.00051  -3.13896
   D25        3.13579   0.00001   0.00000   0.00066   0.00066   3.13646
   D26       -0.00096   0.00000   0.00000   0.00014   0.00014  -0.00082
   D27        0.00169   0.00000   0.00000  -0.00001  -0.00001   0.00168
   D28        3.13845   0.00001   0.00000   0.00051   0.00051   3.13896
   D29       -3.13579  -0.00001   0.00000  -0.00066  -0.00066  -3.13646
   D30        0.00096   0.00000   0.00000  -0.00014  -0.00014   0.00082
         Item               Value     Threshold  Converged?
 Maximum Force            0.003234     0.000015     NO 
 RMS     Force            0.000948     0.000010     NO 
 Maximum Displacement     0.013416     0.000060     NO 
 RMS     Displacement     0.003751     0.000040     NO 
 Predicted change in Energy=-6.765046D-05
 Lowest energy point so far.  Saving SCF results.
 GradGradGradGradGradGradGradGradGradGradGradGradGradGradGradGradGradGrad

 Leave Link  103 at Fri Jul  9 19:22:08 2021, MaxMem=  4194304000 cpu:       112.7
 (Enter /home/minenky/programs//g09/l202.exe)
                          Input orientation:                          
 ---------------------------------------------------------------------
 Center     Atomic      Atomic             Coordinates (Angstroms)
 Number     Number       Type             X           Y           Z
 ---------------------------------------------------------------------
      1          6           0        2.410635    0.000000    0.009034
      2          6           0        0.907595    0.000000   -0.011805
      3          6           0        0.193720    1.194037   -0.008775
      4          6           0        0.193720   -1.194037   -0.008775
      5          6           0       -1.192224    1.197004    0.001905
      6          6           0       -1.192225   -1.197003    0.001905
      7          6           0       -1.891248    0.000000    0.008307
      8          1           0        2.783461   -0.000031    1.036536
      9          1           0        2.814247   -0.883565   -0.486648
     10          1           0        2.814246    0.883595   -0.486595
     11          1           0        0.731810    2.135220   -0.017397
     12          1           0        0.731809   -2.135220   -0.017398
     13          1           0       -1.727980    2.138104    0.002000
     14          1           0       -1.727980   -2.138104    0.001999
     15          1           0       -2.973722    0.000001    0.014190
 ---------------------------------------------------------------------
                    Distance matrix (angstroms):
                    1          2          3          4          5
     1  C    0.000000
     2  C    1.503184   0.000000
     3  C    2.518085   1.391170   0.000000
     4  C    2.518085   1.391169   2.388074   0.000000
     5  C    3.796506   2.417074   1.385988   2.763698   0.000000
     6  C    3.796506   2.417074   2.763698   1.385989   2.394006
     7  C    4.301883   2.798916   2.402729   2.402729   1.386179
     8  H    1.093051   2.148928   3.037307   3.037282   4.278952
     9  H    1.090546   2.154410   3.378159   2.681775   4.540844
    10  H    1.090546   2.154410   2.681761   3.378169   4.048291
    11  H    2.716305   2.142451   1.084177   3.372472   2.140685
    12  H    2.716306   2.142451   3.372472   1.084177   3.847855
    13  H    4.658291   3.393809   2.141100   3.846584   1.082915
    14  H    4.658290   3.393809   3.846584   2.141100   3.377866
    15  H    5.384359   3.881404   3.385105   3.385105   2.146323
                    6          7          8          9         10
     6  C    0.000000
     7  C    1.386179   0.000000
     8  H    4.278934   4.786456   0.000000
     9  H    4.048301   4.813247   1.761156   0.000000
    10  H    4.540851   4.813246   1.761156   1.767161   0.000000
    11  H    3.847856   3.382345   3.143143   3.697270   2.474520
    12  H    2.140685   3.382345   3.143101   2.474547   3.697287
    13  H    3.377865   2.144338   5.098529   5.477325   4.737545
    14  H    1.082915   2.144338   5.098502   4.737559   5.477336
    15  H    2.146322   1.082490   5.847251   5.876402   5.876401
                   11         12         13         14         15
    11  H    0.000000
    12  H    4.270440   0.000000
    13  H    2.459869   4.930745   0.000000
    14  H    4.930745   2.459868   4.276208   0.000000
[...]
 ! A3    A(2,1,10)             111.335          -DE/DX =    0.0                 !
 ! A4    A(8,1,9)              107.5297         -DE/DX =    0.0                 !
 ! A5    A(8,1,10)             107.5297         -DE/DX =    0.0                 !
 ! A6    A(9,1,10)             108.2178         -DE/DX =    0.0                 !
 ! A7    A(1,2,3)              120.874          -DE/DX =    0.0                 !
 ! A8    A(1,2,4)              120.874          -DE/DX =    0.0                 !
 ! A9    A(3,2,4)              118.2404         -DE/DX =    0.0                 !
 ! A10   A(2,3,5)              121.0042         -DE/DX =    0.0                 !
 ! A11   A(2,3,11)             119.3686         -DE/DX =    0.0                 !
 ! A12   A(5,3,11)             119.627          -DE/DX =    0.0                 !
 ! A13   A(2,4,6)              121.0042         -DE/DX =    0.0                 !
 ! A14   A(2,4,12)             119.3686         -DE/DX =    0.0                 !
 ! A15   A(6,4,12)             119.627          -DE/DX =    0.0                 !
 ! A16   A(3,5,7)              120.1606         -DE/DX =    0.0                 !
 ! A17   A(3,5,13)             119.7748         -DE/DX =    0.0                 !
 ! A18   A(7,5,13)             120.0643         -DE/DX =    0.0                 !
 ! A19   A(4,6,7)              120.1606         -DE/DX =    0.0                 !
 ! A20   A(4,6,14)             119.7748         -DE/DX =    0.0                 !
 ! A21   A(7,6,14)             120.0643         -DE/DX =    0.0                 !
 ! A22   A(5,7,6)              119.4295         -DE/DX =    0.0                 !
 ! A23   A(5,7,15)             120.285          -DE/DX =    0.0                 !
 ! A24   A(6,7,15)             120.285          -DE/DX =    0.0                 !
 ! D1    D(8,1,2,3)             89.3706         -DE/DX =    0.0                 !
 ! D2    D(8,1,2,4)            -89.3672         -DE/DX =    0.0                 !
 ! D3    D(9,1,2,3)           -151.0575         -DE/DX =    0.0                 !
 ! D4    D(9,1,2,4)             30.2047         -DE/DX =    0.0                 !
 ! D5    D(10,1,2,3)           -30.2013         -DE/DX =    0.0                 !
 ! D6    D(10,1,2,4)           151.0608         -DE/DX =    0.0                 !
 ! D7    D(1,2,3,5)           -178.5327         -DE/DX =    0.0                 !
 ! D8    D(1,2,3,11)             1.6125         -DE/DX =    0.0                 !
 ! D9    D(4,2,3,5)              0.2377         -DE/DX =    0.0                 !
 ! D10   D(4,2,3,11)          -179.6171         -DE/DX =    0.0                 !
 ! D11   D(1,2,4,6)            178.5327         -DE/DX =    0.0                 !
 ! D12   D(1,2,4,12)            -1.6125         -DE/DX =    0.0                 !
 ! D13   D(3,2,4,6)             -0.2377         -DE/DX =    0.0                 !
 ! D14   D(3,2,4,12)           179.6171         -DE/DX =    0.0                 !
 ! D15   D(2,3,5,7)             -0.076          -DE/DX =    0.0                 !
 ! D16   D(2,3,5,13)          -179.8749         -DE/DX =    0.0                 !
 ! D17   D(11,3,5,7)           179.7785         -DE/DX =    0.0                 !
 ! D18   D(11,3,5,13)           -0.0204         -DE/DX =    0.0                 !
 ! D19   D(2,4,6,7)              0.076          -DE/DX =    0.0                 !
 ! D20   D(2,4,6,14)           179.8749         -DE/DX =    0.0                 !
 ! D21   D(12,4,6,7)          -179.7785         -DE/DX =    0.0                 !
 ! D22   D(12,4,6,14)            0.0204         -DE/DX =    0.0                 !
 ! D23   D(3,5,7,6)             -0.0912         -DE/DX =    0.0                 !
 ! D24   D(3,5,7,15)          -179.8371         -DE/DX =    0.0                 !
 ! D25   D(13,5,7,6)           179.7071         -DE/DX =    0.0                 !
 ! D26   D(13,5,7,15)           -0.0388         -DE/DX =    0.0                 !
 ! D27   D(4,6,7,5)              0.0912         -DE/DX =    0.0                 !
 ! D28   D(4,6,7,15)           179.8371         -DE/DX =    0.0                 !
 ! D29   D(14,6,7,5)          -179.7071         -DE/DX =    0.0                 !
 ! D30   D(14,6,7,15)            0.0388         -DE/DX =    0.0                 !
 --------------------------------------------------------------------------------
 GradGradGradGradGradGradGradGradGradGradGradGradGradGradGradGradGradGrad

 Leave Link  103 at Fri Jul  9 19:41:56 2021, MaxMem=  4194304000 cpu:       135.1
 (Enter /home/minenky/programs//g09/l9999.exe)
 1\1\GINC-CN506-06-R\Freq\RwB97XD\def2TZVP\C7H8\MINENKY\09-Jul-2021\0\\
 #P Geom=AllCheck Guess=TCheck SCRF=Check GenChk RwB97XD/def2TZVP Freq\
 \The PBEPBE optimization and frequencies\\0,1\C,2.4113993286,-0.000000
 2539,0.0091212561\C,0.907835365,0.0000004592,-0.0120645497\C,0.1936683
 671,1.1942530758,-0.0089717666\C,0.1936684588,-1.1942522411,-0.0089722
 013\C,-1.1926132566,1.1972679861,0.0019610868\C,-1.1926131161,-1.19726
 73196,0.0019606741\C,-1.8917966723,0.0000003033,0.0084378025\H,2.78375
 10454,-0.0000310975,1.0367519774\H,2.8151766533,-0.8834526055,-0.48657
 1865\H,2.815176944,0.8834810651,-0.4865196846\H,0.7316735391,2.1355843
 846,-0.0176153711\H,0.7316735894,-2.1355836167,-0.0176161578\H,-1.7283
 905921,2.1384503233,0.00213204\H,-1.7283901748,-2.138449815,0.00213132
 17\H,-2.9743554789,0.0000003519,0.0143194376\\Version=AM64L-G09RevD.01
 \State=1-A\HF=-271.5661887\RMSD=1.309e-09\RMSF=4.172e-06\ZeroPoint=0.1
 287164\Thermal=0.1348907\Dipole=0.1488356,-0.0000015,0.0141768\DipoleD
 eriv=-0.040258,0.0000011,-0.0078504,0.0000082,0.1109396,0.0000002,-0.1
 103875,0.0000003,0.1149426,0.3816007,-0.0000018,0.0247701,-0.0000031,-
 0.078131,0.,0.0754395,0.,-0.0832103,-0.1543648,0.0565258,-0.0054002,0.
 1298543,0.0527893,0.0045192,-0.0068706,-0.0018454,-0.1333164,-0.154364
 6,-0.0565252,-0.0054002,-0.1298544,0.0527905,-0.0045192,-0.0068707,0.0
 018455,-0.1333161,0.0142921,-0.0387555,0.0004834,-0.0524591,0.0814196,
 -0.0039466,-0.00444,-0.0024306,-0.1349445,0.0142905,0.0387552,0.000483
 5,0.0524597,0.0814195,0.0039467,-0.00444,0.0024307,-0.1349448,0.041643
 ,0.,-0.0035152,-0.0000011,-0.1060553,0.,-0.0032319,0.,-0.1494798,-0.05
 72292,0.0000005,-0.0280925,0.0000013,0.0842638,0.0000053,-0.0826506,0.
 0000051,-0.0855916,-0.0063157,0.0077981,0.007725,0.0840302,-0.0612328,
 -0.0745323,0.0629713,-0.0695952,0.0387752,-0.0063124,-0.0077977,0.0077
 238,-0.0840359,-0.0612422,0.0745269,0.0629661,0.0695898,0.038783,0.014
 7583,-0.0887091,0.0028317,-0.076408,-0.0539692,0.0005627,0.0055188,0.0
 049628,0.1272748,0.0147588,0.0887087,0.0028317,0.0764081,-0.0539695,-0
 .0005627,0.0055189,-0.0049629,0.1272744,0.0198558,0.0711566,0.0009117,
 0.077358,-0.059078,0.0001529,0.0022533,0.0019566,0.1339345,0.0198559,-
 0.0711567,0.0009116,-0.077358,-0.0590781,-0.000153,0.0022533,-0.001956
 7,0.1339345,-0.1022104,0.,0.0015861,0.,0.0691337,0.,0.0019701,0.,0.139
 8843\Polar=98.3337171,-0.0000551,85.7417762,0.276667,0.0000076,48.3979
 265\PG=C01 [X(C7H8)]\NImag=0\\0.49534905,0.00000073,0.59002493,-0.0101
 8994,0.00000014,0.54457977,-0.22102680,-0.00000030,0.00162751,0.661170
 41,0.00000023,-0.09041662,-0.00000001,-0.00000028,0.67937885,-0.002351
 69,-0.00000003,-0.07142992,0.00211762,0.00000009,0.18021988,-0.0220688
 5,0.03019051,0.00068133,-0.17996615,0.04502892,0.00027805,0.70662785,0
 .00349113,0.00347000,0.00033881,0.12220297,-0.27662261,-0.00055750,0.0
 3379889,0.72026696,-0.00007615,0.00117148,0.00477345,0.00038174,0.0013
 4627,-0.07034140,-0.00375736,-0.00284497,0.13751452,-0.02206915,-0.030
 19066,0.00068128,-0.17996584,-0.04502896,0.00027804,0.07112495,-0.0265
 4820,-0.00132874,0.70662807,-0.00349127,0.00347017,-0.00033882,-0.1222
 0272,-0.27662264,0.00055743,0.02654831,-0.05953183,-0.00065249,-0.0337
 9878,0.72026678,-0.00007615,-0.00117148,0.00477325,0.00038170,-0.00134
 635,-0.07034153,-0.00132874,0.00065247,0.00929313,-0.00375738,0.002845
 19,0.13751452,0.00212479,0.00177457,0.00104283,-0.02611553,0.08714716,
 0.00032471,-0.34517219,-0.03639425,0.00156466,-0.06002364,-0.03283735,
 0.00103710,0.69645713,0.00133084,-0.00464721,-0.00053667,0.03004040,0.
 04186012,0.00058321,0.03714620,-0.13367178,-0.00052185,-0.03441138,-0.
 02119526,0.00053717,-0.03149604,0.73689758,0.00045630,0.00115734,0.006
 94950,-0.00012306,-0.00076834,0.00623690,0.00191024,0.00035833,-0.0624
 8194,0.00045649,0.00033362,-0.00652938,-0.00385966,-0.00134465,0.13711
 726,0.00212508,-0.00177473,0.00104286,-0.02611576,-0.08714714,0.000324
 67,-0.06002370,0.03283728,0.00103711,-0.34517234,0.03639426,0.00156468
 ,0.07301808,0.02797693,-0.00039710,0.69645707,-0.00133098,-0.00464734,
 0.00053666,-0.03004030,0.04186022,-0.00058319,0.03441140,-0.02119523,-
 0.00053718,-0.03714621,-0.13367181,0.00052183,-0.02797691,-0.06125979,
 0.00024898,0.03149601,0.73689766,0.00045630,-0.00115734,0.00694927,-0.
 00012307,0.00076835,0.00623691,0.00045650,-0.00033363,-0.00652941,0.00
 191023,-0.00035835,-0.06248185,-0.00039711,-0.00024901,0.00711899,-0.0
 0385966,0.00134485,0.13711722,-0.00103410,0.00000010,-0.00097183,0.001
 50987,-0.00000002,0.00046393,-0.02733559,-0.02950209,0.00031666,-0.027
 33563,0.02950207,0.00031667,-0.18721914,-0.12841420,0.00091482,-0.1872
 1911,0.12841422,0.00091487,0.75832118,0.00000014,-0.00049601,0.0000000
 1,-0.00000012,-0.08312410,-0.00000002,-0.08545817,0.03984142,0.0013327
 6,0.08545811,0.03984149,-0.00133275,-0.05545194,-0.29033510,0.00086934
 ,0.05545196,-0.29033506,-0.00086941,-0.00000004,0.67533850,0.00018019,
 0.,-0.00106816,-0.00038208,-0.00000001,-0.00656101,0.00046479,0.000093
 65,0.00721734,0.00046482,-0.00009364,0.00721733,0.00070292,0.00115918,
 -0.06293849,0.00070294,-0.00115926,-0.06293844,-0.00409663,0.00000009,
 0.13375455,-0.07271070,0.00000236,-0.08384024,-0.01432974,0.00000102,-
 0.03124777,-0.00056637,-0.00111533,0.00042743,-0.00056615,0.00111528,0
 .00042748,-0.00029723,-0.00020988,0.00152635,-0.00029719,0.00020992,0.
 00152632,-0.00047431,0.00000001,-0.00021296,0.08220461,0.00000227,-0.0
 4553164,0.00000714,0.00000010,0.00002763,-0.00000006,0.00204450,-0.000
 39257,-0.00043533,-0.00204453,-0.00039255,0.00043530,-0.00120934,-0.00
 064528,-0.00040241,0.00120941,-0.00064528,0.00040235,-0.00000002,0.001
 24526,0.,-0.00000267,0.04481332,-0.08054835,0.00000714,-0.28196863,-0.
 00083632,-0.00000008,0.00334341,0.00022771,-0.00054782,0.00041133,0.00
 022772,0.00054782,0.00041145,-0.00041212,-0.00001299,0.00008929,-0.000
 41216,0.00001298,0.00008933,0.00024748,-0.00000002,-0.00005584,0.09015
 069,-0.00000784,0.30501934,-0.08144251,0.07612236,0.04512180,-0.012458
 08,0.02852538,0.01493830,-0.00568218,-0.00183288,0.00039279,0.00173269
 ,0.00175848,-0.00058554,-0.00012024,0.00137193,-0.00091062,-0.00008730
 ,0.00008779,-0.00039186,-0.00005912,-0.00021032,0.00014433,0.00356621,
 -0.00938967,-0.00419929,0.09105561,0.07869144,-0.22659357,-0.10040134,
 -0.00029275,0.00021030,0.00177577,0.00058444,0.00028821,-0.00046991,-0
 .00200261,0.00056039,0.00044570,-0.00022467,-0.00012579,0.00001654,0.0
 0061659,0.00009826,0.00056455,-0.00016244,0.00038223,0.00004598,-0.000
 90892,0.00086900,0.00086680,-0.08578824,0.24282051,0.04682723,-0.10082
 015,-0.10286320,-0.00256967,0.00264943,0.00010459,-0.00006552,0.000055
 86,0.00057464,-0.00030767,-0.00028607,0.00054218,-0.00084923,-0.000112
 84,0.00010763,0.00031595,-0.00004767,-0.00007534,0.00014223,0.00052496
 ,-0.00000069,0.01141917,-0.02593076,-0.01336307,-0.04834317,0.11083975
 ,0.10741128,-0.08144283,-0.07612501,0.04511715,-0.01245789,-0.02852627
 ,0.01493673,0.00173275,-0.00175857,-0.00058550,-0.00568241,0.00183289,
 0.00039278,-0.00008732,-0.00008777,-0.00039180,-0.00012019,-0.00137202
 ,-0.00091053,-0.00005910,0.00021036,0.00014432,0.00356621,0.00938994,-
 0.00419872,0.00398420,0.00941906,-0.00685162,0.09105593,-0.07869448,-0
 .22660543,0.10039409,0.00029298,0.00021041,-0.00177569,0.00200262,0.00
 056045,-0.00044568,-0.00058435,0.00028825,0.00046992,-0.00061651,0.000
 09829,-0.00056452,0.00022469,-0.00012577,-0.00001651,0.00016241,0.0003
 8220,-0.00004598,0.00090825,0.00086754,-0.00086598,-0.00941867,-0.0191
 8430,0.01289211,0.08579119,0.24283357,0.04682261,0.10081290,-0.1028515
 5,-0.00256959,-0.00264933,0.00010424,-0.00030766,0.00028605,0.00054210
 ,-0.00006550,-0.00005583,0.00057478,0.00031593,0.00004767,-0.00007537,
 -0.00084921,0.00011285,0.00010769,0.00014223,-0.00052494,-0.00000068,0
 .01141925,0.02593152,-0.01336148,-0.00685217,-0.01289370,0.00766928,-0
 .04833817,-0.11083184,0.10739831,0.00124649,0.00108704,-0.00031213,0.0
 1008787,0.01384386,0.00000927,-0.12749351,-0.11895714,0.00151586,-0.00
 085632,0.00349484,0.00008538,-0.01043546,-0.02954233,0.00005658,-0.000
 82458,0.00085679,-0.00001630,-0.00571178,0.00124230,0.00010161,0.00005
 584,0.00003977,-0.00007395,-0.00000368,-0.00017137,-0.00002585,-0.0000
 8594,-0.00009455,0.00032342,0.13328980,-0.00144733,0.00090610,0.000460
 70,-0.01663892,-0.01949957,0.00026710,-0.11852180,-0.26896913,0.002094
 86,0.00395750,-0.00336137,0.00004963,0.00236051,0.00348133,-0.00008256
 ,0.00106916,0.00014916,-0.00000960,0.00039823,0.00195186,0.00006381,0.
 00029064,-0.00009449,-0.00003731,0.00000305,0.00042094,-0.00012973,0.0
 0114584,0.00021406,-0.00033908,0.12851296,0.28513949,-0.00053379,-0.00
 086684,-0.00348937,0.00071922,-0.00007775,0.00382298,0.00136519,0.0023
 8473,-0.03730060,-0.00003483,-0.00017212,0.00676380,0.00000691,0.00023
 937,0.00258340,0.00005413,-0.00003581,-0.00082653,0.00012189,0.0000366
 5,0.00780091,-0.00067878,0.00028170,-0.00028254,0.00028799,-0.00007003
 ,-0.00003238,0.00036780,0.00053276,0.00002488,-0.00161046,-0.00228368,
 0.02579426,0.00124645,-0.00108693,-0.00031213,0.01008801,-0.01384390,0
 .00000926,-0.00085633,-0.00349484,0.00008538,-0.12749353,0.11895701,0.
 00151590,-0.00082458,-0.00085679,-0.00001630,-0.01043547,0.02954235,0.
 00005659,-0.00571178,-0.00124230,0.00010161,0.00005585,-0.00003977,-0.
 00007397,-0.00008590,0.00009454,0.00032343,-0.00000368,0.00017138,-0.0
 0002584,0.00054844,-0.00077398,-0.00004768,0.13328969,0.00144728,0.000
 90615,-0.00046071,0.01663895,-0.01949956,-0.00026710,-0.00395750,-0.00
 336136,-0.00004963,0.11852175,-0.26896909,-0.00209495,-0.00106915,0.00
 014916,0.00000960,-0.00236052,0.00348133,0.00008256,-0.00039822,0.0019
 5185,-0.00006381,-0.00029067,-0.00009452,0.00003728,-0.00114579,0.0002
 1402,0.00033910,-0.00000304,0.00042093,0.00012974,0.00077397,-0.001136
 89,0.00001837,-0.12851291,0.28513946,-0.00053379,0.00086685,-0.0034892
 0,0.00071923,0.00007773,0.00382296,-0.00003483,0.00017212,0.00676382,0
 .00136523,-0.00238482,-0.03730064,0.00005413,0.00003581,-0.00082653,0.
 00000690,-0.00023937,0.00258341,0.00012189,-0.00003665,0.00780093,-0.0
 0067878,-0.00028164,-0.00028258,0.00036783,-0.00053279,0.00002483,0.00
 028796,0.00007000,-0.00003242,-0.00004768,-0.00001837,0.00018364,-0.00
 161051,0.00228378,0.02579425,-0.00015737,0.00134802,0.00012721,-0.0055
 4379,-0.00111689,-0.00002529,-0.00996422,0.02944253,-0.00004538,-0.000
 96705,-0.00101220,0.00002763,-0.12925885,0.12050222,0.00027710,-0.0007
 2346,-0.00337685,0.00004380,0.01202703,-0.01507163,-0.00000897,-0.0001
 0660,0.00000881,-0.00003963,-0.00044261,0.00005306,-0.00003000,0.00003
 230,-0.00005432,0.00002924,0.00081654,-0.00041393,-0.00002252,0.000051
 86,0.00009549,-0.00000802,0.13307040,-0.00014609,-0.00000615,0.0000077
 6,-0.00059471,0.00190696,-0.00000006,-0.00236518,0.00350279,0.00000127
 ,-0.00097726,0.00028423,0.00002512,0.12055984,-0.27238324,0.00006683,-
 0.00400284,-0.00338008,0.00004325,0.01666590,-0.01808133,-0.00002376,0
 .00004519,-0.00001950,0.00000318,0.00001886,-0.00000644,0.00000560,0.0
 0001789,0.00000482,0.00000134,0.00039544,0.00080441,-0.00001878,0.0000
 8912,-0.00002175,-0.00000788,-0.13013073,0.28757423,-0.00012085,-0.000
 07679,0.00003713,0.00026381,-0.00012065,0.00792688,0.00005185,-0.00010
 669,0.00278275,0.00006291,0.00002507,-0.00092652,0.00027989,0.00015858
 ,-0.03727260,0.00002042,0.00006646,0.00767834,-0.00012816,0.00007226,0
 .00286733,-0.00003144,0.00004714,0.00001559,-0.00003042,-0.00000773,-0
 .00007412,0.00000382,0.00003897,-0.00003214,-0.00004442,-0.00003066,-0
 .00403981,-0.00000463,0.00001183,-0.00117193,-0.00028748,-0.00007532,0
 .02604959,-0.00015737,-0.00134803,0.00012721,-0.00554379,0.00111690,-0
 .00002529,-0.00096706,0.00101220,0.00002763,-0.00996424,-0.02944253,-0
 .00004539,-0.00072346,0.00337685,0.00004380,-0.12925877,-0.12050216,0.
 00027706,0.01202703,0.01507163,-0.00000897,-0.00010658,-0.00000880,-0.
 00003964,0.00003230,0.00005432,0.00002924,-0.00044263,-0.00005305,-0.0
 0003000,0.00005186,-0.00009549,-0.00000802,0.00081654,0.00041392,-0.00
 002252,0.00040055,0.00078969,-0.00000786,0.13307033,0.00014609,-0.0000
 0615,-0.00000776,0.00059471,0.00190696,0.00000006,0.00097726,0.0002842
 3,-0.00002512,0.00236518,0.00350279,-0.00000127,0.00400284,-0.00338008
 ,-0.00004325,-0.12055979,-0.27238332,-0.00006691,-0.01666589,-0.018081
 32,0.00002375,-0.00004519,-0.00001950,-0.00000318,-0.00001789,0.000004
 82,-0.00000134,-0.00001886,-0.00000644,-0.00000560,-0.00008912,-0.0000
 2175,0.00000788,-0.00039544,0.00080442,0.00001878,-0.00078969,-0.00104
 780,0.00001347,0.13013068,0.28757429,-0.00012085,0.00007679,0.00003713
 ,0.00026381,0.00012064,0.00792692,0.00006291,-0.00002507,-0.00092652,0
 .00005185,0.00010669,0.00278274,0.00002043,-0.00006647,0.00767833,0.00
 027986,-0.00015866,-0.03727260,-0.00012816,-0.00007227,0.00286732,-0.0
 0003145,-0.00004713,0.00001559,0.00000382,-0.00003897,-0.00003214,-0.0
 0003042,0.00000773,-0.00007414,-0.00000463,-0.00001183,-0.00117193,-0.
 00004442,0.00003066,-0.00403982,-0.00000786,-0.00001348,0.00009641,-0.
 00028744,0.00007541,0.02604959,0.00001784,0.,0.00005711,0.00066721,0.,
 -0.00003054,0.00061060,-0.00318171,0.00004387,0.00061060,0.00318171,0.
 00004387,-0.01132235,0.00327304,0.00005686,-0.01132234,-0.00327304,0.0
 0005686,-0.34172544,0.00000001,0.00170207,0.00000616,0.,-0.00001945,0.
 00001060,0.00003759,-0.00001454,0.00001060,-0.00003758,-0.00001454,-0.
 00068557,0.00015355,0.00001295,-0.00068557,-0.00015355,0.00001295,0.00
 076528,-0.00036510,-0.00002746,0.00076528,0.00036510,-0.00002746,0.362
 27712,0.,0.00017279,0.,0.,-0.00157635,0.,-0.00243041,-0.00446955,0.000
 03553,0.00243041,-0.00446955,-0.00003554,-0.02856875,0.00515704,0.0001
 4515,0.02856874,0.00515704,-0.00014515,0.00000002,-0.06048188,0.,0.,0.
 00001259,0.,-0.00008439,0.00004141,0.00002175,0.00008439,0.00004141,-0
 .00002175,-0.00139246,0.00001585,0.00002355,0.00139246,0.00001585,-0.0
 0002355,0.00051611,0.00086886,-0.00001595,-0.00051611,0.00086886,0.000
 01596,0.,0.05864561,-0.00019108,0.,-0.00093946,0.00012915,0.,-0.001071
 83,-0.00000446,0.00007367,0.00770678,-0.00000446,-0.00007367,0.0077067
 6,0.00016859,0.00008348,0.00224301,0.00016860,-0.00008348,0.00224300,0
 .00162212,0.,-0.03596240,-0.00017527,0.00000001,-0.00008120,0.00005622
 ,-0.00014063,0.00000651,0.00005621,0.00014062,0.00000651,0.00004329,0.
 00000671,0.00016929,0.00004329,-0.00000671,0.00016929,-0.00002982,-0.0
 0001507,-0.00393691,-0.00002983,0.00001507,-0.00393690,-0.00185255,0.,
 0.02567754\\-0.00002002,0.00000002,-0.00000559,0.00001418,-0.00000012,
 0.00000191,-0.00000402,0.00000398,-0.00000051,-0.00000384,-0.00000386,
 -0.00000051,0.00000232,0.00000277,-0.00000074,0.00000214,-0.00000267,-
 0.00000073,-0.00000232,-0.00000010,0.00000146,0.00000461,0.,0.00000156
 ,0.00000289,-0.00000101,0.00000113,0.00000289,0.00000101,0.00000113,0.
 00000137,0.00000043,0.00000024,0.00000135,-0.00000044,0.00000025,-0.00
 000049,0.00000070,0.00000012,-0.00000047,-0.00000071,0.00000012,-0.000
 00059,0.00000001,0.00000016\\\@


 MOST BUREAUCRACIES FUNCTION LIKE A SEPTIC TANK.
 THE LARGE CHUNKS RISE TO THE TOP.
 Job cpu time:       0 days  1 hours 58 minutes 46.1 seconds.
 File lengths (MBytes):  RWF=    100 Int=      0 D2E=      0 Chk=      7 Scr=      1
 Normal termination of Gaussian 09 at Fri Jul  9 19:41:56 2021.
