 Entering Gaussian System, Link 0=g09
 Initial command:
 /home/minenky/programs//g09/l1.exe "/local/scratch/minenky/m1_00_120836-03-5-C32H16_wB97XD/Gau-372739.inp" -scrdir="/local/scratch/minenky/m1_00_120836-03-5-C32H16_wB97XD/"
 Entering Link 1 = /home/minenky/programs//g09/l1.exe PID=    372740.
  
 Copyright (c) 1988,1990,1992,1993,1995,1998,2003,2009,2013,
            Gaussian, Inc.  All Rights Reserved.
  
 This is part of the Gaussian(R) 09 program.  It is based on
 the Gaussian(R) 03 system (copyright 2003, Gaussian, Inc.),
 the Gaussian(R) 98 system (copyright 1998, Gaussian, Inc.),
 the Gaussian(R) 94 system (copyright 1995, Gaussian, Inc.),
 the Gaussian 92(TM) system (copyright 1992, Gaussian, Inc.),
 the Gaussian 90(TM) system (copyright 1990, Gaussian, Inc.),
 the Gaussian 88(TM) system (copyright 1988, Gaussian, Inc.),
 the Gaussian 86(TM) system (copyright 1986, Carnegie Mellon
 University), and the Gaussian 82(TM) system (copyright 1983,
 Carnegie Mellon University). Gaussian is a federally registered
 trademark of Gaussian, Inc.
  
 This software contains proprietary and confidential information,
 including trade secrets, belonging to Gaussian, Inc.
  
 This software is provided under written license and may be
 used, copied, transmitted, or stored only in accord with that
 written license.
  
 The following legend is applicable only to US Government
 contracts under FAR:
  
                    RESTRICTED RIGHTS LEGEND
  
 Use, reproduction and disclosure by the US Government is
 subject to restrictions as set forth in subparagraphs (a)
 and (c) of the Commercial Computer Software - Restricted
 Rights clause in FAR 52.227-19.
  
 Gaussian, Inc.
 340 Quinnipiac St., Bldg. 40, Wallingford CT 06492
  
  
 ---------------------------------------------------------------
 Warning -- This program may not be used in any manner that
 competes with the business of Gaussian, Inc. or will provide
 assistance to any competitor of Gaussian, Inc.  The licensee
 of this program is prohibited from giving any competitor of
 Gaussian, Inc. access to this program.  By using this program,
 the user acknowledges that Gaussian, Inc. is engaged in the
 business of creating and licensing software in the field of
 computational chemistry and represents and warrants to the
 licensee that it is not a competitor of Gaussian, Inc. and that
 it will not use this program in any manner prohibited above.
 ---------------------------------------------------------------
  

 Cite this work as:
 Gaussian 09, Revision D.01,
 M. J. Frisch, G. W. Trucks, H. B. Schlegel, G. E. Scuseria, 
 M. A. Robb, J. R. Cheeseman, G. Scalmani, V. Barone, B. Mennucci, 
 G. A. Petersson, H. Nakatsuji, M. Caricato, X. Li, H. P. Hratchian, 
 A. F. Izmaylov, J. Bloino, G. Zheng, J. L. Sonnenberg, M. Hada, 
 M. Ehara, K. Toyota, R. Fukuda, J. Hasegawa, M. Ishida, T. Nakajima, 
 Y. Honda, O. Kitao, H. Nakai, T. Vreven, J. A. Montgomery, Jr., 
 J. E. Peralta, F. Ogliaro, M. Bearpark, J. J. Heyd, E. Brothers, 
 K. N. Kudin, V. N. Staroverov, T. Keith, R. Kobayashi, J. Normand, 
 K. Raghavachari, A. Rendell, J. C. Burant, S. S. Iyengar, J. Tomasi, 
 M. Cossi, N. Rega, J. M. Millam, M. Klene, J. E. Knox, J. B. Cross, 
 V. Bakken, C. Adamo, J. Jaramillo, R. Gomperts, R. E. Stratmann, 
 O. Yazyev, A. J. Austin, R. Cammi, C. Pomelli, J. W. Ochterski, 
 R. L. Martin, K. Morokuma, V. G. Zakrzewski, G. A. Voth, 
 P. Salvador, J. J. Dannenberg, S. Dapprich, A. D. Daniels, 
 O. Farkas, J. B. Foresman, J. V. Ortiz, J. Cioslowski, 
 and D. J. Fox, Gaussian, Inc., Wallingford CT, 2013.
 
 ******************************************
 Gaussian 09:  AM64L-G09RevD.01 24-Apr-2013
                27-Jul-2019 
 ******************************************
 %Mem=32000MB
 %NProcShared=16
 Will use up to   16 processors via shared memory.
 %Chk=m1_00_120836-03-5-C32H16_wB97XD
 ----------------------------------------------------------------------
 #P wB97XD/def2tzvp opt=(tight) freq integral(Grid=ultrafine) # SCF(Max
 Cycle=380) 5d 7f GFPrint
 ----------------------------------------------------------------------
 1/7=10,14=-1,18=20,19=15,26=4,38=1/1,3;
 2/9=110,12=2,17=6,18=5,40=1/2;
 3/5=44,7=101,8=11,11=2,16=1,24=100,25=1,30=1,71=1,74=-58,75=-5/1,2,3;
 4//1;
 5/5=2,7=380,38=5/2;
 6/7=2,8=2,9=2,10=2,28=1/1;
 7//1,2,3,16;
 1/7=10,14=-1,18=20,19=15,26=4/3(2);
 2/9=110/2;
 99//99;
 2/9=110/2;
 3/5=44,7=101,8=11,11=2,16=1,25=1,30=1,71=1,74=-58,75=-5/1,2,3;
 4/5=5,16=3,69=1/1;
 5/5=2,7=380,38=5/2;
 7//1,2,3,16;
 1/7=10,14=-1,18=20,19=15,26=4/3(-5);
 2/9=110/2;
 6/7=2,8=2,9=2,10=2,19=2,28=1/1;
 99/9=1/99;
 Leave Link    1 at Sat Jul 27 13:04:15 2019, MaxMem=  4194304000 cpu:         1.2
 (Enter /home/minenky/programs//g09/l101.exe)
 ---------------------------------------
 The PBEPBE optimization and frequencies
 ---------------------------------------
 Symbolic Z-matrix:
 Charge =  0 Multiplicity = 1
 C                    -4.26371   2.67499  -0.13226 
 C                    -4.32063   1.25374   0.07164 
 C                    -3.12617   0.50343   0.05288 
 C                    -1.86925   1.17113  -0.13478 
 C                    -1.85096   2.55719  -0.35569 
 C                    -3.08033   3.29821  -0.34839 
 C                    -3.17808  -0.9019    0.21346 
 C                    -4.40897  -1.51962   0.41474 
 C                    -5.58481  -0.76925   0.45413 
 C                    -5.54758   0.60166   0.28024 
 C                    -0.65178   0.43833  -0.09881 
 C                    -0.71212  -0.99572   0.00519 
 C                    -1.94217  -1.66579   0.13922 
 C                     0.48738  -1.73616  -0.08988 
 C                     0.43414  -3.1445   -0.09811 
 C                    -0.79826  -3.79734   0.04134 
 C                    -1.964    -3.06758   0.17032 
 C                     1.75255  -1.05008  -0.14333 
 C                     2.93967  -1.83868  -0.24049 
 C                     2.84269  -3.27753  -0.32976 
 C                     1.65086  -3.90263  -0.24911 
 C                     1.82443   0.35043  -0.0739 
 C                     3.11003   0.95046   0.13493 
 C                     4.2763    0.16109  -0.01394 
 C                     4.17497  -1.22758  -0.24139 
 C                     0.58252   1.1016   -0.21369 
 C                    -0.61648   3.19083  -0.59744 
 C                     0.55663   2.47867  -0.53355 
 C                     5.56694   0.75165   0.11375 
 C                     5.69943   2.06498   0.4618 
 C                     4.54352   2.83819   0.71627 
 C                     3.29756   2.29845   0.55801 
 H                     1.49965   3.00159  -0.74454 
 H                    -0.60113   4.26035  -0.83721 
 H                    -2.93323  -3.57643   0.28973 
 H                    -0.8319   -4.89286   0.04804 
 H                     1.57652  -4.99507  -0.2967 
 H                     3.77231  -3.84604  -0.4501 
 H                     5.08872  -1.82026  -0.37492 
 H                     6.45014   0.12597  -0.05994 
 H                     6.68758   2.52462   0.5642 
 H                     4.65977   3.87517   1.04855 
 H                     2.4183    2.91795   0.78112 
 H                    -6.47312   1.18804   0.30181 
 H                    -6.54178  -1.2754    0.61893 
 H                    -4.44292  -2.61326   0.53635 
 H                    -3.0336    4.38007  -0.51762 
 H                    -5.20372   3.23837  -0.11452 
 
 NAtoms=     48 NQM=       48 NQMF=       0 NMMI=      0 NMMIF=      0
                NMic=       0 NMicF=      0.
                    Isotopes and Nuclear Properties:
 (Nuclear quadrupole moments (NQMom) in fm**2, nuclear magnetic moments (NMagM)
  in nuclear magnetons)

  Atom         1           2           3           4           5           6           7           8           9          10
 IAtWgt=          12          12          12          12          12          12          12          12          12          12
 AtmWgt=  12.0000000  12.0000000  12.0000000  12.0000000  12.0000000  12.0000000  12.0000000  12.0000000  12.0000000  12.0000000
 NucSpn=           0           0           0           0           0           0           0           0           0           0
 AtZEff=   0.0000000   0.0000000   0.0000000   0.0000000   0.0000000   0.0000000   0.0000000   0.0000000   0.0000000   0.0000000
 NQMom=    0.0000000   0.0000000   0.0000000   0.0000000   0.0000000   0.0000000   0.0000000   0.0000000   0.0000000   0.0000000
 NMagM=    0.0000000   0.0000000   0.0000000   0.0000000   0.0000000   0.0000000   0.0000000   0.0000000   0.0000000   0.0000000
 AtZNuc=   6.0000000   6.0000000   6.0000000   6.0000000   6.0000000   6.0000000   6.0000000   6.0000000   6.0000000   6.0000000

  Atom        11          12          13          14          15          16          17          18          19          20
 IAtWgt=          12          12          12          12          12          12          12          12          12          12
 AtmWgt=  12.0000000  12.0000000  12.0000000  12.0000000  12.0000000  12.0000000  12.0000000  12.0000000  12.0000000  12.0000000
 NucSpn=           0           0           0           0           0           0           0           0           0           0
 AtZEff=   0.0000000   0.0000000   0.0000000   0.0000000   0.0000000   0.0000000   0.0000000   0.0000000   0.0000000   0.0000000
 NQMom=    0.0000000   0.0000000   0.0000000   0.0000000   0.0000000   0.0000000   0.0000000   0.0000000   0.0000000   0.0000000
 NMagM=    0.0000000   0.0000000   0.0000000   0.0000000   0.0000000   0.0000000   0.0000000   0.0000000   0.0000000   0.0000000
 AtZNuc=   6.0000000   6.0000000   6.0000000   6.0000000   6.0000000   6.0000000   6.0000000   6.0000000   6.0000000   6.0000000

  Atom        21          22          23          24          25          26          27          28          29          30
 IAtWgt=          12          12          12          12          12          12          12          12          12          12
 AtmWgt=  12.0000000  12.0000000  12.0000000  12.0000000  12.0000000  12.0000000  12.0000000  12.0000000  12.0000000  12.0000000
 NucSpn=           0           0           0           0           0           0           0           0           0           0
 AtZEff=   0.0000000   0.0000000   0.0000000   0.0000000   0.0000000   0.0000000   0.0000000   0.0000000   0.0000000   0.0000000
 NQMom=    0.0000000   0.0000000   0.0000000   0.0000000   0.0000000   0.0000000   0.0000000   0.0000000   0.0000000   0.0000000
 NMagM=    0.0000000   0.0000000   0.0000000   0.0000000   0.0000000   0.0000000   0.0000000   0.0000000   0.0000000   0.0000000
 AtZNuc=   6.0000000   6.0000000   6.0000000   6.0000000   6.0000000   6.0000000   6.0000000   6.0000000   6.0000000   6.0000000

  Atom        31          32          33          34          35          36          37          38          39          40
 IAtWgt=          12          12           1           1           1           1           1           1           1           1
 AtmWgt=  12.0000000  12.0000000   1.0078250   1.0078250   1.0078250   1.0078250   1.0078250   1.0078250   1.0078250   1.0078250
 NucSpn=           0           0           1           1           1           1           1           1           1           1
 AtZEff=   0.0000000   0.0000000   0.0000000   0.0000000   0.0000000   0.0000000   0.0000000   0.0000000   0.0000000   0.0000000
 NQMom=    0.0000000   0.0000000   0.0000000   0.0000000   0.0000000   0.0000000   0.0000000   0.0000000   0.0000000   0.0000000
 NMagM=    0.0000000   0.0000000   2.7928460   2.7928460   2.7928460   2.7928460   2.7928460   2.7928460   2.7928460   2.7928460
 AtZNuc=   6.0000000   6.0000000   1.0000000   1.0000000   1.0000000   1.0000000   1.0000000   1.0000000   1.0000000   1.0000000

  Atom        41          42          43          44          45          46          47          48
 IAtWgt=           1           1           1           1           1           1           1           1
 AtmWgt=   1.0078250   1.0078250   1.0078250   1.0078250   1.0078250   1.0078250   1.0078250   1.0078250
 NucSpn=           1           1           1           1           1           1           1           1
 AtZEff=   0.0000000   0.0000000   0.0000000   0.0000000   0.0000000   0.0000000   0.0000000   0.0000000
 NQMom=    0.0000000   0.0000000   0.0000000   0.0000000   0.0000000   0.0000000   0.0000000   0.0000000
 NMagM=    2.7928460   2.7928460   2.7928460   2.7928460   2.7928460   2.7928460   2.7928460   2.7928460
 AtZNuc=   1.0000000   1.0000000   1.0000000   1.0000000   1.0000000   1.0000000   1.0000000   1.0000000
 Leave Link  101 at Sat Jul 27 13:04:15 2019, MaxMem=  4194304000 cpu:         3.3
 (Enter /home/minenky/programs//g09/l103.exe)

 GradGradGradGradGradGradGradGradGradGradGradGradGradGradGradGradGradGrad
 Berny optimization.
 Initialization pass.
                           ----------------------------
                           !    Initial Parameters    !
                           ! (Angstroms and Degrees)  !
 --------------------------                            --------------------------
 ! Name  Definition              Value          Derivative Info.                !
 --------------------------------------------------------------------------------
 ! R1    R(1,2)                  1.4369         estimate D2E/DX2                !
 ! R2    R(1,6)                  1.3548         estimate D2E/DX2                !
 ! R3    R(1,48)                 1.0961         estimate D2E/DX2                !
 ! R4    R(2,3)                  1.4107         estimate D2E/DX2                !
 ! R5    R(2,10)                 1.405          estimate D2E/DX2                !
 ! R6    R(3,4)                  1.4356         estimate D2E/DX2                !
 ! R7    R(3,7)                  1.4154         estimate D2E/DX2                !
 ! R8    R(4,5)                  1.4037         estimate D2E/DX2                !
 ! R9    R(4,11)                 1.4214         estimate D2E/DX2                !
 ! R10   R(5,6)                  1.4355         estimate D2E/DX2                !
 ! R11   R(5,27)                 1.4085         estimate D2E/DX2                !
 ! R12   R(6,47)                 1.096          estimate D2E/DX2                !
 ! R13   R(7,8)                  1.3918         estimate D2E/DX2                !
 ! R14   R(7,13)                 1.4548         estimate D2E/DX2                !
 ! R15   R(8,9)                  1.3954         estimate D2E/DX2                !
 ! R16   R(8,46)                 1.1009         estimate D2E/DX2                !
 ! R17   R(9,10)                 1.3824         estimate D2E/DX2                !
 ! R18   R(9,45)                 1.0951         estimate D2E/DX2                !
 ! R19   R(10,44)                1.0959         estimate D2E/DX2                !
 ! R20   R(11,12)                1.4391         estimate D2E/DX2                !
 ! R21   R(11,26)                1.4059         estimate D2E/DX2                !
 ! R22   R(12,13)                1.4071         estimate D2E/DX2                !
 ! R23   R(12,14)                1.4128         estimate D2E/DX2                !
 ! R24   R(13,17)                1.4023         estimate D2E/DX2                !
 ! R25   R(14,15)                1.4094         estimate D2E/DX2                !
 ! R26   R(14,18)                1.4402         estimate D2E/DX2                !
 ! R27   R(15,16)                1.4016         estimate D2E/DX2                !
 ! R28   R(15,21)                1.4415         estimate D2E/DX2                !
 ! R29   R(16,17)                1.3813         estimate D2E/DX2                !
 ! R30   R(16,36)                1.0961         estimate D2E/DX2                !
 ! R31   R(17,35)                1.1012         estimate D2E/DX2                !
 ! R32   R(18,19)                1.4285         estimate D2E/DX2                !
 ! R33   R(18,22)                1.4041         estimate D2E/DX2                !
 ! R34   R(19,20)                1.4449         estimate D2E/DX2                !
 ! R35   R(19,25)                1.3782         estimate D2E/DX2                !
 ! R36   R(20,21)                1.3482         estimate D2E/DX2                !
 ! R37   R(20,38)                1.0963         estimate D2E/DX2                !
 ! R38   R(21,37)                1.096          estimate D2E/DX2                !
 ! R39   R(22,23)                1.434          estimate D2E/DX2                !
 ! R40   R(22,26)                1.4581         estimate D2E/DX2                !
 ! R41   R(23,24)                1.4161         estimate D2E/DX2                !
 ! R42   R(23,32)                1.4252         estimate D2E/DX2                !
 ! R43   R(24,25)                1.4108         estimate D2E/DX2                !
 ! R44   R(24,29)                1.4251         estimate D2E/DX2                !
 ! R45   R(25,39)                1.0973         estimate D2E/DX2                !
 ! R46   R(26,28)                1.414          estimate D2E/DX2                !
 ! R47   R(27,28)                1.3738         estimate D2E/DX2                !
 ! R48   R(27,34)                1.0962         estimate D2E/DX2                !
 ! R49   R(28,33)                1.0987         estimate D2E/DX2                !
 ! R50   R(29,30)                1.3651         estimate D2E/DX2                !
 ! R51   R(29,40)                1.0962         estimate D2E/DX2                !
 ! R52   R(30,31)                1.4138         estimate D2E/DX2                !
 ! R53   R(30,41)                1.0946         estimate D2E/DX2                !
 ! R54   R(31,32)                1.367          estimate D2E/DX2                !
 ! R55   R(31,42)                1.0951         estimate D2E/DX2                !
 ! R56   R(32,43)                1.0985         estimate D2E/DX2                !
 ! A1    A(2,1,6)              120.8117         estimate D2E/DX2                !
 ! A2    A(2,1,48)             118.1733         estimate D2E/DX2                !
 ! A3    A(6,1,48)             121.0138         estimate D2E/DX2                !
 ! A4    A(1,2,3)              119.3833         estimate D2E/DX2                !
 ! A5    A(1,2,10)             120.9768         estimate D2E/DX2                !
 ! A6    A(3,2,10)             119.6386         estimate D2E/DX2                !
 ! A7    A(2,3,4)              119.7162         estimate D2E/DX2                !
 ! A8    A(2,3,7)              119.7041         estimate D2E/DX2                !
 ! A9    A(4,3,7)              120.5792         estimate D2E/DX2                !
 ! A10   A(3,4,5)              119.4226         estimate D2E/DX2                !
 ! A11   A(3,4,11)             120.4526         estimate D2E/DX2                !
 ! A12   A(5,4,11)             120.1248         estimate D2E/DX2                !
 ! A13   A(4,5,6)              119.8541         estimate D2E/DX2                !
 ! A14   A(4,5,27)             118.8589         estimate D2E/DX2                !
 ! A15   A(6,5,27)             121.2825         estimate D2E/DX2                !
 ! A16   A(1,6,5)              120.758          estimate D2E/DX2                !
 ! A17   A(1,6,47)             121.0603         estimate D2E/DX2                !
 ! A18   A(5,6,47)             118.1811         estimate D2E/DX2                !
 ! A19   A(3,7,8)              119.3075         estimate D2E/DX2                !
 ! A20   A(3,7,13)             118.9721         estimate D2E/DX2                !
 ! A21   A(8,7,13)             121.7109         estimate D2E/DX2                !
 ! A22   A(7,8,9)              120.7053         estimate D2E/DX2                !
 ! A23   A(7,8,46)             118.9562         estimate D2E/DX2                !
 ! A24   A(9,8,46)             120.3373         estimate D2E/DX2                !
 ! A25   A(8,9,10)             120.4661         estimate D2E/DX2                !
 ! A26   A(8,9,45)             119.4772         estimate D2E/DX2                !
 ! A27   A(10,9,45)            120.0559         estimate D2E/DX2                !
 ! A28   A(2,10,9)             120.1615         estimate D2E/DX2                !
 ! A29   A(2,10,44)            119.4796         estimate D2E/DX2                !
 ! A30   A(9,10,44)            120.3587         estimate D2E/DX2                !
 ! A31   A(4,11,12)            118.6621         estimate D2E/DX2                !
 ! A32   A(4,11,26)            120.4423         estimate D2E/DX2                !
 ! A33   A(12,11,26)           120.8525         estimate D2E/DX2                !
 ! A34   A(11,12,13)           121.2032         estimate D2E/DX2                !
 ! A35   A(11,12,14)           118.8025         estimate D2E/DX2                !
 ! A36   A(13,12,14)           119.9341         estimate D2E/DX2                !
 ! A37   A(7,13,12)            119.8308         estimate D2E/DX2                !
 ! A38   A(7,13,17)            120.6989         estimate D2E/DX2                !
 ! A39   A(12,13,17)           119.4556         estimate D2E/DX2                !
 ! A40   A(12,14,15)           119.4736         estimate D2E/DX2                !
 ! A41   A(12,14,18)           119.9107         estimate D2E/DX2                !
 ! A42   A(15,14,18)           120.597          estimate D2E/DX2                !
 ! A43   A(14,15,16)           119.8729         estimate D2E/DX2                !
 ! A44   A(14,15,21)           119.6214         estimate D2E/DX2                !
 ! A45   A(16,15,21)           120.5057         estimate D2E/DX2                !
 ! A46   A(15,16,17)           120.3488         estimate D2E/DX2                !
 ! A47   A(15,16,36)           119.5477         estimate D2E/DX2                !
 ! A48   A(17,16,36)           120.1034         estimate D2E/DX2                !
 ! A49   A(13,17,16)           120.8566         estimate D2E/DX2                !
 ! A50   A(13,17,35)           118.5568         estimate D2E/DX2                !
 ! A51   A(16,17,35)           120.5838         estimate D2E/DX2                !
 ! A52   A(14,18,19)           118.0064         estimate D2E/DX2                !
 ! A53   A(14,18,22)           121.219          estimate D2E/DX2                !
 ! A54   A(19,18,22)           120.7612         estimate D2E/DX2                !
 ! A55   A(18,19,20)           119.8788         estimate D2E/DX2                !
 ! A56   A(18,19,25)           120.009          estimate D2E/DX2                !
 ! A57   A(20,19,25)           120.1112         estimate D2E/DX2                !
 ! A58   A(19,20,21)           121.1547         estimate D2E/DX2                !
 ! A59   A(19,20,38)           117.7927         estimate D2E/DX2                !
 ! A60   A(21,20,38)           121.0463         estimate D2E/DX2                !
 ! A61   A(15,21,20)           120.5686         estimate D2E/DX2                !
 ! A62   A(15,21,37)           118.1327         estimate D2E/DX2                !
 ! A63   A(20,21,37)           121.2986         estimate D2E/DX2                !
 ! A64   A(18,22,23)           118.0642         estimate D2E/DX2                !
 ! A65   A(18,22,26)           117.7427         estimate D2E/DX2                !
 ! A66   A(23,22,26)           124.1926         estimate D2E/DX2                !
 ! A67   A(22,23,24)           119.3262         estimate D2E/DX2                !
 ! A68   A(22,23,32)           123.8442         estimate D2E/DX2                !
 ! A69   A(24,23,32)           116.7469         estimate D2E/DX2                !
 ! A70   A(23,24,25)           120.4277         estimate D2E/DX2                !
 ! A71   A(23,24,29)           120.3616         estimate D2E/DX2                !
 ! A72   A(25,24,29)           119.1699         estimate D2E/DX2                !
 ! A73   A(19,25,24)           120.0478         estimate D2E/DX2                !
 ! A74   A(19,25,39)           120.4629         estimate D2E/DX2                !
 ! A75   A(24,25,39)           119.4363         estimate D2E/DX2                !
 ! A76   A(11,26,22)           119.7939         estimate D2E/DX2                !
 ! A77   A(11,26,28)           117.5075         estimate D2E/DX2                !
 ! A78   A(22,26,28)           122.6153         estimate D2E/DX2                !
 ! A79   A(5,27,28)            120.4783         estimate D2E/DX2                !
 ! A80   A(5,27,34)            119.2586         estimate D2E/DX2                !
 ! A81   A(28,27,34)           120.2631         estimate D2E/DX2                !
 ! A82   A(26,28,27)           122.0727         estimate D2E/DX2                !
 ! A83   A(26,28,33)           119.4215         estimate D2E/DX2                !
 ! A84   A(27,28,33)           118.5049         estimate D2E/DX2                !
 ! A85   A(24,29,30)           120.6264         estimate D2E/DX2                !
 ! A86   A(24,29,40)           118.6175         estimate D2E/DX2                !
 ! A87   A(30,29,40)           120.751          estimate D2E/DX2                !
 ! A88   A(29,30,31)           119.5184         estimate D2E/DX2                !
 ! A89   A(29,30,41)           121.028          estimate D2E/DX2                !
 ! A90   A(31,30,41)           119.4449         estimate D2E/DX2                !
 ! A91   A(30,31,32)           120.5591         estimate D2E/DX2                !
 ! A92   A(30,31,42)           119.0585         estimate D2E/DX2                !
 ! A93   A(32,31,42)           120.3813         estimate D2E/DX2                !
 ! A94   A(23,32,31)           121.8516         estimate D2E/DX2                !
 ! A95   A(23,32,43)           119.2341         estimate D2E/DX2                !
 ! A96   A(31,32,43)           118.9051         estimate D2E/DX2                !
 ! D1    D(6,1,2,3)              0.3462         estimate D2E/DX2                !
 ! D2    D(6,1,2,10)          -179.2362         estimate D2E/DX2                !
 ! D3    D(48,1,2,3)           179.9536         estimate D2E/DX2                !
 ! D4    D(48,1,2,10)            0.3712         estimate D2E/DX2                !
 ! D5    D(2,1,6,5)             -1.1027         estimate D2E/DX2                !
 ! D6    D(2,1,6,47)           179.1801         estimate D2E/DX2                !
 ! D7    D(48,1,6,5)           179.3011         estimate D2E/DX2                !
 ! D8    D(48,1,6,47)           -0.416          estimate D2E/DX2                !
 ! D9    D(1,2,3,4)              1.5903         estimate D2E/DX2                !
 ! D10   D(1,2,3,7)           -178.136          estimate D2E/DX2                !
 ! D11   D(10,2,3,4)          -178.8217         estimate D2E/DX2                !
 ! D12   D(10,2,3,7)             1.452          estimate D2E/DX2                !
 ! D13   D(1,2,10,9)           179.0031         estimate D2E/DX2                !
 ! D14   D(1,2,10,44)           -0.8751         estimate D2E/DX2                !
 ! D15   D(3,2,10,9)            -0.5783         estimate D2E/DX2                !
 ! D16   D(3,2,10,44)          179.5435         estimate D2E/DX2                !
 ! D17   D(2,3,4,5)             -2.7641         estimate D2E/DX2                !
 ! D18   D(2,3,4,11)           177.2792         estimate D2E/DX2                !
 ! D19   D(7,3,4,5)            176.9597         estimate D2E/DX2                !
 ! D20   D(7,3,4,11)            -2.997          estimate D2E/DX2                !
 ! D21   D(2,3,7,8)             -1.2816         estimate D2E/DX2                !
 ! D22   D(2,3,7,13)           177.6165         estimate D2E/DX2                !
 ! D23   D(4,3,7,8)            178.9946         estimate D2E/DX2                !
 ! D24   D(4,3,7,13)            -2.1074         estimate D2E/DX2                !
 ! D25   D(3,4,5,6)              2.0301         estimate D2E/DX2                !
 ! D26   D(3,4,5,27)          -177.2088         estimate D2E/DX2                !
 ! D27   D(11,4,5,6)          -178.0131         estimate D2E/DX2                !
 ! D28   D(11,4,5,27)            2.748          estimate D2E/DX2                !
 ! D29   D(3,4,11,12)            5.6581         estimate D2E/DX2                !
 ! D30   D(3,4,11,26)         -176.7086         estimate D2E/DX2                !
 ! D31   D(5,4,11,12)         -174.2983         estimate D2E/DX2                !
 ! D32   D(5,4,11,26)            3.335          estimate D2E/DX2                !
 ! D33   D(4,5,6,1)             -0.1032         estimate D2E/DX2                !
 ! D34   D(4,5,6,47)           179.622          estimate D2E/DX2                !
 ! D35   D(27,5,6,1)           179.1168         estimate D2E/DX2                !
 ! D36   D(27,5,6,47)           -1.158          estimate D2E/DX2                !
 ! D37   D(4,5,27,28)           -4.0947         estimate D2E/DX2                !
 ! D38   D(4,5,27,34)          175.9296         estimate D2E/DX2                !
 ! D39   D(6,5,27,28)          176.6777         estimate D2E/DX2                !
 ! D40   D(6,5,27,34)           -3.298          estimate D2E/DX2                !
 ! D41   D(3,7,8,9)              0.2396         estimate D2E/DX2                !
 ! D42   D(3,7,8,46)           179.8435         estimate D2E/DX2                !
 ! D43   D(13,7,8,9)          -178.6272         estimate D2E/DX2                !
 ! D44   D(13,7,8,46)            0.9767         estimate D2E/DX2                !
 ! D45   D(3,7,13,12)            4.4735         estimate D2E/DX2                !
 ! D46   D(3,7,13,17)         -174.1209         estimate D2E/DX2                !
 ! D47   D(8,7,13,12)         -176.6561         estimate D2E/DX2                !
 ! D48   D(8,7,13,17)            4.7496         estimate D2E/DX2                !
 ! D49   D(7,8,9,10)             0.6451         estimate D2E/DX2                !
 ! D50   D(7,8,9,45)          -179.6818         estimate D2E/DX2                !
 ! D51   D(46,8,9,10)         -178.9533         estimate D2E/DX2                !
 ! D52   D(46,8,9,45)            0.7198         estimate D2E/DX2                !
 ! D53   D(8,9,10,2)            -0.4723         estimate D2E/DX2                !
 ! D54   D(8,9,10,44)          179.4048         estimate D2E/DX2                !
 ! D55   D(45,9,10,2)          179.8565         estimate D2E/DX2                !
 ! D56   D(45,9,10,44)          -0.2664         estimate D2E/DX2                !
 ! D57   D(4,11,12,13)          -3.2731         estimate D2E/DX2                !
 ! D58   D(4,11,12,14)         173.9033         estimate D2E/DX2                !
 ! D59   D(26,11,12,13)        179.1037         estimate D2E/DX2                !
 ! D60   D(26,11,12,14)         -3.7199         estimate D2E/DX2                !
 ! D61   D(4,11,26,22)         175.3743         estimate D2E/DX2                !
 ! D62   D(4,11,26,28)          -7.8577         estimate D2E/DX2                !
 ! D63   D(12,11,26,22)         -7.0447         estimate D2E/DX2                !
 ! D64   D(12,11,26,28)        169.7232         estimate D2E/DX2                !
 ! D65   D(11,12,13,7)          -1.7848         estimate D2E/DX2                !
 ! D66   D(11,12,13,17)        176.8271         estimate D2E/DX2                !
 ! D67   D(14,12,13,7)        -178.9297         estimate D2E/DX2                !
 ! D68   D(14,12,13,17)         -0.3178         estimate D2E/DX2                !
 ! D69   D(11,12,14,15)       -174.9219         estimate D2E/DX2                !
 ! D70   D(11,12,14,18)          6.6413         estimate D2E/DX2                !
 ! D71   D(13,12,14,15)          2.2913         estimate D2E/DX2                !
 ! D72   D(13,12,14,18)       -176.1455         estimate D2E/DX2                !
 ! D73   D(7,13,17,16)         177.149          estimate D2E/DX2                !
 ! D74   D(7,13,17,35)          -2.2373         estimate D2E/DX2                !
 ! D75   D(12,13,17,16)         -1.4506         estimate D2E/DX2                !
 ! D76   D(12,13,17,35)        179.1631         estimate D2E/DX2                !
 ! D77   D(12,14,15,16)         -2.5386         estimate D2E/DX2                !
 ! D78   D(12,14,15,21)        177.5138         estimate D2E/DX2                !
 ! D79   D(18,14,15,16)        175.8871         estimate D2E/DX2                !
 ! D80   D(18,14,15,21)         -4.0604         estimate D2E/DX2                !
 ! D81   D(12,14,18,19)       -179.9413         estimate D2E/DX2                !
 ! D82   D(12,14,18,22)          1.3811         estimate D2E/DX2                !
 ! D83   D(15,14,18,19)          1.6398         estimate D2E/DX2                !
 ! D84   D(15,14,18,22)       -177.0379         estimate D2E/DX2                !
 ! D85   D(14,15,16,17)          0.8035         estimate D2E/DX2                !
 ! D86   D(14,15,16,36)       -179.1629         estimate D2E/DX2                !
 ! D87   D(21,15,16,17)       -179.2494         estimate D2E/DX2                !
 ! D88   D(21,15,16,36)          0.7842         estimate D2E/DX2                !
 ! D89   D(14,15,21,20)          2.6083         estimate D2E/DX2                !
 ! D90   D(14,15,21,37)       -177.3447         estimate D2E/DX2                !
 ! D91   D(16,15,21,20)       -177.339          estimate D2E/DX2                !
 ! D92   D(16,15,21,37)          2.708          estimate D2E/DX2                !
 ! D93   D(15,16,17,13)          1.2119         estimate D2E/DX2                !
 ! D94   D(15,16,17,35)       -179.4142         estimate D2E/DX2                !
 ! D95   D(36,16,17,13)       -178.8219         estimate D2E/DX2                !
 ! D96   D(36,16,17,35)          0.552          estimate D2E/DX2                !
 ! D97   D(14,18,19,20)          2.1843         estimate D2E/DX2                !
 ! D98   D(14,18,19,25)       -177.4499         estimate D2E/DX2                !
 ! D99   D(22,18,19,20)       -179.1317         estimate D2E/DX2                !
 ! D100  D(22,18,19,25)          1.2341         estimate D2E/DX2                !
 ! D101  D(14,18,22,23)        167.8069         estimate D2E/DX2                !
 ! D102  D(14,18,22,26)        -11.9416         estimate D2E/DX2                !
 ! D103  D(19,18,22,23)        -10.8345         estimate D2E/DX2                !
 ! D104  D(19,18,22,26)        169.417          estimate D2E/DX2                !
 ! D105  D(18,19,20,21)         -3.7019         estimate D2E/DX2                !
 ! D106  D(18,19,20,38)        177.205          estimate D2E/DX2                !
 ! D107  D(25,19,20,21)        175.932          estimate D2E/DX2                !
 ! D108  D(25,19,20,38)         -3.1612         estimate D2E/DX2                !
 ! D109  D(18,19,25,24)          6.2723         estimate D2E/DX2                !
 ! D110  D(18,19,25,39)       -176.3895         estimate D2E/DX2                !
 ! D111  D(20,19,25,24)       -173.3611         estimate D2E/DX2                !
 ! D112  D(20,19,25,39)          3.9771         estimate D2E/DX2                !
 ! D113  D(19,20,21,15)          1.27           estimate D2E/DX2                !
 ! D114  D(19,20,21,37)       -178.7786         estimate D2E/DX2                !
 ! D115  D(38,20,21,15)       -179.6664         estimate D2E/DX2                !
 ! D116  D(38,20,21,37)          0.285          estimate D2E/DX2                !
 ! D117  D(18,22,23,24)         13.0553         estimate D2E/DX2                !
 ! D118  D(18,22,23,32)       -163.5265         estimate D2E/DX2                !
 ! D119  D(26,22,23,24)       -167.2137         estimate D2E/DX2                !
 ! D120  D(26,22,23,32)         16.2044         estimate D2E/DX2                !
 ! D121  D(18,22,26,11)         14.7418         estimate D2E/DX2                !
 ! D122  D(18,22,26,28)       -161.8546         estimate D2E/DX2                !
 ! D123  D(23,22,26,11)       -164.9899         estimate D2E/DX2                !
 ! D124  D(23,22,26,28)         18.4137         estimate D2E/DX2                !
 ! D125  D(22,23,24,25)         -5.9066         estimate D2E/DX2                !
 ! D126  D(22,23,24,29)        176.4345         estimate D2E/DX2                !
 ! D127  D(32,23,24,25)        170.9145         estimate D2E/DX2                !
 ! D128  D(32,23,24,29)         -6.7444         estimate D2E/DX2                !
 ! D129  D(22,23,32,31)       -178.5341         estimate D2E/DX2                !
 ! D130  D(22,23,32,43)          2.5769         estimate D2E/DX2                !
 ! D131  D(24,23,32,31)          4.803          estimate D2E/DX2                !
 ! D132  D(24,23,32,43)       -174.086          estimate D2E/DX2                !
 ! D133  D(23,24,25,19)         -3.8855         estimate D2E/DX2                !
 ! D134  D(23,24,25,39)        178.7488         estimate D2E/DX2                !
 ! D135  D(29,24,25,19)        173.801          estimate D2E/DX2                !
 ! D136  D(29,24,25,39)         -3.5646         estimate D2E/DX2                !
 ! D137  D(23,24,29,30)          4.0563         estimate D2E/DX2                !
 ! D138  D(23,24,29,40)       -176.7648         estimate D2E/DX2                !
 ! D139  D(25,24,29,30)       -173.6319         estimate D2E/DX2                !
 ! D140  D(25,24,29,40)          5.547          estimate D2E/DX2                !
 ! D141  D(11,26,28,27)          6.6267         estimate D2E/DX2                !
 ! D142  D(11,26,28,33)       -173.0184         estimate D2E/DX2                !
 ! D143  D(22,26,28,27)       -176.7034         estimate D2E/DX2                !
 ! D144  D(22,26,28,33)          3.6515         estimate D2E/DX2                !
 ! D145  D(5,27,28,26)          -0.6659         estimate D2E/DX2                !
 ! D146  D(5,27,28,33)         178.9823         estimate D2E/DX2                !
 ! D147  D(34,27,28,26)        179.3095         estimate D2E/DX2                !
 ! D148  D(34,27,28,33)         -1.0423         estimate D2E/DX2                !
 ! D149  D(24,29,30,31)          0.9297         estimate D2E/DX2                !
 ! D150  D(24,29,30,41)        179.8445         estimate D2E/DX2                !
 ! D151  D(40,29,30,31)       -178.2316         estimate D2E/DX2                !
 ! D152  D(40,29,30,41)          0.6832         estimate D2E/DX2                !
 ! D153  D(29,30,31,32)         -2.9635         estimate D2E/DX2                !
 ! D154  D(29,30,31,42)        176.6517         estimate D2E/DX2                !
 ! D155  D(41,30,31,32)        178.1044         estimate D2E/DX2                !
 ! D156  D(41,30,31,42)         -2.2804         estimate D2E/DX2                !
 ! D157  D(30,31,32,23)         -0.0106         estimate D2E/DX2                !
 ! D158  D(30,31,32,43)        178.8819         estimate D2E/DX2                !
 ! D159  D(42,31,32,23)       -179.6208         estimate D2E/DX2                !
 ! D160  D(42,31,32,43)         -0.7282         estimate D2E/DX2                !
 --------------------------------------------------------------------------------
 Trust Radius=3.00D-01 FncErr=1.00D-07 GrdErr=1.00D-06
 Number of steps in this run=    288 maximum allowed number of steps=    288.
 GradGradGradGradGradGradGradGradGradGradGradGradGradGradGradGradGradGrad

 Leave Link  103 at Sat Jul 27 13:04:16 2019, MaxMem=  4194304000 cpu:         0.2
 (Enter /home/minenky/programs//g09/l202.exe)
                          Input orientation:                          
 ---------------------------------------------------------------------
 Center     Atomic      Atomic             Coordinates (Angstroms)
 Number     Number       Type             X           Y           Z
 ---------------------------------------------------------------------
      1          6           0       -4.263714    2.674986   -0.132262
      2          6           0       -4.320625    1.253738    0.071639
      3          6           0       -3.126172    0.503428    0.052883
      4          6           0       -1.869247    1.171125   -0.134781
      5          6           0       -1.850962    2.557188   -0.355692
      6          6           0       -3.080334    3.298206   -0.348389
      7          6           0       -3.178082   -0.901901    0.213463
      8          6           0       -4.408971   -1.519625    0.414744
      9          6           0       -5.584807   -0.769248    0.454133
     10          6           0       -5.547576    0.601660    0.280238
     11          6           0       -0.651780    0.438330   -0.098809
     12          6           0       -0.712118   -0.995718    0.005191
     13          6           0       -1.942169   -1.665795    0.139221
     14          6           0        0.487382   -1.736163   -0.089879
     15          6           0        0.434140   -3.144499   -0.098109
     16          6           0       -0.798265   -3.797337    0.041338
     17          6           0       -1.963997   -3.067584    0.170323
     18          6           0        1.752546   -1.050080   -0.143329
     19          6           0        2.939674   -1.838676   -0.240495
     20          6           0        2.842691   -3.277528   -0.329759
     21          6           0        1.650857   -3.902625   -0.249115
     22          6           0        1.824434    0.350433   -0.073904
     23          6           0        3.110034    0.950456    0.134927
     24          6           0        4.276305    0.161088   -0.013938
     25          6           0        4.174968   -1.227579   -0.241389
     26          6           0        0.582523    1.101596   -0.213693
     27          6           0       -0.616484    3.190831   -0.597443
     28          6           0        0.556634    2.478673   -0.533553
     29          6           0        5.566939    0.751646    0.113750
     30          6           0        5.699435    2.064976    0.461801
     31          6           0        4.543517    2.838187    0.716265
     32          6           0        3.297559    2.298449    0.558006
     33          1           0        1.499648    3.001592   -0.744540
     34          1           0       -0.601125    4.260352   -0.837210
     35          1           0       -2.933227   -3.576430    0.289735
     36          1           0       -0.831902   -4.892859    0.048042
     37          1           0        1.576520   -4.995070   -0.296697
     38          1           0        3.772310   -3.846038   -0.450104
     39          1           0        5.088723   -1.820260   -0.374922
     40          1           0        6.450140    0.125974   -0.059937
     41          1           0        6.687581    2.524624    0.564204
     42          1           0        4.659772    3.875169    1.048553
     43          1           0        2.418297    2.917953    0.781117
     44          1           0       -6.473121    1.188042    0.301813
     45          1           0       -6.541781   -1.275403    0.618935
     46          1           0       -4.442922   -2.613256    0.536349
     47          1           0       -3.033603    4.380068   -0.517616
     48          1           0       -5.203720    3.238370   -0.114521
 ---------------------------------------------------------------------
                    Distance matrix (angstroms):
                    1          2          3          4          5
     1  C    0.000000
     2  C    1.436928   0.000000
     3  C    2.458444   1.410687   0.000000
     4  C    2.827557   2.461441   1.435582   0.000000
     5  C    2.425937   2.825036   2.451738   1.403676   0.000000
     6  C    1.354807   2.427879   2.823811   2.456997   1.435450
     7  C    3.753964   2.443829   1.415426   2.476239   3.748397
     8  C    4.232621   2.795902   2.422656   3.740630   4.874154
     9  C    3.735223   2.415973   2.797426   4.232877   5.065825
    10  C    2.473286   1.405036   2.434037   3.745215   4.230065
    11  C    4.248508   3.762229   2.479892   1.421446   2.448180
    12  C    5.109481   4.252740   2.842072   2.460437   3.748379
    13  C    4.930076   3.766337   2.472821   2.851054   4.252862
    14  C    6.483282   5.664144   4.253695   3.742731   4.896056
    15  C    7.479132   6.479282   5.099607   4.891988   6.147948
    16  C    7.343735   6.158028   4.890385   5.085630   6.453355
    17  C    6.193333   4.923135   3.757202   4.250732   5.650445
    18  C    7.076131   6.499015   5.123844   4.248672   5.103210
    19  C    8.501391   7.897620   6.508917   5.674134   6.502852
    20  C    9.272132   8.485671   7.075972   6.483124   7.488322
    21  C    8.846512   7.896175   6.505729   6.176338   7.348692
    22  C    6.517093   6.212801   4.954592   3.784247   4.296244
    23  C    7.577438   7.437116   6.252746   4.991461   5.237727
    24  C    8.903123   8.666511   7.410690   6.229172   6.587981
    25  C    9.298025   8.856073   7.509302   6.503667   7.116836
    26  C    5.095901   4.913800   3.766071   2.454025   2.839149
    27  C    3.712786   4.233280   3.734112   2.421298   1.408504
    28  C    4.841005   5.065016   4.220019   2.784529   2.415434
    29  C   10.020055   9.900394   8.696867   7.452154   7.648897
    30  C    9.999468  10.060414   8.972011   7.644594   7.610457
    31  C    8.849517   9.027682   8.044582   6.680338   6.489793
    32  C    7.602046   7.704850   6.688914   5.333545   5.235367
    33  H    5.804989   6.131617   5.317417   3.882251   3.402248
    34  H    4.052764   4.868307   4.613307   3.412457   2.166731
    35  H    6.405348   5.030205   4.091280   4.883805   6.261720
    36  H    8.311565   7.067701   5.863754   6.154787   7.530250
    37  H    9.641843   8.599977   7.243687   7.065514   8.293836
    38  H   10.353863   9.579955   8.170674   7.556357   8.522406
    39  H   10.379509   9.908821   8.547926   7.577559   8.204977
    40  H   11.013146  10.830446   9.584412   8.385115   8.654859
    41  H   10.974449  11.092266  10.032767   8.691366   8.588014
    42  H    9.080934   9.406051   8.542887   7.165209   6.789598
    43  H    6.748523   6.977539   6.091091   4.719461   4.432726
    44  H    2.698315   2.165763   3.425307   4.624560   4.865308
    45  H    4.621630   3.410223   3.892434   5.327866   6.135342
    46  H    5.333354   3.896737   3.417790   4.625555   5.852135
    47  H    2.137515   3.431849   3.919486   3.435055   2.178934
    48  H    1.096051   2.180201   3.438624   3.923343   3.429746
                    6          7          8          9         10
     6  C    0.000000
     7  C    4.238648   0.000000
     8  C    5.055605   1.391828   0.000000
     9  C    4.843615   2.422363   1.395423   0.000000
    10  C    3.708614   2.807072   2.411298   1.382393   0.000000
    11  C    3.760194   2.876793   4.267764   5.108693   4.913163
    12  C    4.916427   2.476521   3.756187   4.898565   5.099894
    13  C    5.116101   1.454829   2.486442   3.764542   4.261478
    14  C    6.175783   3.771423   4.927048   6.172710   6.482524
    15  C    7.343202   4.263153   5.134098   6.494191   7.068082
    16  C    7.463676   3.751894   4.285395   5.678971   6.477978
    17  C    6.483715   2.483152   2.904104   4.298041   5.130055
    18  C    6.504335   4.945741   6.204532   7.366992   7.496628
    19  C    7.914524   6.205688   7.384695   8.619336   8.846457
    20  C    8.850020   6.495260   7.498741   8.827722   9.263735
    21  C    8.616612   5.704119   6.545298   7.916277   8.508010
    22  C    5.729002   5.164890   6.526196   7.511948   7.384786
    23  C    6.638237   6.555746   7.919283   8.869021   8.665852
    24  C    8.004592   7.533229   8.856782   9.915953   9.838154
    25  C    8.551818   7.374300   8.613931   9.795255   9.906869
    26  C    4.273145   4.282361   5.672808   6.479352   6.170253
    27  C    2.478733   4.895897   6.131547   6.439896   5.638244
    28  C    3.732755   5.092585   6.445378   7.017251   6.437920
    29  C    9.026288   8.900537  10.235627  11.260125  11.116774
    30  C    8.902899   9.363457  10.725271  11.634732  11.343258
    31  C    7.711563   8.594426   9.961350  10.754778  10.345160
    32  C    6.519094   7.231520   8.601676   9.397765   9.010697
    33  H    4.606642   6.167349   7.529750   8.114527   7.514866
    34  H    2.703913   5.864595   7.033862   7.197328   6.253167
    35  H    6.905756   2.686797   2.534541   3.864994   4.928625
    36  H    8.503302   4.632458   4.930375   6.305488   7.244392
    37  H    9.511435   6.294485   6.957800   8.349008   9.077939
    38  H    9.899965   7.577349   8.549476   9.891407  10.352569
    39  H    9.640171   8.338444   9.535206  10.757147  10.928211
    40  H   10.048692   9.686792  10.993345  12.079141  12.011960
    41  H    9.840905  10.449660  11.811509  12.707210  12.388603
    42  H    7.886290   9.216817  10.571074  11.263895  10.746912
    43  H    5.626306   6.799483   8.150946   8.817712   8.310910
    44  H    4.048031   3.902941   3.406600   2.154828   1.095875
    45  H    5.816806   3.408575   2.156436   1.095058   2.150935
    46  H    6.130644   2.152397   1.100895   2.170491   3.409038
    47  H    1.096014   5.334280   6.129217   5.828240   4.607928
    48  H    2.137064   4.620890   4.852861   4.065660   2.688181
                   11         12         13         14         15
    11  C    0.000000
    12  C    1.439080   0.000000
    13  C    2.479739   1.407122   0.000000
    14  C    2.454830   1.412832   2.441343   0.000000
    15  C    3.743780   2.437588   2.808868   1.409366   0.000000
    16  C    4.240516   2.803176   2.421068   2.432805   1.401594
    17  C    3.753103   2.426334   1.402304   2.801722   2.414340
    18  C    2.828097   2.469733   3.756309   1.440211   2.475243
    19  C    4.254806   3.755865   4.899639   2.459051   2.828983
    20  C    5.106102   4.237395   5.070751   2.825037   2.423319
    21  C    4.916160   3.754788   4.250183   2.464263   1.441513
    22  C    2.477899   2.872712   4.277604   2.478275   3.761390
    23  C    3.803702   4.291069   5.689424   3.761218   4.897282
    24  C    4.936606   5.120833   6.483083   4.238073   5.069143
    25  C    5.108138   4.898792   6.144612   3.725574   4.205817
    26  C    1.405924   2.474415   3.762588   2.842051   4.250258
    27  C    2.797524   4.230781   5.087919   5.074584   6.441238
    28  C    2.410864   3.737830   4.886027   4.238689   5.641337
    29  C    6.230234   6.518560   7.888687   5.659732   6.447515
    30  C    6.580135   7.119294   8.509807   6.474450   7.428018
    31  C    5.780551   6.544170   7.917257   6.166586   7.303610
    32  C    4.414604   5.218683   6.583719   4.959329   6.185090
    33  H    3.408214   4.629525   5.866144   4.888721   6.271173
    34  H    3.893026   5.324306   6.153944   6.140158   7.513312
    35  H    4.634034   3.416777   2.157633   3.902724   3.417039
    36  H    5.336252   3.899216   3.413934   3.424071   2.163559
    37  H    5.875911   4.617772   4.863669   3.442307   2.183823
    38  H    6.168614   5.333077   6.144594   3.920726   3.429204
    39  H    6.175018   5.871466   7.051358   4.610929   4.847203
    40  H    7.108892   7.249854   8.583761   6.246835   6.847606
    41  H    7.658878   8.213455   9.602749   7.551463   8.466589
    42  H    6.429687   7.326073   8.666879   7.084625   8.273242
    43  H    4.043287   5.071329   6.358965   5.113498   6.439195
    44  H    5.883075   6.168140   5.357270   7.559960   8.163400
    45  H    6.176095   5.868550   4.641009   7.079820   7.257489
    46  H    4.907990   4.100909   2.703545   5.046716   4.946765
    47  H    4.624476   5.878920   6.178602   7.070260   8.295802
    48  H    5.344214   6.173842   5.895162   7.558784   8.516264
                   16         17         18         19         20
    16  C    0.000000
    17  C    1.381343   0.000000
    18  C    3.753419   4.240447   0.000000
    19  C    4.229417   5.071980   1.428495   0.000000
    20  C    3.696549   4.837191   2.486905   1.444877   0.000000
    21  C    2.468531   3.733684   2.856317   2.433313   1.348228
    22  C    4.908750   5.108298   1.404075   2.462460   3.776826
    23  C    6.150211   6.472379   2.433587   2.819436   4.261837
    24  C    6.436104   7.028488   2.802326   2.415981   3.738860
    25  C    5.605054   6.421995   2.430895   1.378184   2.446438
    26  C    5.096190   4.900438   2.450227   3.768564   4.929356
    27  C    7.019656   6.447714   4.878919   6.170057   7.340110
    28  C    6.446282   6.132699   3.746276   4.940067   6.196890
    29  C    7.823958   8.444213   4.226335   3.706451   4.883900
    30  C    8.761483   9.228018   5.064354   4.831976   6.109820
    31  C    8.545194   8.804768   4.862823   5.035946   6.433425
    32  C    7.362155   7.525197   3.753876   4.228650   5.664499
    33  H    7.219657   7.047604   4.103835   5.075030   6.434529
    34  H    8.107840   7.521383   5.849951   7.077533   8.302832
    35  H    2.160687   1.101177   5.341017   6.147512   5.816730
    36  H    1.096059   2.151329   4.634969   4.861695   4.031707
    37  H    2.681126   4.058149   3.951892   3.438630   2.134065
    38  H    4.597178   5.822040   3.462794   2.183283   1.096302
    39  H    6.224045   7.182895   3.431748   2.153328   2.677747
    40  H    8.242694   9.002752   4.843289   4.026888   4.966922
    41  H    9.812158  10.309109   6.134629   5.807988   7.017643
    42  H    9.469530   9.635737   5.842142   6.104785   7.507503
    43  H    7.482557   7.443402   4.128330   4.892958   6.308577
    44  H    7.558164   6.201599   8.536330   9.902314  10.350099
    45  H    6.299345   4.936524   8.332327   9.536975   9.642450
    46  H    3.864014   2.546655   6.425675   7.463657   7.366923
    47  H    8.495830   7.555451   7.248022   8.627260   9.654269
    48  H    8.302620   7.095209   8.171981   9.597246  10.356061
                   21         22         23         24         25
    21  C    0.000000
    22  C    4.260203   0.000000
    23  C    5.082232   1.434017   0.000000
    24  C    4.843764   2.459902   1.416139   0.000000
    25  C    3.677916   2.836050   2.453474   1.410815   0.000000
    26  C    5.117110   1.458125   2.555913   3.816867   4.281528
    27  C    7.455152   3.781538   4.409374   5.784393   6.527414
    28  C    6.480679   2.519524   3.049945   4.413292   5.187871
    29  C    6.093407   3.768624   2.465027   1.425062   2.445617
    30  C    7.246284   4.271096   2.837956   2.424132   3.695862
    31  C    7.398513   3.769178   2.440565   2.787734   4.193255
    32  C    6.466559   2.522731   1.425218   2.419375   3.720451
    33  H    6.923621   2.753885   2.752084   4.038819   5.029551
    34  H    8.488314   4.664059   5.066870   6.424256   7.299552
    35  H    4.627158   6.179631   7.552329   8.126415   7.505041
    36  H    2.689416   5.879039   7.049166   7.186097   6.211827
    37  H    1.096005   5.355885   6.155262   5.827071   4.577005
    38  H    2.131704   4.641780   4.877215   4.062180   2.657446
    39  H    4.021318   3.931679   3.442677   2.171652   1.097292
    40  H    6.268853   4.631170   3.445875   2.174606   2.653571
    41  H    8.206071   5.365117   3.932063   3.425610   4.587072
    42  H    8.439881   4.660774   3.433707   3.882053   5.285549
    43  H    6.940506   2.770540   2.183370   3.418275   4.617017
    44  H    9.602991   8.348184   9.587552  10.802985  10.932158
    45  H    8.647261   8.550844   9.916968  10.931377  10.751332
    46  H    6.278022   6.959570   8.361120   9.166499   8.763161
    47  H    9.519415   6.327351   7.066282   8.455072   9.137040
    48  H    9.899351   7.598472   8.626429   9.967479  10.388483
                   26         27         28         29         30
    26  C    0.000000
    27  C    2.439218   0.000000
    28  C    1.413975   1.373847   0.000000
    29  C    5.007403   6.685068   5.338987   0.000000
    30  C    5.250445   6.502336   5.254548   1.365111   0.000000
    31  C    4.423804   5.336272   4.193630   2.400848   1.413773
    32  C    3.065843   4.177456   2.955783   2.782094   2.415113
    33  H    2.175524   2.129663   1.098743   4.726708   4.468860
    34  H    3.430385   1.096175   2.146391   7.159634   6.797364
    35  H    5.873489   7.207649   7.037131   9.540233  10.313967
    36  H    6.164624   8.112280   7.523681   8.532873   9.552016
    37  H    6.177722   8.479899   7.546728   7.008328   8.210846
    38  H    5.891495   8.294622   7.095739   4.967628   6.283746
    39  H    5.372995   7.596705   6.248666   2.661239   4.020961
    40  H    5.950160   7.721363   6.363405   1.096211   2.143711
    41  H    6.316791   7.425807   6.228618   2.145273   1.094621
    42  H    5.090180   5.569245   4.614000   3.384258   2.168405
    43  H    2.767465   3.344366   2.321016   3.879717   3.405201
    44  H    7.074979   6.254600   7.195903  12.049434  12.205151
    45  H    7.556395   7.519040   8.112263  12.287606  12.689767
    46  H    6.294266   7.043759   7.215816  10.568750  11.169548
    47  H    4.890514   2.695019   4.062679   9.355929   9.087622
    48  H    6.168975   4.612831   5.825324  11.056356  10.981247
                   31         32         33         34         35
    31  C    0.000000
    32  C    1.367031   0.000000
    33  H    3.380205   2.328845   0.000000
    34  H    5.559063   4.582077   2.450778   0.000000
    35  H    9.860576   8.567898   7.999406   8.253718   0.000000
    36  H    9.439848   8.308274   8.269623   9.198815   2.491378
    37  H    8.437363   7.542408   8.009562   9.523505   4.763850
    38  H    6.828912   6.244709   7.220923   9.219021   6.751614
    39  H    4.815503   4.587198   6.022320   8.340379   8.238786
    40  H    3.404968   3.878179   5.765868   8.210821  10.093446
    41  H    2.172200   3.397563   5.371680   7.622463  11.395532
    42  H    1.095108   2.140632   3.736937   5.601920  10.665635
    43  H    2.127705   1.098483   1.782846   3.679393   8.429548
    44  H   11.147244   9.836911   8.243110   6.724343   5.935586
    45  H   11.824336  10.468464   9.209579   8.249626   4.292407
    46  H   10.512216   9.167353   8.275345   7.993282   1.807678
    47  H    7.830237   6.750831   4.743634   2.456303   7.997984
    48  H    9.790760   8.579481   6.737071   4.769759   7.194447
                   36         37         38         39         40
    36  H    0.000000
    37  H    2.435116   0.000000
    38  H    4.747921   2.483003   0.000000
    39  H    6.683829   4.735094   2.417100   0.000000
    40  H    8.844687   7.073424   4.806234   2.395933   0.000000
    41  H   10.574880   9.132901   7.079050   4.724015   2.489870
    42  H   10.394124   9.486690   7.915213   5.886272   4.300074
    43  H    8.491759   8.030330   7.007198   5.560419   4.975769
    44  H    8.298500  10.167881  11.440114  11.965955  12.971875
    45  H    6.783408   8.976699  10.683234  11.685600  13.084905
    46  H    4.298196   6.526920   8.365577   9.607888  11.248010
    47  H    9.547493  10.449654  10.676790  10.219424  10.404239
    48  H    9.233423  10.667445  11.439868  11.471353  12.062440
                   41         42         43         44         45
    41  H    0.000000
    42  H    2.484065   0.000000
    43  H    4.292847   2.451937   0.000000
    44  H   13.231000  11.476914   9.070812   0.000000
    45  H   13.764418  12.336440   9.894116   2.484721   0.000000
    46  H   12.259146  11.190221   8.816491   4.315853   2.490358
    47  H    9.955623   7.867390   5.792039   4.763483   6.751548
    48  H   11.932021   9.952222   7.681144   2.447153   4.764715
                   46         47         48
    46  H    0.000000
    47  H    7.211352   0.000000
    48  H    5.936664   2.485028   0.000000
 Stoichiometry    C32H16
 Framework group  C1[X(C32H16)]
 Deg. of freedom   138
 Full point group                 C1      NOp   1
 Largest Abelian subgroup         C1      NOp   1
 Largest concise Abelian subgroup C1      NOp   1
                         Standard orientation:                         
 ---------------------------------------------------------------------
 Center     Atomic      Atomic             Coordinates (Angstroms)
 Number     Number       Type             X           Y           Z
 ---------------------------------------------------------------------
      1          6           0        4.270915   -2.665361   -0.136874
      2          6           0        4.326732   -1.244061    0.066973
      3          6           0        3.131620   -0.494782    0.048977
      4          6           0        1.875151   -1.163565   -0.137867
      5          6           0        1.857919   -2.549645   -0.358749
      6          6           0        3.087934   -3.289604   -0.352229
      7          6           0        3.182422    0.910594    0.209506
      8          6           0        4.412908    1.529381    0.409986
      9          6           0        5.589415    0.780019    0.448626
     10          6           0        5.553254   -0.590922    0.274772
     11          6           0        0.657076   -0.431820   -0.101119
     12          6           0        0.716244    1.002282    0.002824
     13          6           0        1.945803    1.673420    0.136051
     14          6           0       -0.483954    1.741690   -0.091482
     15          6           0       -0.431933    3.150072   -0.099764
     16          6           0        0.799998    3.803974    0.038880
     17          6           0        1.966443    3.075229    0.167122
     18          6           0       -1.748561    1.054516   -0.144107
     19          6           0       -2.936431    1.842087   -0.240517
     20          6           0       -2.840747    3.281021   -0.329862
     21          6           0       -1.649400    3.907147   -0.249994
     22          6           0       -1.819197   -0.346057   -0.074618
     23          6           0       -3.104144   -0.947186    0.135051
     24          6           0       -4.271190   -0.158826   -0.013073
     25          6           0       -4.171197    1.229925   -0.240607
     26          6           0       -0.576729   -1.096151   -0.215198
     27          6           0        0.623832   -3.184356   -0.599695
     28          6           0       -0.549858   -2.473210   -0.535058
     29          6           0       -5.561232   -0.750495    0.115456
     30          6           0       -5.692371   -2.063934    0.463608
     31          6           0       -4.535623   -2.836145    0.717337
     32          6           0       -3.290233   -2.295334    0.558267
     33          1           0       -1.492557   -2.996944   -0.745429
     34          1           0        0.609241   -4.253894   -0.839438
     35          1           0        2.935311    3.584912    0.285902
     36          1           0        0.832696    4.899525    0.045548
     37          1           0       -1.576036    4.999655   -0.297639
     38          1           0       -3.770933    3.848727   -0.449614
     39          1           0       -5.085550    1.821816   -0.373557
     40          1           0       -6.445085   -0.125587   -0.057669
     41          1           0       -6.680053   -2.524432    0.566655
     42          1           0       -4.650769   -3.873222    1.049713
     43          1           0       -2.410294   -2.914077    0.780819
     44          1           0        6.479318   -1.176506    0.295757
     45          1           0        6.546059    1.287001    0.612803
     46          1           0        4.445994    2.623044    0.531554
     47          1           0        3.042027   -4.371507   -0.521412
     48          1           0        5.211418   -3.227933   -0.119732
 ---------------------------------------------------------------------
 Rotational constants (GHZ):      0.2641822      0.1167489      0.0820231
 Leave Link  202 at Sat Jul 27 13:04:16 2019, MaxMem=  4194304000 cpu:         0.1
 (Enter /home/minenky/programs//g09/l301.exe)
 Standard basis: def2TZVP (5D, 7F)
 ======================================================================================================
                                       Pseudopotential Parameters
 ======================================================================================================
  Center     Atomic      Valence      Angular      Power
  Number     Number     Electrons     Momentum     of R      Exponent        Coefficient   SO-Coeffient
 ======================================================================================================
    1          6
                                   No pseudopotential on this center.
    2          6
                                   No pseudopotential on this center.
    3          6
                                   No pseudopotential on this center.
    4          6
                                   No pseudopotential on this center.
    5          6
                                   No pseudopotential on this center.
    6          6
                                   No pseudopotential on this center.
    7          6
                                   No pseudopotential on this center.
    8          6
                                   No pseudopotential on this center.
    9          6
                                   No pseudopotential on this center.
   10          6
                                   No pseudopotential on this center.
   11          6
                                   No pseudopotential on this center.
   12          6
                                   No pseudopotential on this center.
   13          6
                                   No pseudopotential on this center.
   14          6
                                   No pseudopotential on this center.
   15          6
                                   No pseudopotential on this center.
   16          6
                                   No pseudopotential on this center.
   17          6
                                   No pseudopotential on this center.
   18          6
                                   No pseudopotential on this center.
   19          6
                                   No pseudopotential on this center.
   20          6
                                   No pseudopotential on this center.
   21          6
                                   No pseudopotential on this center.
   22          6
                                   No pseudopotential on this center.
   23          6
                                   No pseudopotential on this center.
   24          6
                                   No pseudopotential on this center.
   25          6
                                   No pseudopotential on this center.
   26          6
                                   No pseudopotential on this center.
   27          6
                                   No pseudopotential on this center.
   28          6
                                   No pseudopotential on this center.
   29          6
                                   No pseudopotential on this center.
   30          6
                                   No pseudopotential on this center.
   31          6
                                   No pseudopotential on this center.
   32          6
                                   No pseudopotential on this center.
   33          1
                                   No pseudopotential on this center.
   34          1
                                   No pseudopotential on this center.
   35          1
                                   No pseudopotential on this center.
   36          1
                                   No pseudopotential on this center.
   37          1
                                   No pseudopotential on this center.
   38          1
                                   No pseudopotential on this center.
   39          1
                                   No pseudopotential on this center.
   40          1
                                   No pseudopotential on this center.
   41          1
                                   No pseudopotential on this center.
   42          1
                                   No pseudopotential on this center.
   43          1
                                   No pseudopotential on this center.
   44          1
                                   No pseudopotential on this center.
   45          1
                                   No pseudopotential on this center.
   46          1
                                   No pseudopotential on this center.
   47          1
                                   No pseudopotential on this center.
   48          1
                                   No pseudopotential on this center.
 ======================================================================================================
 Ernie: Thresh=  0.10000D-02 Tol=  0.10000D-05 Strict=F.
 AO basis set (Overlap normalization):
 Atom C1       Shell     1 S   6     bf    1 -     1          8.070859878917         -5.036801596173         -0.258653574364
      0.1357534968D+05  0.6064550360D-03
      0.2035233368D+04  0.4697908888D-02
      0.4632256236D+03  0.2433247765D-01
      0.1312001960D+03  0.9739996831D-01
      0.4285301589D+02  0.3019558425D+00
      0.1558418577D+02  0.6623360914D+00
 Atom C1       Shell     2 S   2     bf    2 -     2          8.070859878917         -5.036801596173         -0.258653574364
      0.6206713851D+01  0.6559530854D+00
      0.2576489653D+01  0.3758563329D+00
 Atom C1       Shell     3 S   1     bf    3 -     3          8.070859878917         -5.036801596173         -0.258653574364
      0.5769633942D+00  0.1000000000D+01
 Atom C1       Shell     4 S   1     bf    4 -     4          8.070859878917         -5.036801596173         -0.258653574364
      0.2297283136D+00  0.1000000000D+01
 Atom C1       Shell     5 S   1     bf    5 -     5          8.070859878917         -5.036801596173         -0.258653574364
      0.9516444003D-01  0.1000000000D+01
 Atom C1       Shell     6 P   4     bf    6 -     8          8.070859878917         -5.036801596173         -0.258653574364
      0.3469723224D+02  0.1132722000D-01
      0.7958262283D+01  0.7616965920D-01
      0.2378082688D+01  0.3019225220D+00
      0.8143320818D+00  0.7278502735D+00
 Atom C1       Shell     7 P   1     bf    9 -    11          8.070859878917         -5.036801596173         -0.258653574364
      0.2888754725D+00  0.1000000000D+01
 Atom C1       Shell     8 P   1     bf   12 -    14          8.070859878917         -5.036801596173         -0.258653574364
      0.1005682367D+00  0.1000000000D+01
 Atom C1       Shell     9 D   1     bf   15 -    19          8.070859878917         -5.036801596173         -0.258653574364
      0.1097000000D+01  0.1000000000D+01
 Atom C1       Shell    10 D   1     bf   20 -    24          8.070859878917         -5.036801596173         -0.258653574364
      0.3180000000D+00  0.1000000000D+01
 Atom C1       Shell    11 F   1     bf   25 -    31          8.070859878917         -5.036801596173         -0.258653574364
      0.7610000000D+00  0.1000000000D+01
 Atom C2       Shell    12 S   6     bf   32 -    32          8.176339422395         -2.350935027148          0.126560843746
      0.1357534968D+05  0.6064550360D-03
      0.2035233368D+04  0.4697908888D-02
      0.4632256236D+03  0.2433247765D-01
      0.1312001960D+03  0.9739996831D-01
      0.4285301589D+02  0.3019558425D+00
      0.1558418577D+02  0.6623360914D+00
 Atom C2       Shell    13 S   2     bf   33 -    33          8.176339422395         -2.350935027148          0.126560843746
      0.6206713851D+01  0.6559530854D+00
      0.2576489653D+01  0.3758563329D+00
 Atom C2       Shell    14 S   1     bf   34 -    34          8.176339422395         -2.350935027148          0.126560843746
      0.5769633942D+00  0.1000000000D+01
 Atom C2       Shell    15 S   1     bf   35 -    35          8.176339422395         -2.350935027148          0.126560843746
      0.2297283136D+00  0.1000000000D+01
 Atom C2       Shell    16 S   1     bf   36 -    36          8.176339422395         -2.350935027148          0.126560843746
      0.9516444003D-01  0.1000000000D+01
 Atom C2       Shell    17 P   4     bf   37 -    39          8.176339422395         -2.350935027148          0.126560843746
      0.3469723224D+02  0.1132722000D-01
      0.7958262283D+01  0.7616965920D-01
      0.2378082688D+01  0.3019225220D+00
      0.8143320818D+00  0.7278502735D+00
 Atom C2       Shell    18 P   1     bf   40 -    42          8.176339422395         -2.350935027148          0.126560843746
      0.2888754725D+00  0.1000000000D+01
 Atom C2       Shell    19 P   1     bf   43 -    45          8.176339422395         -2.350935027148          0.126560843746
      0.1005682367D+00  0.1000000000D+01
 Atom C2       Shell    20 D   1     bf   46 -    50          8.176339422395         -2.350935027148          0.126560843746
      0.1097000000D+01  0.1000000000D+01
 Atom C2       Shell    21 D   1     bf   51 -    55          8.176339422395         -2.350935027148          0.126560843746
      0.3180000000D+00  0.1000000000D+01
 Atom C2       Shell    22 F   1     bf   56 -    62          8.176339422395         -2.350935027148          0.126560843746
      0.7610000000D+00  0.1000000000D+01
 Atom C3       Shell    23 S   6     bf   63 -    63          5.917904880307         -0.935001810421          0.092553574415
      0.1357534968D+05  0.6064550360D-03
      0.2035233368D+04  0.4697908888D-02
      0.4632256236D+03  0.2433247765D-01
      0.1312001960D+03  0.9739996831D-01
      0.4285301589D+02  0.3019558425D+00
      0.1558418577D+02  0.6623360914D+00
 Atom C3       Shell    24 S   2     bf   64 -    64          5.917904880307         -0.935001810421          0.092553574415
      0.6206713851D+01  0.6559530854D+00
      0.2576489653D+01  0.3758563329D+00
 Atom C3       Shell    25 S   1     bf   65 -    65          5.917904880307         -0.935001810421          0.092553574415
      0.5769633942D+00  0.1000000000D+01
 Atom C3       Shell    26 S   1     bf   66 -    66          5.917904880307         -0.935001810421          0.092553574415
      0.2297283136D+00  0.1000000000D+01
 Atom C3       Shell    27 S   1     bf   67 -    67          5.917904880307         -0.935001810421          0.092553574415
      0.9516444003D-01  0.1000000000D+01
 Atom C3       Shell    28 P   4     bf   68 -    70          5.917904880307         -0.935001810421          0.092553574415
      0.3469723224D+02  0.1132722000D-01
      0.7958262283D+01  0.7616965920D-01
      0.2378082688D+01  0.3019225220D+00
      0.8143320818D+00  0.7278502735D+00
 Atom C3       Shell    29 P   1     bf   71 -    73          5.917904880307         -0.935001810421          0.092553574415
      0.2888754725D+00  0.1000000000D+01
 Atom C3       Shell    30 P   1     bf   74 -    76          5.917904880307         -0.935001810421          0.092553574415
      0.1005682367D+00  0.1000000000D+01
 Atom C3       Shell    31 D   1     bf   77 -    81          5.917904880307         -0.935001810421          0.092553574415
      0.1097000000D+01  0.1000000000D+01
 Atom C3       Shell    32 D   1     bf   82 -    86          5.917904880307         -0.935001810421          0.092553574415
      0.3180000000D+00  0.1000000000D+01
 Atom C3       Shell    33 F   1     bf   87 -    93          5.917904880307         -0.935001810421          0.092553574415
      0.7610000000D+00  0.1000000000D+01
 Atom C4       Shell    34 S   6     bf   94 -    94          3.543522183999         -2.198818842980         -0.260531282578
      0.1357534968D+05  0.6064550360D-03
      0.2035233368D+04  0.4697908888D-02
      0.4632256236D+03  0.2433247765D-01
      0.1312001960D+03  0.9739996831D-01
      0.4285301589D+02  0.3019558425D+00
      0.1558418577D+02  0.6623360914D+00
 Atom C4       Shell    35 S   2     bf   95 -    95          3.543522183999         -2.198818842980         -0.260531282578
      0.6206713851D+01  0.6559530854D+00
      0.2576489653D+01  0.3758563329D+00
 Atom C4       Shell    36 S   1     bf   96 -    96          3.543522183999         -2.198818842980         -0.260531282578
      0.5769633942D+00  0.1000000000D+01
 Atom C4       Shell    37 S   1     bf   97 -    97          3.543522183999         -2.198818842980         -0.260531282578
      0.2297283136D+00  0.1000000000D+01
 Atom C4       Shell    38 S   1     bf   98 -    98          3.543522183999         -2.198818842980         -0.260531282578
      0.9516444003D-01  0.1000000000D+01
 Atom C4       Shell    39 P   4     bf   99 -   101          3.543522183999         -2.198818842980         -0.260531282578
      0.3469723224D+02  0.1132722000D-01
      0.7958262283D+01  0.7616965920D-01
      0.2378082688D+01  0.3019225220D+00
      0.8143320818D+00  0.7278502735D+00
 Atom C4       Shell    40 P   1     bf  102 -   104          3.543522183999         -2.198818842980         -0.260531282578
      0.2888754725D+00  0.1000000000D+01
 Atom C4       Shell    41 P   1     bf  105 -   107          3.543522183999         -2.198818842980         -0.260531282578
      0.1005682367D+00  0.1000000000D+01
 Atom C4       Shell    42 D   1     bf  108 -   112          3.543522183999         -2.198818842980         -0.260531282578
      0.1097000000D+01  0.1000000000D+01
 Atom C4       Shell    43 D   1     bf  113 -   117          3.543522183999         -2.198818842980         -0.260531282578
      0.3180000000D+00  0.1000000000D+01
 Atom C4       Shell    44 F   1     bf  118 -   124          3.543522183999         -2.198818842980         -0.260531282578
      0.7610000000D+00  0.1000000000D+01
 Atom C5       Shell    45 S   6     bf  125 -   125          3.510958302428         -4.818131654274         -0.677936610386
      0.1357534968D+05  0.6064550360D-03
      0.2035233368D+04  0.4697908888D-02
      0.4632256236D+03  0.2433247765D-01
      0.1312001960D+03  0.9739996831D-01
      0.4285301589D+02  0.3019558425D+00
      0.1558418577D+02  0.6623360914D+00
 Atom C5       Shell    46 S   2     bf  126 -   126          3.510958302428         -4.818131654274         -0.677936610386
      0.6206713851D+01  0.6559530854D+00
      0.2576489653D+01  0.3758563329D+00
 Atom C5       Shell    47 S   1     bf  127 -   127          3.510958302428         -4.818131654274         -0.677936610386
      0.5769633942D+00  0.1000000000D+01
 Atom C5       Shell    48 S   1     bf  128 -   128          3.510958302428         -4.818131654274         -0.677936610386
      0.2297283136D+00  0.1000000000D+01
 Atom C5       Shell    49 S   1     bf  129 -   129          3.510958302428         -4.818131654274         -0.677936610386
      0.9516444003D-01  0.1000000000D+01
 Atom C5       Shell    50 P   4     bf  130 -   132          3.510958302428         -4.818131654274         -0.677936610386
      0.3469723224D+02  0.1132722000D-01
      0.7958262283D+01  0.7616965920D-01
      0.2378082688D+01  0.3019225220D+00
      0.8143320818D+00  0.7278502735D+00
 Atom C5       Shell    51 P   1     bf  133 -   135          3.510958302428         -4.818131654274         -0.677936610386
      0.2888754725D+00  0.1000000000D+01
 Atom C5       Shell    52 P   1     bf  136 -   138          3.510958302428         -4.818131654274         -0.677936610386
      0.1005682367D+00  0.1000000000D+01
 Atom C5       Shell    53 D   1     bf  139 -   143          3.510958302428         -4.818131654274         -0.677936610386
      0.1097000000D+01  0.1000000000D+01
 Atom C5       Shell    54 D   1     bf  144 -   148          3.510958302428         -4.818131654274         -0.677936610386
      0.3180000000D+00  0.1000000000D+01
 Atom C5       Shell    55 F   1     bf  149 -   155          3.510958302428         -4.818131654274         -0.677936610386
      0.7610000000D+00  0.1000000000D+01
 Atom C6       Shell    56 S   6     bf  156 -   156          5.835349165058         -6.216450241070         -0.665616784785
      0.1357534968D+05  0.6064550360D-03
      0.2035233368D+04  0.4697908888D-02
      0.4632256236D+03  0.2433247765D-01
[...]
 ,-0.00000710,-0.00000975,-0.00000165,0.00000838,0.00000823,0.00000023,
 -0.00001319,-0.00000037,0.00000118,0.00003082,-0.00001293,0.00001018,-
 0.00001353,0.00000837,0.00000051,0.00000180,-0.00000408,-0.00000073,0.
 00000046,0.00001351,0.00000377,0.00006285,0.00017965,-0.00003416,-0.00
 022579,0.00002603,0.00002383,0.00009859,-0.00015952,0.00002156,0.00000
 221,0.00000088,0.00000098,0.00000339,-0.00000214,-0.00000194,-0.000003
 65,-0.00000277,-0.00000110,0.00000203,0.00000187,-0.00000340,-0.000002
 86,-0.00000102,0.00000331,0.00000522,0.00000277,0.00000383,-0.00000024
 ,-0.00002302,-0.00000395,0.00000757,-0.00000409,-0.00000013,0.00000166
 ,0.00000055,0.00000017,-0.00000114,0.00000057,0.00000008,-0.00000009,0
 .00000105,-0.00000086,-0.00000100,0.00000093,0.00000067,-0.00000193,-0
 .00000070,-0.00000010,0.00000018,-0.00000141,0.00000056,0.00000216,0.0
 0000138,0.00000277,0.00029795,0.00071517,-0.00087571,0.11757159,0.1195
 5474,0.00024053,-0.00010913,0.00018964,0.00066546,0.00236889,0.0078093
 9,-0.00034961,-0.00003472,-0.00085391,-0.00007431,-0.00013321,-0.00082
 357,-0.00009764,0.00004237,0.00009791,0.00002485,0.00003095,-0.0004587
 4,0.00054417,0.00054315,0.00712869,0.00073100,0.00059184,0.00224620,0.
 05232327,0.02953155,-0.04980368,0.00483326,0.00138805,0.00185667,0.000
 04593,0.00005044,0.00007386,-0.00003166,-0.00002668,-0.00033125,0.0000
 7866,-0.00003678,0.00020833,-0.00001290,0.00001112,-0.00002494,-0.0000
 1884,-0.00003008,0.00003364,0.00004449,0.00000233,-0.00005003,0.000016
 20,-0.00001390,0.00007446,-0.00000222,-0.00000271,-0.00000622,0.000006
 19,0.00000671,-0.00000042,-0.00000273,-0.00000608,-0.00000344,0.000006
 73,0.00000401,-0.00000132,-0.00001118,0.00000221,-0.00000771,0.0000069
 6,-0.00000039,0.00000056,-0.00000038,0.00000296,-0.00000033,-0.0000019
 9,-0.00000639,0.00000017,-0.00001881,-0.00003681,0.00006404,0.00007909
 ,0.00000778,0.00004407,-0.00002560,0.00004838,-0.00001372,-0.00000123,
 -0.00000031,-0.00000112,-0.00000161,0.00000114,0.00000031,0.00000168,0
 .00000118,-0.00000046,-0.00000088,-0.00000129,-0.00000029,0.00000135,0
 .00000089,0.00000070,-0.00000044,-0.00000369,-0.00000491,0.00002474,0.
 00000783,0.00003472,0.00000201,-0.00000332,0.00000703,0.00000038,-0.00
 000170,0.00000248,0.00000115,-0.00000017,0.00000085,0.00000061,-0.0000
 0053,0.00000143,0.00000058,-0.00000072,0.00000050,0.00000077,0.0000002
 2,0.00000058,-0.00000042,-0.00000005,0.00000056,-0.00000096,-0.0000007
 5,0.00000003,-0.00069651,-0.00077059,-0.00392480,-0.05775252,-0.032673
 47,0.03995853,0.00024754,0.00027042,-0.00023473,-0.00120594,-0.0002491
 6,0.00004672,-0.00498822,-0.00129939,0.00208594,0.00081264,-0.00131035
 ,0.00008497,-0.00023557,-0.00012616,-0.00003697,-0.00027560,0.00001802
 ,0.00004891,0.00463824,-0.02758672,0.00410169,-0.05976498,-0.01931914,
 0.00660941,0.00540992,0.02776278,-0.00481207,-0.00402286,0.00284534,0.
 00128634,0.00001141,-0.00006448,0.00002013,-0.00005193,0.00000736,-0.0
 0007659,0.00101565,0.00038762,-0.00063032,0.00014290,-0.00004054,-0.00
 000776,0.00014140,0.00000893,-0.00001823,0.00016298,0.00053007,-0.0001
 3785,-0.00174049,-0.00075347,0.00020607,-0.00006820,-0.00000046,0.0000
 1400,0.00000586,-0.00003115,-0.00000251,0.00004827,-0.00000288,-0.0000
 0932,0.00000441,0.00010637,0.00003097,0.00007371,-0.00001072,-0.000007
 22,-0.00004269,0.00001174,-0.00001654,0.00001818,-0.00001660,0.0000001
 1,-0.00000254,0.00004433,0.00000714,0.00010182,0.00018989,-0.00000090,
 -0.00011987,-0.00010342,0.00004436,0.00003828,-0.00015953,0.00001732,-
 0.00001483,0.00001265,0.00000633,0.00001692,0.00000740,0.00000196,0.00
 000098,0.00000661,-0.00000017,0.00001999,-0.00000902,-0.00000916,0.000
 00202,-0.00000085,0.00000231,-0.00004563,-0.00002456,0.00000667,-0.001
 83022,0.00206133,0.00123978,-0.00001758,-0.00000904,0.00000997,-0.0000
 0635,-0.00000301,0.00000186,0.00001508,0.00000577,-0.00000307,0.000004
 43,-0.00000090,-0.00000269,0.00000219,-0.00000218,-0.00000061,0.000001
 90,0.00000211,0.00000100,0.00000188,0.00000393,0.00000251,-0.00000027,
 0.00000508,0.00000769,0.00004459,0.00124769,-0.00026362,0.00074055,-0.
 00039206,-0.00060711,0.06069197,-0.00000925,-0.00008346,-0.00013213,0.
 00007029,0.00061056,-0.00029836,-0.00211386,0.00118544,0.00129336,0.00
 040765,-0.00051044,0.00004098,-0.00034133,-0.00001799,-0.00000655,0.00
 001575,0.00002430,0.00001149,-0.00027751,-0.01009892,0.00210434,-0.018
 86082,-0.33265745,0.05243646,-0.00376338,-0.01332566,0.00312218,0.0035
 6431,0.00028289,0.00065219,0.00012524,0.00001353,-0.00000716,-0.000353
 92,0.00000186,0.00000144,0.00107348,-0.00152300,-0.00071640,0.00003510
 ,-0.00011135,0.00000917,0.00011053,-0.00002979,0.00000950,0.00018183,0
 .00047412,-0.00009593,0.00155110,-0.00046925,-0.00051513,-0.00005262,0
 .00003490,0.00000762,0.00000231,-0.00002249,0.00000144,0.00000575,-0.0
 0000810,-0.00000235,0.00002967,0.00004200,0.00001964,0.00005780,-0.000
 01876,0.00000686,-0.00002474,0.00000927,-0.00000794,0.00000269,-0.0000
 0570,-0.00000055,-0.00000962,0.00002082,0.00000211,-0.00004513,-0.0000
 4064,0.00004286,0.00010415,-0.00003076,0.00000906,-0.00009821,0.000029
 32,-0.00001114,-0.00000474,0.00000309,0.00000209,0.00000520,0.00000021
 ,0.00000046,-0.00000518,0.00000221,-0.00000037,0.00000553,-0.00000186,
 -0.00001269,-0.00000174,-0.00000176,0.00000070,-0.00002426,-0.00002286
 ,-0.00000736,0.00257221,0.00014423,-0.00065987,-0.00000746,-0.00000726
 ,-0.00001044,-0.00000531,0.00000344,0.00000191,0.00000311,0.00000425,-
 0.00000262,-0.00000258,0.00000067,-0.00000139,-0.00000142,0.00000073,0
 .00000062,-0.00000227,-0.00000024,0.00000058,0.00000079,-0.00000053,0.
 00000059,0.00000300,0.00000701,0.00001001,-0.00018020,-0.00072996,0.00
 018833,0.00018091,0.00077776,-0.00078293,0.01606670,0.35605425,-0.0001
 8922,-0.00028018,-0.00087477,0.00035315,-0.00018900,-0.00109874,0.0021
 0734,0.00135629,0.00689742,-0.00026408,0.00035635,0.00015973,0.0000135
 6,0.00004622,-0.00027075,0.00014923,-0.00002018,0.00012576,-0.00175660
 ,0.00562707,0.00240720,0.00778335,0.05277805,-0.04661766,-0.00000947,-
 0.00121492,0.00344211,0.00102823,0.00042993,0.00704648,0.00003861,0.00
 010522,0.00002861,-0.00024369,-0.00013515,-0.00011193,-0.00051666,-0.0
 0077633,-0.00329152,0.00000372,-0.00012509,0.00017741,0.00004140,0.000
 13726,-0.00008122,-0.00043347,-0.00022076,-0.00028700,0.00070098,0.000
 48726,-0.00015744,0.00005347,0.00000375,-0.00001176,-0.00002535,-0.000
 02104,0.00002718,0.00000588,0.00002590,0.00000270,-0.00003835,-0.00002
 720,0.00010065,0.00003086,-0.00002129,-0.00000535,-0.00002348,-0.00002
 344,0.00000277,-0.00000697,-0.00003612,-0.00000038,0.00002920,0.000021
 31,0.00000141,-0.00011611,-0.00005762,0.00001583,0.00006228,0.00005075
 ,-0.00001338,-0.00003372,0.00007330,0.00002592,0.00001511,0.00001087,-
 0.00000058,0.00000224,-0.00001751,-0.00000592,-0.00001856,0.00000117,-
 0.00000026,0.00000253,0.00002041,0.00000401,0.00000016,0.00000054,0.00
 000057,0.00000932,-0.00001712,-0.00009178,0.00095270,-0.00090091,0.001
 08771,0.00002727,-0.00000589,0.00003117,0.00000564,-0.00000415,0.00000
 508,-0.00000598,-0.00000072,-0.00001711,-0.00000058,0.00000153,-0.0000
 0696,-0.00000006,0.00000010,0.00000052,0.00000048,-0.00000066,0.000000
 49,-0.00000116,-0.00000138,0.00000072,-0.00000107,-0.00000273,-0.00000
 088,0.00001572,-0.00009929,0.00004610,-0.00071493,-0.00065259,-0.00358
 172,-0.00904409,-0.05673069,0.03475875,0.00369667,-0.02933260,0.005491
 56,-0.00475992,-0.00107197,0.00205842,-0.00076431,-0.00032028,0.000053
 83,-0.00464929,0.00168509,0.00054425,0.00434756,0.02630587,-0.00506778
 ,-0.05933742,-0.00791681,0.00416167,0.00020648,0.00020799,-0.00014604,
 -0.00022856,0.00005544,0.00003146,-0.00030289,-0.00034131,0.00000411,0
 .00072374,-0.00103023,0.00007025,0.00054396,0.00127204,-0.00022607,-0.
 00042188,0.00003376,-0.00001328,-0.00003029,-0.00005384,0.00001498,0.0
 0004304,0.00012313,-0.00000916,-0.00004645,-0.00000663,0.00001256,0.00
 001693,0.00000477,-0.00000540,0.00002633,0.00000495,-0.00000320,0.0000
 0359,0.00001891,-0.00000894,0.00001471,-0.00001846,-0.00000713,0.00000
 085,-0.00000811,-0.00000082,0.00001062,0.00001947,0.00000187,-0.000001
 33,-0.00009175,0.00003935,0.00000113,0.00002070,-0.00000004,-0.0000035
 8,0.00000894,-0.00000206,-0.00001998,0.00000434,0.00000160,0.00011933,
 0.00009642,-0.00001563,0.00147369,0.00139079,-0.00084637,0.00007594,-0
 .00036639,0.00005682,0.00000335,-0.00000317,-0.00000038,-0.00000374,-0
 .00000217,-0.00000007,0.00000059,-0.00000995,0.00000073,-0.00000794,0.
 00000645,0.00001600,-0.00001433,-0.00000002,0.00001812,-0.00050997,-0.
 00078275,0.00033054,-0.00000020,0.00001629,0.00000278,0.00000293,-0.00
 000100,-0.00000064,-0.00000387,0.00000241,0.00000071,0.00000006,0.0000
 0033,0.00000024,-0.00000025,-0.00000141,0.00000003,0.00000001,-0.00000
 114,-0.00000003,0.00000088,-0.00000011,-0.00000104,-0.00000423,-0.0000
 0106,-0.00000298,0.00000246,0.00000366,-0.00001203,-0.00003374,0.00003
 671,0.00002451,-0.00000686,-0.00013955,0.00002535,0.00000954,-0.000004
 33,0.00001198,0.05911209,0.00215163,-0.00991151,0.00229574,-0.00216512
 ,0.00155779,0.00198947,0.00016037,0.00049444,-0.00025554,0.00299177,0.
 00046215,0.00048693,-0.00325298,-0.01298306,0.00332577,-0.00868484,-0.
 32827386,0.05611588,0.00000158,-0.00005683,-0.00015055,0.00002042,0.00
 005704,0.00001122,-0.00032926,-0.00008051,-0.00009322,0.00034330,-0.00
 060649,0.00007855,-0.00071195,-0.00065739,0.00014435,0.00029840,-0.000
 02830,-0.00000211,-0.00003771,0.00004707,0.00001953,-0.00006467,-0.000
 10987,0.00000528,0.00004314,0.00000491,-0.00001045,-0.00002337,0.00000
 328,0.00000086,0.00002064,-0.00004103,-0.00000228,0.00003871,-0.000001
 62,0.00000620,-0.00001009,0.00001698,0.00000928,0.00001268,-0.00000249
 ,-0.00000399,-0.00001957,0.00001197,0.00000266,0.00001795,0.00004700,-
 0.00003869,-0.00001777,-0.00004190,0.00000236,0.00000241,-0.00003805,0
 .00000244,0.00003759,0.00000502,-0.00000559,-0.00000521,0.00029160,-0.
 00006851,-0.00170774,0.00090340,-0.00038242,0.00038285,-0.00000503,-0.
 00001154,0.00000131,0.00001700,0.00000155,0.00000746,-0.00000470,-0.00
 000484,-0.00000851,0.00001635,0.00000158,0.00002416,0.00000572,0.00000
 398,0.00004381,-0.00001848,0.00001362,0.00086282,0.00037848,-0.0002049
 6,-0.00000503,-0.00000463,0.00000077,0.00000161,-0.00000903,0.00000009
 ,0.00000290,-0.00000881,0.00000015,0.00000543,-0.00000095,0.00000080,0
 .00000371,-0.00000044,0.00000067,0.00000294,-0.00000189,-0.00000077,0.
 00000535,0.00000163,0.00000169,0.00000388,0.00000432,0.00000551,-0.000
 00526,-0.00001133,-0.00000086,-0.00002728,0.00002070,0.00004396,-0.000
 00096,-0.00006841,0.00000594,-0.00000375,-0.00001758,0.00002461,0.0100
 7222,0.34799103,-0.00050898,0.00613707,0.00307576,0.00241992,0.0017011
 3,0.00981082,0.00003499,-0.00015887,-0.00078931,0.00023852,0.00036378,
 0.00389437,-0.00001833,0.00025709,0.00260091,0.00477421,0.05576275,-0.
 04828883,-0.00016306,-0.00019010,-0.00070147,0.00010402,-0.00002323,0.
 00011505,-0.00000472,0.00000751,-0.00078603,-0.00023670,0.00018366,0.0
 0006482,0.00017527,-0.00007091,0.00008996,-0.00000455,0.00002087,0.000
 03370,0.00001074,0.00001278,0.00004928,0.00002074,0.00001300,-0.000013
 34,-0.00000394,-0.00000632,-0.00000825,0.00000576,-0.00000147,-0.00000
 778,-0.00000657,0.00000754,-0.00000278,-0.00002108,-0.00001546,0.00000
 085,0.00000228,-0.00000059,-0.00000600,-0.00000317,0.00000291,-0.00000
 048,0.00000213,-0.00000614,-0.00000077,-0.00003021,0.00002862,0.000033
 71,0.00002508,0.00001138,0.00000082,-0.00000103,0.00001469,-0.00000466
 ,-0.00000715,-0.00000661,0.00000017,-0.00005350,-0.00014966,0.00004692
 ,-0.00000720,-0.00089577,-0.00190178,-0.00019616,0.00016237,-0.0001890
 8,0.00000029,-0.00000697,-0.00000181,-0.00000433,0.00000206,-0.0000000
 3,0.00000741,-0.00000241,-0.00000242,-0.00001788,0.00000196,-0.0000022
 3,-0.00000257,0.00003388,0.00008703,-0.00005973,0.00014414,0.00018620,
 0.00000134,-0.00000077,0.00000319,-0.00000028,0.00000142,0.00000099,0.
 00000006,0.00000088,0.00000309,-0.00000056,-0.00000010,0.00000056,-0.0
 0000006,-0.00000072,0.00000172,-0.00000001,-0.00000073,0.00000113,-0.0
 0000067,-0.00000051,0.00000105,-0.00000427,-0.00000273,0.00000038,0.00
 000526,0.00000352,0.00000886,0.00004235,0.00002894,0.00021833,-0.00000
 526,0.00003276,-0.00003126,0.00001715,0.00002167,0.00009693,-0.0058122
 2,-0.06221603,0.03777571,-0.26093387,0.12592853,0.00452115,0.00294149,
 -0.00232836,0.00040168,0.00092405,-0.00066726,0.00050133,0.00010016,-0
 .00039566,-0.00004661,-0.00238067,-0.00381848,0.00235683,-0.01900186,0
 .01731043,-0.00039554,-0.00009121,-0.00037172,0.00006758,0.00033187,-0
 .00005882,-0.00003702,-0.00000347,0.00042502,-0.00008620,0.00105961,-0
 .00153305,-0.00010828,0.00012737,0.00004038,-0.00013776,-0.00003488,-0
 .00002058,0.00001315,0.00002677,-0.00001275,-0.00000153,0.00001612,0.0
 0004105,0.00000088,-0.00000333,-0.00000761,0.00000067,0.00000920,0.000
 01540,-0.00000552,-0.00001035,-0.00000024,-0.00000199,-0.00001627,0.00
 000956,-0.00000547,0.00000455,-0.00000396,-0.00000201,-0.00000929,0.00
 000253,0.00000237,0.00000809,-0.00001130,-0.00000101,0.00001899,-0.000
 00092,0.00000923,0.00000470,0.00001354,0.00000358,-0.00000170,0.000011
 26,-0.00000256,-0.00001099,-0.00000324,0.00000116,0.00002417,-0.000141
 05,0.00007081,-0.00053914,0.00118894,-0.00022241,-0.00045212,-0.000262
 25,0.00003839,-0.00000457,-0.00000802,-0.00000080,-0.00000443,0.000002
 88,0.00000296,0.00000311,0.00000340,-0.00000100,-0.00001150,-0.0000104
 9,-0.00002618,-0.00010364,0.00007157,-0.00001583,-0.00000103,-0.000047
 61,0.00002903,0.00000878,-0.00000038,0.00000070,-0.00000210,0.00000632
 ,0.00000107,-0.00000030,0.00000585,0.00000038,-0.00000465,0.00000142,0
 .00000020,-0.00000384,0.00000174,0.00000024,-0.00000291,0.00000227,0.0
 0000085,-0.00000569,-0.00000090,0.00000019,-0.00000069,-0.00000358,-0.
 00000164,0.00000373,0.00001117,0.00001666,0.00013880,0.00037169,-0.000
 05330,0.00000577,0.00004436,0.00000414,0.00000852,0.00001477,-0.000000
 81,0.00071456,-0.00047995,-0.00071334,0.27715413,0.12673502,-0.1368080
 5,0.00274024,0.02715363,-0.01183446,-0.00061931,-0.00209357,-0.0048260
 6,0.00180306,-0.00080790,-0.00031445,-0.00000810,-0.00270711,-0.000702
 42,0.00237230,-0.01422621,0.01163980,0.00035672,0.00164973,-0.00014530
 ,-0.00019040,-0.00005172,0.00005308,-0.00000541,-0.00032684,0.00006781
 ,-0.00001318,0.00171370,0.00123951,-0.00080530,0.00021113,-0.00000782,
 -0.00018847,-0.00003323,0.00004638,0.00001383,-0.00027441,-0.00039418,
 0.00008671,0.00001141,0.00001622,0.00000122,0.00000359,0.00000125,-0.0
 0000091,-0.00002017,-0.00004944,-0.00001167,0.00017691,-0.00002865,-0.
 00002563,-0.00002887,-0.00001831,-0.00000103,0.00000695,-0.00000834,-0
 .00000466,0.00001163,-0.00001166,-0.00000262,0.00000058,0.00001519,0.0
 0000310,0.00000900,0.00003175,0.00002616,0.00001141,0.00000729,-0.0000
 0381,0.00000619,0.00001871,0.00000077,-0.00001426,0.00000046,0.0000008
 4,-0.00002512,-0.00016435,0.00006742,-0.00023429,0.00058881,-0.0000896
 3,-0.00024157,0.00001200,-0.00010061,-0.00000865,-0.00000656,-0.000000
 42,0.00000068,0.00000946,0.00000520,0.00001108,-0.00000130,-0.00000195
 ,-0.00000725,-0.00001160,-0.00000939,-0.00006150,0.00003374,-0.0000100
 9,0.00001464,-0.00000752,0.00003213,-0.00001028,0.00000778,0.00000705,
 0.00001607,-0.00001229,-0.00000117,0.00000047,-0.00000144,-0.00000005,
 0.00000195,0.00000102,0.00000005,0.00000130,-0.00000065,0.00000023,0.0
 0000068,-0.00000032,0.00000010,-0.00000035,0.00000047,0.00000029,0.000
 00017,0.00000088,-0.00000095,-0.00000127,0.00000210,0.00000253,-0.0012
 5956,-0.00024639,0.00025935,-0.00000964,-0.00002772,0.00002644,-0.0000
 8258,0.00000893,0.00002408,0.00011433,0.00064629,-0.00120228,-0.135335
 91,0.14118033,0.00449846,0.00322187,-0.03818097,-0.00484310,0.00244876
 ,0.00281174,0.00045318,0.00155383,0.00365621,0.00018757,0.00014168,-0.
 00089751,0.00204872,0.00262275,0.00956612,0.00524910,-0.00364628,0.004
 25819,-0.00027133,0.00009199,0.00004966,-0.00008129,-0.00000593,0.0000
 0141,0.00006255,-0.00014009,-0.00016237,-0.00068999,-0.00033847,-0.001
 91650,-0.00010081,-0.00012015,-0.00074861,0.00000112,-0.00002976,0.000
 04212,0.00006403,0.00013088,0.00007678,-0.00001340,-0.00002030,0.00002
 469,0.00000484,0.00001179,0.00000476,-0.00001799,0.00001414,-0.0000410
 3,-0.00003215,-0.00000939,-0.00001446,0.00001634,0.00003486,-0.0000107
 7,0.00000861,0.00000025,-0.00000962,-0.00000247,0.00000167,-0.00000032
 ,0.00000216,-0.00000311,0.00000535,0.00003246,-0.00001407,0.00009137,0
 .00001162,-0.00002385,0.00001374,-0.00000588,0.00001016,-0.00000204,0.
 00000350,-0.00000756,-0.00000156,0.00003460,0.00013981,0.00008012,0.00
 000326,-0.00019995,0.00015130,0.00004247,-0.00027214,-0.00065534,-0.00
 000386,-0.00000734,-0.00000256,-0.00000087,0.00000463,0.00000352,0.000
 00639,-0.00000133,-0.00000550,-0.00002339,-0.00000881,-0.00001768,0.00
 002123,-0.00001729,-0.00001116,0.00002330,0.00006611,0.00017423,0.0000
 0256,-0.00000301,0.00002307,-0.00000293,0.00000199,0.00000336,0.000000
 06,-0.00000058,0.00000083,0.00000026,-0.00000059,0.00000062,0.00000044
 ,-0.00000117,0.00000176,0.00000112,-0.00000057,0.00000060,0.00000031,0
 .00000001,0.00000096,-0.00000074,-0.00000019,0.00000016,-0.00000556,-0
 .00000173,0.00000243,0.00025095,0.00004032,0.00019012,0.00001513,0.000
 01363,0.00008851,0.00002022,0.00000435,0.00003387,-0.00079241,-0.00114
 905,-0.00546401,-0.00617838,-0.00453278,0.02678440\\-0.00000005,0.0000
 0020,-0.00000045,-0.00000010,0.00000035,-0.00000030,0.00000011,0.00000
 005,-0.00000015,0.00000008,0.00000029,-0.00000025,0.,-0.00000049,-0.00
 000056,0.00000057,0.00000028,-0.00000073,0.00000058,0.00000049,0.00000
 023,-0.00000097,0.00000070,0.00000044,0.00000025,0.00000005,0.00000012
 ,0.00000025,0.00000103,-0.00000008,0.00000036,-0.00000018,-0.00000014,
 0.00000028,0.00000043,0.00000011,-0.00000067,0.00000010,0.00000046,0.0
 0000014,0.00000026,0.00000035,-0.00000053,-0.00000039,0.00000070,0.000
 00002,0.00000019,0.00000079,-0.00000014,0.00000030,0.00000065,-0.00000
 056,0.00000042,0.00000014,-0.00000003,-0.00000037,0.00000035,0.0000001
 0,0.00000018,0.00000070,-0.00000080,-0.00000039,0.00000084,-0.00000120
 ,-0.00000014,0.00000041,0.00000122,-0.00000031,0.00000024,-0.00000030,
 0.00000064,-0.00000026,0.00000012,-0.00000127,0.00000031,0.00000030,-0
 .00000041,-0.00000028,0.00000079,0.00000017,-0.00000056,-0.00000005,-0
 .00000046,-0.00000049,-0.00000050,-0.00000154,-0.00000043,0.00000003,0
 .00000034,-0.00000004,0.00000037,-0.00000002,-0.00000058,-0.00000006,-
 0.00000056,-0.00000100,0.00000013,-0.00000013,-0.00000066,0.00000029,-
 0.00000013,-0.00000087,-0.00000054,0.00000024,0.00000081,-0.00000038,-
 0.00000009,0.00000102,-0.00000023,-0.00000031,0.00000108,-0.00000035,-
 0.00000058,0.00000075,-0.00000013,-0.00000045,0.00000027,0.00000027,-0
 .00000034,-0.00000003,0.00000039,-0.00000052,-0.00000056,0.00000043,-0
 .00000009,-0.00000086,0.00000034,0.00000006,-0.00000048,0.,0.00000062,
 -0.00000022,-0.00000022,0.00000075,0.00000033,-0.00000010,0.00000028,0
 .00000054,0.00000030,0.00000021,-0.00000100,0.00000023,0.00000051,-0.0
 0000068\\\@


 LORD, MAN... WERE YE BUT WHYLES WHERE I AM, 
 THE GENTILES YE WAD NE'ER ENVY 'EM.        
 IT'S TRUE, THEY NEEDNA STARVE OR SWEAT,     
 THRO' WINTER'S CAULD OR SIMMER'S HEAT...  
 THEY'VE NAE SAIR WARK TO CRAZE THEIR BANES, 
 AND FILL AULD AGE WITH GRIPS AN' GRANES...  
                                             
 BUT HUMAN BODIES ARE SIC FOOLS              
 FOR A' THEIR COLLEGES AND SCHOOLS,           
 THAT WHEN NAE REAL ILLS PERPLEX THEM,       
 THEY MAK ENOW THEMSELVES TO VEX THEM,       
 AN' AYE THE LESS THEY HAE TO STURT THEM,    
 IN LIKE PROPORTION LESS WILL HURT THEM....  
                                             
                (ROBERT BURNS 'THE TWA DOGS')
 Job cpu time:       7 days 19 hours 18 minutes 19.5 seconds.
 File lengths (MBytes):  RWF=   4421 Int=      0 D2E=      0 Chk=     90 Scr=      1
 Normal termination of Gaussian 09 at Sun Jul 28 08:21:07 2019.
