 Entering Gaussian System, Link 0=g09
 Initial command:
 /home/minenky/programs//g09/l1.exe "/local/scratch/minenky/m1_00_503-17-30_C4H6_wB97XD/Gau-110360.inp" -scrdir="/local/scratch/minenky/m1_00_503-17-30_C4H6_wB97XD/"
 Entering Link 1 = /home/minenky/programs//g09/l1.exe PID=    110362.
  
 Copyright (c) 1988,1990,1992,1993,1995,1998,2003,2009,2013,
            Gaussian, Inc.  All Rights Reserved.
  
 This is part of the Gaussian(R) 09 program.  It is based on
 the Gaussian(R) 03 system (copyright 2003, Gaussian, Inc.),
 the Gaussian(R) 98 system (copyright 1998, Gaussian, Inc.),
 the Gaussian(R) 94 system (copyright 1995, Gaussian, Inc.),
 the Gaussian 92(TM) system (copyright 1992, Gaussian, Inc.),
 the Gaussian 90(TM) system (copyright 1990, Gaussian, Inc.),
 the Gaussian 88(TM) system (copyright 1988, Gaussian, Inc.),
 the Gaussian 86(TM) system (copyright 1986, Carnegie Mellon
 University), and the Gaussian 82(TM) system (copyright 1983,
 Carnegie Mellon University). Gaussian is a federally registered
 trademark of Gaussian, Inc.
  
 This software contains proprietary and confidential information,
 including trade secrets, belonging to Gaussian, Inc.
  
 This software is provided under written license and may be
 used, copied, transmitted, or stored only in accord with that
 written license.
  
 The following legend is applicable only to US Government
 contracts under FAR:
  
                    RESTRICTED RIGHTS LEGEND
  
 Use, reproduction and disclosure by the US Government is
 subject to restrictions as set forth in subparagraphs (a)
 and (c) of the Commercial Computer Software - Restricted
 Rights clause in FAR 52.227-19.
  
 Gaussian, Inc.
 340 Quinnipiac St., Bldg. 40, Wallingford CT 06492
  
  
 ---------------------------------------------------------------
 Warning -- This program may not be used in any manner that
 competes with the business of Gaussian, Inc. or will provide
 assistance to any competitor of Gaussian, Inc.  The licensee
 of this program is prohibited from giving any competitor of
 Gaussian, Inc. access to this program.  By using this program,
 the user acknowledges that Gaussian, Inc. is engaged in the
 business of creating and licensing software in the field of
 computational chemistry and represents and warrants to the
 licensee that it is not a competitor of Gaussian, Inc. and that
 it will not use this program in any manner prohibited above.
 ---------------------------------------------------------------
  

 Cite this work as:
 Gaussian 09, Revision D.01,
 M. J. Frisch, G. W. Trucks, H. B. Schlegel, G. E. Scuseria, 
 M. A. Robb, J. R. Cheeseman, G. Scalmani, V. Barone, B. Mennucci, 
 G. A. Petersson, H. Nakatsuji, M. Caricato, X. Li, H. P. Hratchian, 
 A. F. Izmaylov, J. Bloino, G. Zheng, J. L. Sonnenberg, M. Hada, 
 M. Ehara, K. Toyota, R. Fukuda, J. Hasegawa, M. Ishida, T. Nakajima, 
 Y. Honda, O. Kitao, H. Nakai, T. Vreven, J. A. Montgomery, Jr., 
 J. E. Peralta, F. Ogliaro, M. Bearpark, J. J. Heyd, E. Brothers, 
 K. N. Kudin, V. N. Staroverov, T. Keith, R. Kobayashi, J. Normand, 
 K. Raghavachari, A. Rendell, J. C. Burant, S. S. Iyengar, J. Tomasi, 
 M. Cossi, N. Rega, J. M. Millam, M. Klene, J. E. Knox, J. B. Cross, 
 V. Bakken, C. Adamo, J. Jaramillo, R. Gomperts, R. E. Stratmann, 
 O. Yazyev, A. J. Austin, R. Cammi, C. Pomelli, J. W. Ochterski, 
 R. L. Martin, K. Morokuma, V. G. Zakrzewski, G. A. Voth, 
 P. Salvador, J. J. Dannenberg, S. Dapprich, A. D. Daniels, 
 O. Farkas, J. B. Foresman, J. V. Ortiz, J. Cioslowski, 
 and D. J. Fox, Gaussian, Inc., Wallingford CT, 2013.
 
 ******************************************
 Gaussian 09:  AM64L-G09RevD.01 24-Apr-2013
                 9-Jul-2021 
 ******************************************
 %Mem=32000MB
 %NProcShared=16
 Will use up to   16 processors via shared memory.
 %Chk=m1_00_503-17-30_C4H6_wB97XD
 ----------------------------------------------------------------------
 #P wB97XD/def2tzvp opt=(tight) freq integral(Grid=ultrafine) # SCF(Max
 Cycle=380) 5d 7f GFPrint
 ----------------------------------------------------------------------
 1/7=10,14=-1,18=20,19=15,26=4,38=1/1,3;
 2/9=110,12=2,17=6,18=5,40=1/2;
 3/5=44,7=101,8=11,11=2,16=1,24=100,25=1,30=1,71=1,74=-58,75=-5/1,2,3;
 4//1;
 5/5=2,7=380,38=5/2;
 6/7=2,8=2,9=2,10=2,28=1/1;
 7//1,2,3,16;
 1/7=10,14=-1,18=20,19=15,26=4/3(2);
 2/9=110/2;
 99//99;
 2/9=110/2;
 3/5=44,7=101,8=11,11=2,16=1,25=1,30=1,71=1,74=-58,75=-5/1,2,3;
 4/5=5,16=3,69=1/1;
 5/5=2,7=380,38=5/2;
 7//1,2,3,16;
 1/7=10,14=-1,18=20,19=15,26=4/3(-5);
 2/9=110/2;
 6/7=2,8=2,9=2,10=2,19=2,28=1/1;
 99/9=1/99;
 Leave Link    1 at Fri Jul  9 19:19:35 2021, MaxMem=  4194304000 cpu:         1.2
 (Enter /home/minenky/programs//g09/l101.exe)
 ---------------------------------------
 The PBEPBE optimization and frequencies
 ---------------------------------------
 Symbolic Z-matrix:
 Charge =  0 Multiplicity = 1
 C                     0.        0.        0.60063 
 C                     0.        0.       -0.60063 
 C                     0.        0.       -2.0565 
 H                     0.        1.01889  -2.45038 
 H                    -0.88238  -0.50944  -2.45038 
 H                     0.88238  -0.50944  -2.45038 
 C                     0.        0.        2.0565 
 H                     0.        1.01889   2.45038 
 H                     0.88238  -0.50944   2.45038 
 H                    -0.88238  -0.50944   2.45038 
 
 NAtoms=     10 NQM=       10 NQMF=       0 NMMI=      0 NMMIF=      0
                NMic=       0 NMicF=      0.
                    Isotopes and Nuclear Properties:
 (Nuclear quadrupole moments (NQMom) in fm**2, nuclear magnetic moments (NMagM)
  in nuclear magnetons)

  Atom         1           2           3           4           5           6           7           8           9          10
 IAtWgt=          12          12          12           1           1           1          12           1           1           1
 AtmWgt=  12.0000000  12.0000000  12.0000000   1.0078250   1.0078250   1.0078250  12.0000000   1.0078250   1.0078250   1.0078250
 NucSpn=           0           0           0           1           1           1           0           1           1           1
 AtZEff=   0.0000000   0.0000000   0.0000000   0.0000000   0.0000000   0.0000000   0.0000000   0.0000000   0.0000000   0.0000000
 NQMom=    0.0000000   0.0000000   0.0000000   0.0000000   0.0000000   0.0000000   0.0000000   0.0000000   0.0000000   0.0000000
 NMagM=    0.0000000   0.0000000   0.0000000   2.7928460   2.7928460   2.7928460   0.0000000   2.7928460   2.7928460   2.7928460
 AtZNuc=   6.0000000   6.0000000   6.0000000   1.0000000   1.0000000   1.0000000   6.0000000   1.0000000   1.0000000   1.0000000
 Leave Link  101 at Fri Jul  9 19:19:36 2021, MaxMem=  4194304000 cpu:         0.9
 (Enter /home/minenky/programs//g09/l103.exe)

 GradGradGradGradGradGradGradGradGradGradGradGradGradGradGradGradGradGrad
 Berny optimization.
 Initialization pass.
                           ----------------------------
                           !    Initial Parameters    !
                           ! (Angstroms and Degrees)  !
 --------------------------                            --------------------------
 ! Name  Definition              Value          Derivative Info.                !
 --------------------------------------------------------------------------------
 ! R1    R(1,2)                  1.2013         estimate D2E/DX2                !
 ! R2    R(1,7)                  1.4559         estimate D2E/DX2                !
 ! R3    R(2,3)                  1.4559         estimate D2E/DX2                !
 ! R4    R(3,4)                  1.0924         estimate D2E/DX2                !
 ! R5    R(3,5)                  1.0924         estimate D2E/DX2                !
 ! R6    R(3,6)                  1.0924         estimate D2E/DX2                !
 ! R7    R(7,8)                  1.0924         estimate D2E/DX2                !
 ! R8    R(7,9)                  1.0924         estimate D2E/DX2                !
 ! R9    R(7,10)                 1.0924         estimate D2E/DX2                !
 ! A1    A(2,3,4)              111.1356         estimate D2E/DX2                !
 ! A2    A(2,3,5)              111.1356         estimate D2E/DX2                !
 ! A3    A(2,3,6)              111.1356         estimate D2E/DX2                !
 ! A4    A(4,3,5)              107.7568         estimate D2E/DX2                !
 ! A5    A(4,3,6)              107.7568         estimate D2E/DX2                !
 ! A6    A(5,3,6)              107.7568         estimate D2E/DX2                !
 ! A7    A(1,7,8)              111.1356         estimate D2E/DX2                !
 ! A8    A(1,7,9)              111.1356         estimate D2E/DX2                !
 ! A9    A(1,7,10)             111.1356         estimate D2E/DX2                !
 ! A10   A(8,7,9)              107.7568         estimate D2E/DX2                !
 ! A11   A(8,7,10)             107.7568         estimate D2E/DX2                !
 ! A12   A(9,7,10)             107.7568         estimate D2E/DX2                !
 ! A13   L(2,1,7,8,-1)         180.0            estimate D2E/DX2                !
 ! A14   L(1,2,3,4,-1)         180.0            estimate D2E/DX2                !
 ! A15   L(2,1,7,8,-2)         180.0            estimate D2E/DX2                !
 ! A16   L(1,2,3,4,-2)         180.0            estimate D2E/DX2                !
 ! D1    D(4,3,7,8)              0.0            estimate D2E/DX2                !
 ! D2    D(4,3,7,9)           -120.0            estimate D2E/DX2                !
 ! D3    D(4,3,7,10)           120.0            estimate D2E/DX2                !
 ! D4    D(5,3,7,8)           -120.0            estimate D2E/DX2                !
 ! D5    D(5,3,7,9)            120.0            estimate D2E/DX2                !
 ! D6    D(5,3,7,10)             0.0            estimate D2E/DX2                !
 ! D7    D(6,3,7,8)            120.0            estimate D2E/DX2                !
 ! D8    D(6,3,7,9)              0.0            estimate D2E/DX2                !
 ! D9    D(6,3,7,10)          -120.0            estimate D2E/DX2                !
 --------------------------------------------------------------------------------
 Trust Radius=3.00D-01 FncErr=1.00D-07 GrdErr=1.00D-06
 Number of steps in this run=     44 maximum allowed number of steps=    100.
 GradGradGradGradGradGradGradGradGradGradGradGradGradGradGradGradGradGrad

 Leave Link  103 at Fri Jul  9 19:19:36 2021, MaxMem=  4194304000 cpu:         0.0
 (Enter /home/minenky/programs//g09/l202.exe)
                          Input orientation:                          
 ---------------------------------------------------------------------
 Center     Atomic      Atomic             Coordinates (Angstroms)
 Number     Number       Type             X           Y           Z
 ---------------------------------------------------------------------
      1          6           0        0.000000    0.000000    0.600632
      2          6           0        0.000000    0.000000   -0.600632
      3          6           0        0.000000    0.000000   -2.056501
      4          1           0        0.000000    1.018886   -2.450383
      5          1           0       -0.882381   -0.509443   -2.450383
      6          1           0        0.882381   -0.509443   -2.450383
      7          6           0        0.000000    0.000000    2.056501
      8          1           0        0.000000    1.018886    2.450383
      9          1           0        0.882381   -0.509443    2.450383
     10          1           0       -0.882381   -0.509443    2.450383
 ---------------------------------------------------------------------
                    Distance matrix (angstroms):
                    1          2          3          4          5
     1  C    0.000000
     2  C    1.201264   0.000000
     3  C    2.657133   1.455869   0.000000
     4  H    3.216648   2.111802   1.092370   0.000000
     5  H    3.216647   2.111802   1.092370   1.764762   0.000000
     6  H    3.216647   2.111802   1.092370   1.764762   1.764762
     7  C    1.455869   2.657133   4.113002   4.620620   4.620620
     8  H    2.111802   3.216648   4.620620   4.900766   5.208828
     9  H    2.111802   3.216647   4.620620   5.208828   5.208828
    10  H    2.111802   3.216647   4.620620   5.208828   4.900766
                    6          7          8          9         10
     6  H    0.000000
     7  C    4.620620   0.000000
     8  H    5.208828   1.092370   0.000000
     9  H    4.900766   1.092370   1.764762   0.000000
    10  H    5.208828   1.092370   1.764762   1.764762   0.000000
 Stoichiometry    C4H6
 Framework group  D3H[C3(CC.CC),3SGV(H2)]
 Deg. of freedom     4
 Full point group                 D3H     NOp  12
 Largest Abelian subgroup         C2V     NOp   4
 Largest concise Abelian subgroup C2V     NOp   4
                         Standard orientation:                         
 ---------------------------------------------------------------------
 Center     Atomic      Atomic             Coordinates (Angstroms)
 Number     Number       Type             X           Y           Z
 ---------------------------------------------------------------------
      1          6           0        0.000000    0.000000    0.600632
      2          6           0        0.000000    0.000000   -0.600632
      3          6           0        0.000000    0.000000   -2.056501
      4          1           0        0.000000    1.018886   -2.450383
      5          1           0       -0.882381   -0.509443   -2.450383
      6          1           0        0.882381   -0.509443   -2.450383
      7          6           0        0.000000    0.000000    2.056501
      8          1           0        0.000000    1.018886    2.450383
      9          1           0        0.882381   -0.509443    2.450383
     10          1           0       -0.882381   -0.509443    2.450383
 ---------------------------------------------------------------------
 Rotational constants (GHZ):     80.5062528      3.3780699      3.3780699
 Leave Link  202 at Fri Jul  9 19:19:36 2021, MaxMem=  4194304000 cpu:         0.5
 (Enter /home/minenky/programs//g09/l301.exe)
 Standard basis: def2TZVP (5D, 7F)
 ======================================================================================================
                                       Pseudopotential Parameters
 ======================================================================================================
  Center     Atomic      Valence      Angular      Power
  Number     Number     Electrons     Momentum     of R      Exponent        Coefficient   SO-Coeffient
 ======================================================================================================
    1          6
                                   No pseudopotential on this center.
    2          6
                                   No pseudopotential on this center.
    3          6
                                   No pseudopotential on this center.
    4          1
                                   No pseudopotential on this center.
    5          1
                                   No pseudopotential on this center.
    6          1
                                   No pseudopotential on this center.
    7          6
                                   No pseudopotential on this center.
    8          1
                                   No pseudopotential on this center.
    9          1
                                   No pseudopotential on this center.
   10          1
                                   No pseudopotential on this center.
 ======================================================================================================
 Ernie: Thresh=  0.10000D-02 Tol=  0.10000D-05 Strict=F.
 AO basis set (Overlap normalization):
 Atom C1       Shell     1 S   6     bf    1 -     1          0.000000000000          0.000000000000          1.135029986647
      0.1357534968D+05  0.6064550360D-03
      0.2035233368D+04  0.4697908888D-02
      0.4632256236D+03  0.2433247765D-01
      0.1312001960D+03  0.9739996831D-01
      0.4285301589D+02  0.3019558425D+00
      0.1558418577D+02  0.6623360914D+00
 Atom C1       Shell     2 S   2     bf    2 -     2          0.000000000000          0.000000000000          1.135029986647
      0.6206713851D+01  0.6559530854D+00
      0.2576489653D+01  0.3758563329D+00
 Atom C1       Shell     3 S   1     bf    3 -     3          0.000000000000          0.000000000000          1.135029986647
      0.5769633942D+00  0.1000000000D+01
 Atom C1       Shell     4 S   1     bf    4 -     4          0.000000000000          0.000000000000          1.135029986647
      0.2297283136D+00  0.1000000000D+01
 Atom C1       Shell     5 S   1     bf    5 -     5          0.000000000000          0.000000000000          1.135029986647
      0.9516444003D-01  0.1000000000D+01
 Atom C1       Shell     6 P   4     bf    6 -     8          0.000000000000          0.000000000000          1.135029986647
      0.3469723224D+02  0.1132722000D-01
      0.7958262283D+01  0.7616965920D-01
      0.2378082688D+01  0.3019225220D+00
      0.8143320818D+00  0.7278502735D+00
 Atom C1       Shell     7 P   1     bf    9 -    11          0.000000000000          0.000000000000          1.135029986647
      0.2888754725D+00  0.1000000000D+01
 Atom C1       Shell     8 P   1     bf   12 -    14          0.000000000000          0.000000000000          1.135029986647
      0.1005682367D+00  0.1000000000D+01
 Atom C1       Shell     9 D   1     bf   15 -    19          0.000000000000          0.000000000000          1.135029986647
      0.1097000000D+01  0.1000000000D+01
 Atom C1       Shell    10 D   1     bf   20 -    24          0.000000000000          0.000000000000          1.135029986647
      0.3180000000D+00  0.1000000000D+01
 Atom C1       Shell    11 F   1     bf   25 -    31          0.000000000000          0.000000000000          1.135029986647
      0.7610000000D+00  0.1000000000D+01
 Atom C2       Shell    12 S   6     bf   32 -    32          0.000000000000          0.000000000000         -1.135029986647
      0.1357534968D+05  0.6064550360D-03
      0.2035233368D+04  0.4697908888D-02
      0.4632256236D+03  0.2433247765D-01
      0.1312001960D+03  0.9739996831D-01
      0.4285301589D+02  0.3019558425D+00
      0.1558418577D+02  0.6623360914D+00
 Atom C2       Shell    13 S   2     bf   33 -    33          0.000000000000          0.000000000000         -1.135029986647
      0.6206713851D+01  0.6559530854D+00
      0.2576489653D+01  0.3758563329D+00
 Atom C2       Shell    14 S   1     bf   34 -    34          0.000000000000          0.000000000000         -1.135029986647
      0.5769633942D+00  0.1000000000D+01
 Atom C2       Shell    15 S   1     bf   35 -    35          0.000000000000          0.000000000000         -1.135029986647
      0.2297283136D+00  0.1000000000D+01
 Atom C2       Shell    16 S   1     bf   36 -    36          0.000000000000          0.000000000000         -1.135029986647
      0.9516444003D-01  0.1000000000D+01
 Atom C2       Shell    17 P   4     bf   37 -    39          0.000000000000          0.000000000000         -1.135029986647
      0.3469723224D+02  0.1132722000D-01
      0.7958262283D+01  0.7616965920D-01
      0.2378082688D+01  0.3019225220D+00
      0.8143320818D+00  0.7278502735D+00
 Atom C2       Shell    18 P   1     bf   40 -    42          0.000000000000          0.000000000000         -1.135029986647
      0.2888754725D+00  0.1000000000D+01
 Atom C2       Shell    19 P   1     bf   43 -    45          0.000000000000          0.000000000000         -1.135029986647
      0.1005682367D+00  0.1000000000D+01
 Atom C2       Shell    20 D   1     bf   46 -    50          0.000000000000          0.000000000000         -1.135029986647
      0.1097000000D+01  0.1000000000D+01
 Atom C2       Shell    21 D   1     bf   51 -    55          0.000000000000          0.000000000000         -1.135029986647
      0.3180000000D+00  0.1000000000D+01
 Atom C2       Shell    22 F   1     bf   56 -    62          0.000000000000          0.000000000000         -1.135029986647
      0.7610000000D+00  0.1000000000D+01
 Atom C3       Shell    23 S   6     bf   63 -    63          0.000000000000          0.000000000000         -3.886223682005
      0.1357534968D+05  0.6064550360D-03
      0.2035233368D+04  0.4697908888D-02
      0.4632256236D+03  0.2433247765D-01
      0.1312001960D+03  0.9739996831D-01
      0.4285301589D+02  0.3019558425D+00
      0.1558418577D+02  0.6623360914D+00
 Atom C3       Shell    24 S   2     bf   64 -    64          0.000000000000          0.000000000000         -3.886223682005
      0.6206713851D+01  0.6559530854D+00
      0.2576489653D+01  0.3758563329D+00
 Atom C3       Shell    25 S   1     bf   65 -    65          0.000000000000          0.000000000000         -3.886223682005
      0.5769633942D+00  0.1000000000D+01
 Atom C3       Shell    26 S   1     bf   66 -    66          0.000000000000          0.000000000000         -3.886223682005
      0.2297283136D+00  0.1000000000D+01
 Atom C3       Shell    27 S   1     bf   67 -    67          0.000000000000          0.000000000000         -3.886223682005
      0.9516444003D-01  0.1000000000D+01
 Atom C3       Shell    28 P   4     bf   68 -    70          0.000000000000          0.000000000000         -3.886223682005
      0.3469723224D+02  0.1132722000D-01
      0.7958262283D+01  0.7616965920D-01
      0.2378082688D+01  0.3019225220D+00
      0.8143320818D+00  0.7278502735D+00
 Atom C3       Shell    29 P   1     bf   71 -    73          0.000000000000          0.000000000000         -3.886223682005
      0.2888754725D+00  0.1000000000D+01
 Atom C3       Shell    30 P   1     bf   74 -    76          0.000000000000          0.000000000000         -3.886223682005
      0.1005682367D+00  0.1000000000D+01
 Atom C3       Shell    31 D   1     bf   77 -    81          0.000000000000          0.000000000000         -3.886223682005
      0.1097000000D+01  0.1000000000D+01
 Atom C3       Shell    32 D   1     bf   82 -    86          0.000000000000          0.000000000000         -3.886223682005
      0.3180000000D+00  0.1000000000D+01
 Atom C3       Shell    33 F   1     bf   87 -    93          0.000000000000          0.000000000000         -3.886223682005
      0.7610000000D+00  0.1000000000D+01
 Atom H4       Shell    34 S   3     bf   94 -    94          0.000000000000          1.925415500631         -4.630552790679
      0.3406134100D+02  0.2543930721D-01
      0.5123574600D+01  0.1900859489D+00
      0.1164662600D+01  0.8524411301D+00
 Atom H4       Shell    35 S   1     bf   95 -    95          0.000000000000          1.925415500631         -4.630552790679
      0.3272304100D+00  0.1000000000D+01
 Atom H4       Shell    36 S   1     bf   96 -    96          0.000000000000          1.925415500631         -4.630552790679
      0.1030724100D+00  0.1000000000D+01
 Atom H4       Shell    37 P   1     bf   97 -    99          0.000000000000          1.925415500631         -4.630552790679
      0.8000000000D+00  0.1000000000D+01
 Atom H5       Shell    38 S   3     bf  100 -   100         -1.667458736387         -0.962707750316         -4.630552790679
      0.3406134100D+02  0.2543930721D-01
      0.5123574600D+01  0.1900859489D+00
      0.1164662600D+01  0.8524411301D+00
 Atom H5       Shell    39 S   1     bf  101 -   101         -1.667458736387         -0.962707750316         -4.630552790679
      0.3272304100D+00  0.1000000000D+01
 Atom H5       Shell    40 S   1     bf  102 -   102         -1.667458736387         -0.962707750316         -4.630552790679
      0.1030724100D+00  0.1000000000D+01
 Atom H5       Shell    41 P   1     bf  103 -   105         -1.667458736387         -0.962707750316         -4.630552790679
      0.8000000000D+00  0.1000000000D+01
 Atom H6       Shell    42 S   3     bf  106 -   106          1.667458736387         -0.962707750316         -4.630552790679
      0.3406134100D+02  0.2543930721D-01
      0.5123574600D+01  0.1900859489D+00
      0.1164662600D+01  0.8524411301D+00
 Atom H6       Shell    43 S   1     bf  107 -   107          1.667458736387         -0.962707750316         -4.630552790679
      0.3272304100D+00  0.1000000000D+01
 Atom H6       Shell    44 S   1     bf  108 -   108          1.667458736387         -0.962707750316         -4.630552790679
      0.1030724100D+00  0.1000000000D+01
 Atom H6       Shell    45 P   1     bf  109 -   111          1.667458736387         -0.962707750316         -4.630552790679
      0.8000000000D+00  0.1000000000D+01
 Atom C7       Shell    46 S   6     bf  112 -   112          0.000000000000          0.000000000000          3.886223682005
      0.1357534968D+05  0.6064550360D-03
      0.2035233368D+04  0.4697908888D-02
      0.4632256236D+03  0.2433247765D-01
      0.1312001960D+03  0.9739996831D-01
      0.4285301589D+02  0.3019558425D+00
      0.1558418577D+02  0.6623360914D+00
 Atom C7       Shell    47 S   2     bf  113 -   113          0.000000000000          0.000000000000          3.886223682005
      0.6206713851D+01  0.6559530854D+00
      0.2576489653D+01  0.3758563329D+00
 Atom C7       Shell    48 S   1     bf  114 -   114          0.000000000000          0.000000000000          3.886223682005
      0.5769633942D+00  0.1000000000D+01
 Atom C7       Shell    49 S   1     bf  115 -   115          0.000000000000          0.000000000000          3.886223682005
      0.2297283136D+00  0.1000000000D+01
 Atom C7       Shell    50 S   1     bf  116 -   116          0.000000000000          0.000000000000          3.886223682005
      0.9516444003D-01  0.1000000000D+01
 Atom C7       Shell    51 P   4     bf  117 -   119          0.000000000000          0.000000000000          3.886223682005
      0.3469723224D+02  0.1132722000D-01
      0.7958262283D+01  0.7616965920D-01
      0.2378082688D+01  0.3019225220D+00
      0.8143320818D+00  0.7278502735D+00
 Atom C7       Shell    52 P   1     bf  120 -   122          0.000000000000          0.000000000000          3.886223682005
      0.2888754725D+00  0.1000000000D+01
 Atom C7       Shell    53 P   1     bf  123 -   125          0.000000000000          0.000000000000          3.886223682005
      0.1005682367D+00  0.1000000000D+01
 Atom C7       Shell    54 D   1     bf  126 -   130          0.000000000000          0.000000000000          3.886223682005
      0.1097000000D+01  0.1000000000D+01
 Atom C7       Shell    55 D   1     bf  131 -   135          0.000000000000          0.000000000000          3.886223682005
      0.3180000000D+00  0.1000000000D+01
 Atom C7       Shell    56 F   1     bf  136 -   142          0.000000000000          0.000000000000          3.886223682005
      0.7610000000D+00  0.1000000000D+01
 Atom H8       Shell    57 S   3     bf  143 -   143          0.000000000000          1.925415500631          4.630552790679
      0.3406134100D+02  0.2543930721D-01
      0.5123574600D+01  0.1900859489D+00
      0.1164662600D+01  0.8524411301D+00
 Atom H8       Shell    58 S   1     bf  144 -   144          0.000000000000          1.925415500631          4.630552790679
      0.3272304100D+00  0.1000000000D+01
 Atom H8       Shell    59 S   1     bf  145 -   145          0.000000000000          1.925415500631          4.630552790679
      0.1030724100D+00  0.1000000000D+01
 Atom H8       Shell    60 P   1     bf  146 -   148          0.000000000000          1.925415500631          4.630552790679
      0.8000000000D+00  0.1000000000D+01
 Atom H9       Shell    61 S   3     bf  149 -   149          1.667458736387         -0.962707750316          4.630552790679
      0.3406134100D+02  0.2543930721D-01
      0.5123574600D+01  0.1900859489D+00
      0.1164662600D+01  0.8524411301D+00
 Atom H9       Shell    62 S   1     bf  150 -   150          1.667458736387         -0.962707750316          4.630552790679
      0.3272304100D+00  0.1000000000D+01
 Atom H9       Shell    63 S   1     bf  151 -   151          1.667458736387         -0.962707750316          4.630552790679
      0.1030724100D+00  0.1000000000D+01
 Atom H9       Shell    64 P   1     bf  152 -   154          1.667458736387         -0.962707750316          4.630552790679
      0.8000000000D+00  0.1000000000D+01
 Atom H10      Shell    65 S   3     bf  155 -   155         -1.667458736387         -0.962707750316          4.630552790679
      0.3406134100D+02  0.2543930721D-01
      0.5123574600D+01  0.1900859489D+00
      0.1164662600D+01  0.8524411301D+00
 Atom H10      Shell    66 S   1     bf  156 -   156         -1.667458736387         -0.962707750316          4.630552790679
      0.3272304100D+00  0.1000000000D+01
 Atom H10      Shell    67 S   1     bf  157 -   157         -1.667458736387         -0.962707750316          4.630552790679
      0.1030724100D+00  0.1000000000D+01
 Atom H10      Shell    68 P   1     bf  158 -   160         -1.667458736387         -0.962707750316          4.630552790679
      0.8000000000D+00  0.1000000000D+01
 There are    61 symmetry adapted cartesian basis functions of A1  symmetry.
 There are    29 symmetry adapted cartesian basis functions of A2  symmetry.
 There are    29 symmetry adapted cartesian basis functions of B1  symmetry.
 There are    61 symmetry adapted cartesian basis functions of B2  symmetry.
 There are    53 symmetry adapted basis functions of A1  symmetry.
 There are    27 symmetry adapted basis functions of A2  symmetry.
 There are    27 symmetry adapted basis functions of B1  symmetry.
 There are    53 symmetry adapted basis functions of B2  symmetry.
   160 basis functions,   252 primitive gaussians,   180 cartesian basis functions
    15 alpha electrons       15 beta electrons
       nuclear repulsion energy       100.2382464925 Hartrees.
 IExCor= 4639 DFT=T Ex+Corr=wB97XD ExCW=0 ScaHFX=  1.000000
 ScaDFX=  1.000000  1.000000  1.000000  1.000000 ScalE2=  1.000000  1.000000
 IRadAn=      5 IRanWt=     -1 IRanGd=            0 ICorTp=0 IEmpDi=121
  HFx wShort=  0.000000 wLong=  0.200000 cFull=  0.222036 cShort=  0.000000 cLong=  0.777964
  DFx wShort=  0.000000 wLong=  0.200000 cFull=  0.000000 cShort=  0.000000 cLong=  1.000000
 NAtoms=   10 NActive=   10 NUniq=    3 SFac= 4.00D+00 NAtFMM=   60 NAOKFM=F Big=F
 Integral buffers will be    131072 words long.
 Raffenetti 2 integral format.
 Two-electron integral symmetry is turned on.
 R6Disp:  Grimme-D2 Dispersion energy=       -0.0020351163 Hartrees.
 Nuclear repulsion after empirical dispersion term =      100.2362113762 Hartrees.
 Leave Link  301 at Fri Jul  9 19:19:36 2021, MaxMem=  4194304000 cpu:         0.2
 (Enter /home/minenky/programs//g09/l302.exe)
 NPDir=0 NMtPBC=     1 NCelOv=     1 NCel=       1 NClECP=     1 NCelD=      1
         NCelK=      1 NCelE2=     1 NClLst=     1 CellRange=     0.0.
 One-electron integrals computed using PRISM.
 One-electron integral symmetry used in STVInt
  12 Symmetry operations used in ECPInt.
 ECPInt:  NShTT=    2346 NPrTT=    6892 LenC2=    2319 LenP2D=    5741.
 LDataN:  DoStor=T MaxTD1= 6 Len=  172
 NBasis=   160 RedAO= T EigKep=  1.42D-05  NBF=    53    27    27    53
 NBsUse=   160 1.00D-06 EigRej= -1.00D+00 NBFU=    53    27    27    53
 Precomputing XC quadrature grid using
 IXCGrd= 4 IRadAn=           5 IRanWt=          -1 IRanGd=           0 AccXCQ= 0.00D+00.
 Generated NRdTot=       0 NPtTot=           0 NUsed=           0 NTot=          32
 NSgBfM=   179   179   179   179   179 MxSgAt=    10 MxSgA2=    10.
 Leave Link  302 at Fri Jul  9 19:19:57 2021, MaxMem=  4194304000 cpu:       266.0
 (Enter /home/minenky/programs//g09/l303.exe)
 DipDrv:  MaxL=1.
 Leave Link  303 at Fri Jul  9 19:19:58 2021, MaxMem=  4194304000 cpu:         2.3
 (Enter /home/minenky/programs//g09/l401.exe)
 ExpMin= 9.52D-02 ExpMax= 1.36D+04 ExpMxC= 4.63D+02 IAcc=3 IRadAn=         5 AccDes= 0.00D+00
 Harris functional with IExCor= 4639 and IRadAn=       5 diagonalized for initial guess.
 HarFok:  IExCor= 4639 AccDes= 0.00D+00 IRadAn=         5 IDoV= 1 UseB2=F ITyADJ=14
 ICtDFT=  3500011 ScaDFX=  1.000000  1.000000  1.000000  1.000000
 FoFCou: FMM=F IPFlag=           0 FMFlag=      100000 FMFlg1=           0
         NFxFlg=           0 DoJE=T BraDBF=F KetDBF=T FulRan=T
         wScrn=  0.000000 ICntrl=     500 IOpCl=  0 I1Cent=   200000004 NGrid=           0
         NMat0=    1 NMatS0=      1 NMatT0=    0 NMatD0=    1 NMtDS0=    0 NMtDT0=    0
 Petite list used in FoFCou.
 Harris En= -148.509806980589    
 JPrj=0 DoOrth=F DoCkMO=F.
 Initial guess orbital symmetries:
       Occupied  (A2") (A1') (A1') (A2") (A1') (A2") (A1') (A2")
                 (A1') (E') (E') (E") (E") (E') (E')
       Virtual   (E") (E") (A1') (A2") (E') (E') (E") (E") (A2")
                 (A1') (A1') (E') (E') (A2") (E") (E") (E') (E')
                 (A1') (A2") (A1') (E") (E") (E') (E') (A2") (E")
                 (E") (A2") (A1') (E') (E') (E') (E') (A1') (A2")
                 (E") (E") (A1') (A2") (E") (E") (E') (E') (E")
                 (E") (A1') (A2") (E') (E') (E') (E') (A2") (E")
                 (E") (A2") (A1') (E') (E') (A2') (A1") (E") (E")
                 (A2") (A1') (E") (E") (A1') (E') (E') (A2") (E")
                 (E") (A1') (E') (E') (A2") (E") (E") (E') (E')
                 (A1') (A2') (E') (E') (A1') (E") (E") (A2") (E')
                 (E') (E") (E") (A1') (E') (E') (A2") (A1") (A1')
                 (E") (E") (E') (E') (A2") (A1') (A2") (E") (E")
                 (E') (E') (A2') (A1") (E') (E') (E") (E") (E")
                 (E") (A2") (A2") (A1') (E') (E') (E") (E") (E')
                 (E') (A1') (E") (E") (A2") (E") (E") (A1') (E')
                 (E') (A2") (E") (E") (A2") (A1') (A1') (A2") (A1')
                 (A2")
 The electronic state of the initial guess is 1-A1'.
 Leave Link  401 at Fri Jul  9 19:20:06 2021, MaxMem=  4194304000 cpu:       113.1
 (Enter /home/minenky/programs//g09/l502.exe)
 Closed shell SCF:
 Using DIIS extrapolation, IDIIS=  1040.
 Integral symmetry usage will be decided dynamically.
 Keep R1 ints in memory in symmetry-blocked form, NReq=208188858.
 IVT=      250474 IEndB=      250474 NGot=  4194304000 MDV=  4173023751
 LenX=  4173023751 LenY=  4172990910
 Requested convergence on RMS density matrix=1.00D-08 within 380 cycles.
 Requested convergence on MAX density matrix=1.00D-06.
 Requested convergence on             energy=1.00D-06.
 No special actions if energy rises.
 FoFCou: FMM=F IPFlag=           0 FMFlag=           0 FMFlg1=           0
         NFxFlg=           0 DoJE=F BraDBF=F KetDBF=F FulRan=T
         wScrn=  0.000000 ICntrl=     600 IOpCl=  0 I1Cent=           0 NGrid=           0
         NMat0=    1 NMatS0=  12880 NMatT0=    0 NMatD0=    1 NMtDS0=    0 NMtDT0=    0
 Petite list used in FoFCou.
 Integral accuracy reduced to 1.0D-05 until final iterations.

 Cycle   1  Pass 0  IDiag  1:
 E= -155.925484478448    
 DIIS: error= 6.23D-02 at cycle   1 NSaved=   1.
 NSaved= 1 IEnMin= 1 EnMin= -155.925484478448     IErMin= 1 ErrMin= 6.23D-02
 ErrMax= 6.23D-02  0.00D+00 EMaxC= 1.00D-01 BMatC= 3.40D-01 BMatP= 3.40D-01
 IDIUse=3 WtCom= 3.77D-01 WtEn= 6.23D-01
 Coeff-Com:  0.100D+01
 Coeff-En:   0.100D+01
 Coeff:      0.100D+01
 Gap=     0.413 Goal=   None    Shift=    0.000
 GapD=    0.413 DampG=2.000 DampE=0.500 DampFc=1.0000 IDamp=-1.
 RMSDP=4.09D-03 MaxDP=1.24D-01              OVMax= 5.20D-02

 Cycle   2  Pass 0  IDiag  1:
 E= -155.972974605234     Delta-E=       -0.047490126786 Rises=F Damp=F
 DIIS: error= 8.75D-03 at cycle   2 NSaved=   2.
 NSaved= 2 IEnMin= 2 EnMin= -155.972974605234     IErMin= 2 ErrMin= 8.75D-03
 ErrMax= 8.75D-03  0.00D+00 EMaxC= 1.00D-01 BMatC= 7.10D-03 BMatP= 3.40D-01
 IDIUse=3 WtCom= 9.13D-01 WtEn= 8.75D-02
 Coeff-Com:  0.716D-01 0.928D+00
 Coeff-En:   0.000D+00 0.100D+01
 Coeff:      0.653D-01 0.935D+00
 Gap=     0.467 Goal=   None    Shift=    0.000
 RMSDP=1.43D-03 MaxDP=5.35D-02 DE=-4.75D-02 OVMax= 2.62D-02

 Cycle   3  Pass 0  IDiag  1:
 E= -155.977785345202     Delta-E=       -0.004810739968 Rises=F Damp=F
 DIIS: error= 4.45D-03 at cycle   3 NSaved=   3.
 NSaved= 3 IEnMin= 3 EnMin= -155.977785345202     IErMin= 3 ErrMin= 4.45D-03
 ErrMax= 4.45D-03  0.00D+00 EMaxC= 1.00D-01 BMatC= 1.90D-03 BMatP= 7.10D-03
 IDIUse=3 WtCom= 9.56D-01 WtEn= 4.45D-02
 Coeff-Com:  0.221D-01 0.352D+00 0.626D+00
 Coeff-En:   0.000D+00 0.837D-01 0.916D+00
 Coeff:      0.211D-01 0.340D+00 0.639D+00
 Gap=     0.449 Goal=   None    Shift=    0.000
 RMSDP=3.50D-04 MaxDP=1.20D-02 DE=-4.81D-03 OVMax= 9.87D-03

 Cycle   4  Pass 0  IDiag  1:
 E= -155.979624793156     Delta-E=       -0.001839447954 Rises=F Damp=F
 DIIS: error= 3.06D-04 at cycle   4 NSaved=   4.
 NSaved= 4 IEnMin= 4 EnMin= -155.979624793156     IErMin= 4 ErrMin= 3.06D-04
 ErrMax= 3.06D-04  0.00D+00 EMaxC= 1.00D-01 BMatC= 1.01D-05 BMatP= 1.90D-03
 IDIUse=3 WtCom= 9.97D-01 WtEn= 3.06D-03
 Coeff-Com: -0.564D-03-0.712D-02 0.404D-01 0.967D+00
 Coeff-En:   0.000D+00 0.000D+00 0.000D+00 0.100D+01
 Coeff:     -0.562D-03-0.709D-02 0.403D-01 0.967D+00
 Gap=     0.449 Goal=   None    Shift=    0.000
 RMSDP=6.53D-05 MaxDP=3.78D-03 DE=-1.84D-03 OVMax= 9.46D-04

 Cycle   5  Pass 0  IDiag  1:
 E= -155.979637054027     Delta-E=       -0.000012260871 Rises=F Damp=F
 DIIS: error= 1.10D-04 at cycle   5 NSaved=   5.
 NSaved= 5 IEnMin= 5 EnMin= -155.979637054027     IErMin= 5 ErrMin= 1.10D-04
 ErrMax= 1.10D-04  0.00D+00 EMaxC= 1.00D-01 BMatC= 9.63D-07 BMatP= 1.01D-05
 IDIUse=3 WtCom= 9.99D-01 WtEn= 1.10D-03
 Coeff-Com: -0.139D-02-0.221D-01-0.248D-01 0.239D+00 0.810D+00
 Coeff-En:   0.000D+00 0.000D+00 0.000D+00 0.000D+00 0.100D+01
 Coeff:     -0.139D-02-0.221D-01-0.248D-01 0.239D+00 0.810D+00
 Gap=     0.449 Goal=   None    Shift=    0.000
 RMSDP=1.11D-05 MaxDP=3.51D-04 DE=-1.23D-05 OVMax= 3.78D-04

 Cycle   6  Pass 0  IDiag  1:
 E= -155.979638174126     Delta-E=       -0.000001120099 Rises=F Damp=F
 DIIS: error= 3.71D-05 at cycle   6 NSaved=   6.
 NSaved= 6 IEnMin= 6 EnMin= -155.979638174126     IErMin= 6 ErrMin= 3.71D-05
 ErrMax= 3.71D-05  0.00D+00 EMaxC= 1.00D-01 BMatC= 9.35D-08 BMatP= 9.63D-07
 IDIUse=1 WtCom= 1.00D+00 WtEn= 0.00D+00
 Coeff-Com: -0.357D-03-0.600D-02-0.108D-01-0.205D-01 0.234D+00 0.803D+00
 Coeff:     -0.357D-03-0.600D-02-0.108D-01-0.205D-01 0.234D+00 0.803D+00
 Gap=     0.449 Goal=   None    Shift=    0.000
 RMSDP=3.58D-06 MaxDP=1.02D-04 DE=-1.12D-06 OVMax= 1.22D-04

 Initial convergence to 1.0D-05 achieved.  Increase integral accuracy.
 Cycle   7  Pass 1  IDiag  1:
 E= -155.979634596070     Delta-E=        0.000003578055 Rises=F Damp=F
 DIIS: error= 3.03D-05 at cycle   1 NSaved=   1.
 NSaved= 1 IEnMin= 1 EnMin= -155.979634596070     IErMin= 1 ErrMin= 3.03D-05
 ErrMax= 3.03D-05  0.00D+00 EMaxC= 1.00D-01 BMatC= 9.78D-08 BMatP= 9.78D-08
 IDIUse=1 WtCom= 1.00D+00 WtEn= 0.00D+00
 Coeff-Com:  0.100D+01
 Coeff:      0.100D+01
 Gap=     0.449 Goal=   None    Shift=    0.000
 RMSDP=3.58D-06 MaxDP=1.02D-04 DE= 3.58D-06 OVMax= 5.62D-05

 Cycle   8  Pass 1  IDiag  1:
 E= -155.979634647601     Delta-E=       -0.000000051530 Rises=F Damp=F
 DIIS: error= 4.67D-06 at cycle   2 NSaved=   2.
 NSaved= 2 IEnMin= 2 EnMin= -155.979634647601     IErMin= 2 ErrMin= 4.67D-06
 ErrMax= 4.67D-06  0.00D+00 EMaxC= 1.00D-01 BMatC= 1.13D-09 BMatP= 9.78D-08
 IDIUse=1 WtCom= 1.00D+00 WtEn= 0.00D+00
 Coeff-Com: -0.482D-01 0.105D+01
 Coeff:     -0.482D-01 0.105D+01
 Gap=     0.449 Goal=   None    Shift=    0.000
 RMSDP=2.04D-06 MaxDP=1.19D-04 DE=-5.15D-08 OVMax= 1.18D-05

 Cycle   9  Pass 1  IDiag  1:
 E= -155.979634648660     Delta-E=       -0.000000001059 Rises=F Damp=F
 DIIS: error= 1.46D-06 at cycle   3 NSaved=   3.
 NSaved= 3 IEnMin= 3 EnMin= -155.979634648660     IErMin= 3 ErrMin= 1.46D-06
 ErrMax= 1.46D-06  0.00D+00 EMaxC= 1.00D-01 BMatC= 2.08D-10 BMatP= 1.13D-09
 IDIUse=1 WtCom= 1.00D+00 WtEn= 0.00D+00
 Coeff-Com: -0.235D-01 0.299D+00 0.724D+00
 Coeff:     -0.235D-01 0.299D+00 0.724D+00
 Gap=     0.449 Goal=   None    Shift=    0.000
 RMSDP=2.39D-07 MaxDP=1.35D-05 DE=-1.06D-09 OVMax= 3.49D-06

 Cycle  10  Pass 1  IDiag  1:
 E= -155.979634648846     Delta-E=       -0.000000000186 Rises=F Damp=F
 DIIS: error= 4.15D-07 at cycle   4 NSaved=   4.
 NSaved= 4 IEnMin= 4 EnMin= -155.979634648846     IErMin= 4 ErrMin= 4.15D-07
 ErrMax= 4.15D-07  0.00D+00 EMaxC= 1.00D-01 BMatC= 1.38D-11 BMatP= 2.08D-10
 IDIUse=1 WtCom= 1.00D+00 WtEn= 0.00D+00
 Coeff-Com: -0.183D-02-0.437D-02 0.168D+00 0.838D+00
 Coeff:     -0.183D-02-0.437D-02 0.168D+00 0.838D+00
 Gap=     0.449 Goal=   None    Shift=    0.000
 RMSDP=7.64D-08 MaxDP=4.51D-06 DE=-1.86D-10 OVMax= 1.26D-06

 Cycle  11  Pass 1  IDiag  1:
 E= -155.979634648866     Delta-E=       -0.000000000020 Rises=F Damp=F
 DIIS: error= 1.33D-07 at cycle   5 NSaved=   5.
 NSaved= 5 IEnMin= 5 EnMin= -155.979634648866     IErMin= 5 ErrMin= 1.33D-07
 ErrMax= 1.33D-07  0.00D+00 EMaxC= 1.00D-01 BMatC= 6.93D-13 BMatP= 1.38D-11
 IDIUse=1 WtCom= 1.00D+00 WtEn= 0.00D+00
 Coeff-Com:  0.151D-02-0.242D-01-0.414D-01 0.107D+00 0.957D+00
 Coeff:      0.151D-02-0.242D-01-0.414D-01 0.107D+00 0.957D+00
 Gap=     0.449 Goal=   None    Shift=    0.000
 RMSDP=2.05D-08 MaxDP=1.08D-06 DE=-2.03D-11 OVMax= 4.53D-07

 Cycle  12  Pass 1  IDiag  1:
 E= -155.979634648866     Delta-E=        0.000000000000 Rises=F Damp=F
 DIIS: error= 2.92D-08 at cycle   6 NSaved=   6.
 NSaved= 6 IEnMin= 5 EnMin= -155.979634648866     IErMin= 6 ErrMin= 2.92D-08
 ErrMax= 2.92D-08  0.00D+00 EMaxC= 1.00D-01 BMatC= 5.26D-14 BMatP= 6.93D-13
 IDIUse=1 WtCom= 1.00D+00 WtEn= 0.00D+00
 Coeff-Com:  0.509D-03-0.705D-02-0.192D-01-0.327D-02 0.261D+00 0.768D+00
 Coeff:      0.509D-03-0.705D-02-0.192D-01-0.327D-02 0.261D+00 0.768D+00
 Gap=     0.449 Goal=   None    Shift=    0.000
 RMSDP=4.30D-09 MaxDP=1.83D-07 DE= 0.00D+00 OVMax= 9.57D-08

 SCF Done:  E(RwB97XD) =  -155.979634649     A.U. after   12 cycles
            NFock= 12  Conv=0.43D-08     -V/T= 2.0056
 KE= 1.551184071547D+02 PE=-5.617176291207D+02 EE= 1.503833759410D+02
 Leave Link  502 at Fri Jul  9 19:22:09 2021, MaxMem=  4194304000 cpu:      1699.2
 (Enter /home/minenky/programs//g09/l601.exe)
 Copying SCF densities to generalized density rwf, IOpCl= 0 IROHF=0.

 **********************************************************************

            Population analysis using the SCF density.

 **********************************************************************

 Orbital symmetries:
       Occupied  (A2") (A1') (A1') (A2") (A1') (A2") (A1') (A2")
                 (A1') (E') (E') (E") (E") (E') (E')
       Virtual   (A1') (E") (E") (A2") (E') (E') (A2") (E") (E")
                 (A1') (A1') (E') (E') (E") (E") (A2") (E') (E')
                 (A1') (A2") (E") (E") (A1') (A2") (E') (E') (E")
                 (E") (A2") (A1') (E') (E') (A1') (A2") (E') (E')
                 (E") (E") (A1') (E") (E") (A2") (E') (E') (E")
                 (E") (A1') (A2") (E') (E') (A2") (E') (E') (A2")
                 (A1') (E") (E") (A2') (A1") (E') (E') (E") (E")
                 (A2") (A1') (E") (E") (A1') (E') (E') (A2") (E")
                 (E") (A1') (E') (E') (A2") (E") (E") (E') (E')
                 (A1') (E') (E') (E") (E") (A2') (A1') (A2") (E')
                 (E') (E") (E") (A1') (A2") (E') (E') (A1") (E")
                 (E") (E') (E') (A1') (A2") (A1') (A2") (E") (E")
                 (E') (E') (A2') (A1") (E') (E') (E") (E") (E")
                 (E") (A2") (A2") (A1') (E') (E') (E") (E") (E')
                 (E') (E") (E") (A1') (A2") (E") (E") (A1') (E')
                 (E') (A2") (E") (E") (A2") (A1') (A1') (A2") (A1')
                 (A2")
 The electronic state is 1-A1'.
 Alpha  occ. eigenvalues --  -10.29680 -10.29679 -10.27110 -10.26845  -0.88306
 Alpha  occ. eigenvalues --   -0.84290  -0.76377  -0.56726  -0.52010  -0.51840
 Alpha  occ. eigenvalues --   -0.51840  -0.50352  -0.50352  -0.33073  -0.33073
 Alpha virt. eigenvalues --    0.11825   0.12830   0.12830   0.13295   0.19169
 Alpha virt. eigenvalues --    0.19169   0.22018   0.22800   0.22800   0.22912
 Alpha virt. eigenvalues --    0.27856   0.29297   0.29297   0.30620   0.30620
 Alpha virt. eigenvalues --    0.32306   0.38449   0.38449   0.46841   0.47890
 Alpha virt. eigenvalues --    0.50397   0.50397   0.51230   0.51290   0.52254
 Alpha virt. eigenvalues --    0.52254   0.55758   0.55758   0.58547   0.65020
 Alpha virt. eigenvalues --    0.69125   0.69125   0.76653   0.77594   0.77635
 Alpha virt. eigenvalues --    0.77635   0.87523   0.87523   0.97720   1.01584
 Alpha virt. eigenvalues --    1.01584   1.02868   1.05349   1.05349   1.20034
 Alpha virt. eigenvalues --    1.20034   1.21673   1.26446   1.32875   1.32875
 Alpha virt. eigenvalues --    1.51702   1.55003   1.55003   1.57074   1.57367
 Alpha virt. eigenvalues --    1.57549   1.57549   1.61289   1.61294   1.62822
 Alpha virt. eigenvalues --    1.62822   1.66145   1.66145   1.82406   1.88615
 Alpha virt. eigenvalues --    1.95500   1.95500   1.99093   2.03167   2.03167
 Alpha virt. eigenvalues --    2.12501   2.13788   2.13788   2.23786   2.34410
 Alpha virt. eigenvalues --    2.34410   2.37505   2.42119   2.42119   2.49706
 Alpha virt. eigenvalues --    2.49706   2.59689   2.59718   2.59718   2.60610
 Alpha virt. eigenvalues --    2.60610   2.60908   2.63578   2.66295   2.86149
 Alpha virt. eigenvalues --    2.86149   2.86828   2.86828   2.88345   2.93468
 Alpha virt. eigenvalues --    2.94680   2.94680   2.98201   3.03440   3.03440
 Alpha virt. eigenvalues --    3.04252   3.04252   3.05839   3.06210   3.10489
 Alpha virt. eigenvalues --    3.14237   3.17851   3.17851   3.21919   3.21919
 Alpha virt. eigenvalues --    3.41472   3.46038   3.49875   3.49875   3.53063
 Alpha virt. eigenvalues --    3.53063   3.59659   3.59659   3.67093   3.69223
 Alpha virt. eigenvalues --    3.70623   3.75545   3.75545   3.88654   3.88654
 Alpha virt. eigenvalues --    4.21359   4.21359   4.28621   4.28621   4.29445
 Alpha virt. eigenvalues --    4.46888   4.49832   4.49832   4.58699   4.81707
 Alpha virt. eigenvalues --    4.81707   5.12947   5.19664   5.19664   5.52141
 Alpha virt. eigenvalues --    5.59696  22.45860  22.59937  23.52453  23.69219
          Condensed to atoms (all electrons):
               1          2          3          4          5          6
     1  C    5.431188   0.658716  -0.121860  -0.015809  -0.015809  -0.015809
     2  C    0.658716   5.431188   0.281721  -0.049696  -0.049696  -0.049696
     3  C   -0.121860   0.281721   4.922735   0.432967   0.432967   0.432967
     4  H   -0.015809  -0.049696   0.432967   0.545131  -0.028485  -0.028485
     5  H   -0.015809  -0.049696   0.432967  -0.028485   0.545131  -0.028485
     6  H   -0.015809  -0.049696   0.432967  -0.028485  -0.028485   0.545131
     7  C    0.281721  -0.121860  -0.001471  -0.000065  -0.000065  -0.000065
     8  H   -0.049696  -0.015809  -0.000065   0.000148  -0.000034  -0.000034
     9  H   -0.049696  -0.015809  -0.000065  -0.000034  -0.000034   0.000148
    10  H   -0.049696  -0.015809  -0.000065  -0.000034   0.000148  -0.000034
               7          8          9         10
     1  C    0.281721  -0.049696  -0.049696  -0.049696
     2  C   -0.121860  -0.015809  -0.015809  -0.015809
     3  C   -0.001471  -0.000065  -0.000065  -0.000065
     4  H   -0.000065   0.000148  -0.000034  -0.000034
     5  H   -0.000065  -0.000034  -0.000034   0.000148
     6  H   -0.000065  -0.000034   0.000148  -0.000034
     7  C    4.922735   0.432967   0.432967   0.432967
     8  H    0.432967   0.545131  -0.028485  -0.028485
     9  H    0.432967  -0.028485   0.545131  -0.028485
    10  H    0.432967  -0.028485  -0.028485   0.545131
 Mulliken charges:
               1
     1  C   -0.053249
     2  C   -0.053249
     3  C   -0.379832
     4  H    0.144361
     5  H    0.144361
     6  H    0.144361
     7  C   -0.379832
     8  H    0.144361
     9  H    0.144361
    10  H    0.144361
 Sum of Mulliken charges =   0.00000
 Mulliken charges with hydrogens summed into heavy atoms:
               1
     1  C   -0.053249
     2  C   -0.053249
     3  C    0.053249
     7  C    0.053249
 Electronic spatial extent (au):  <R**2>=            399.7248
 Charge=              0.0000 electrons
 Dipole moment (field-independent basis, Debye):
    X=              0.0000    Y=              0.0000    Z=              0.0000  Tot=              0.0000
 Quadrupole moment (field-independent basis, Debye-Ang):
   XX=            -25.6318   YY=            -25.6318   ZZ=            -18.8624
   XY=              0.0000   XZ=              0.0000   YZ=              0.0000
 Traceless Quadrupole moment (field-independent basis, Debye-Ang):
   XX=             -2.2565   YY=             -2.2565   ZZ=              4.5130
   XY=              0.0000   XZ=              0.0000   YZ=              0.0000
 Octapole moment (field-independent basis, Debye-Ang**2):
  XXX=              0.0000  YYY=              1.4578  ZZZ=              0.0000  XYY=              0.0000
  XXY=             -1.4578  XXZ=              0.0000  XZZ=              0.0000  YZZ=              0.0000
  YYZ=              0.0000  XYZ=              0.0000
 Hexadecapole moment (field-independent basis, Debye-Ang**3):
 XXXX=            -41.5990 YYYY=            -41.5990 ZZZZ=           -450.5810 XXXY=              0.0000
 XXXZ=              0.0000 YYYX=              0.0000 YYYZ=              0.0000 ZZZX=              0.0000
 ZZZY=              0.0000 XXYY=            -13.8663 XXZZ=            -79.3158 YYZZ=            -79.3158
 XXYZ=              0.0000 YYXZ=              0.0000 ZZXY=              0.0000
 N-N= 1.002362113762D+02 E-N=-5.617176314587D+02  KE= 1.551184071547D+02
 Symmetry A1   KE= 7.744624469899D+01
 Symmetry A2   KE= 1.968473999570D+00
 Symmetry B1   KE= 4.291063072702D+00
 Symmetry B2   KE= 7.141262538344D+01
 No NMR shielding tensors so no spin-rotation constants.
 Leave Link  601 at Fri Jul  9 19:22:12 2021, MaxMem=  4194304000 cpu:        29.0
 (Enter /home/minenky/programs//g09/l701.exe)
 Compute integral first derivatives.
 ... and contract with generalized density number  0.
 R6Disp: Adding Grimme-D2 dispersion energy 1st derivatives to the gradient.
  12 Symmetry operations used in ECPInt.
 ECPInt:  NShTT=    2346 NPrTT=    6892 LenC2=    2319 LenP2D=    5741.
 LDataN:  DoStor=T MaxTD1= 7 Len=  274
 Leave Link  701 at Fri Jul  9 19:22:18 2021, MaxMem=  4194304000 cpu:        76.1
 (Enter /home/minenky/programs//g09/l702.exe)
 L702 exits ... SP integral derivatives will be done elsewhere.
 Leave Link  702 at Fri Jul  9 19:22:18 2021, MaxMem=  4194304000 cpu:         0.1
 (Enter /home/minenky/programs//g09/l703.exe)
 Compute integral first derivatives, UseDBF=F ICtDFT=           0.
 Integral derivatives from FoFJK, PRISM(SPDF).
 Calling FoFJK, ICntrl=      2127 FMM=F ISym2X=1 I1Cent= 0 IOpClX= 0 NMat=1 NMatS=1 NMatT=0.
 FoFJK:  IHMeth= 1 ICntrl=    2127 DoSepK=T KAlg= 0 I1Cent=   0 FoldK=F
 IRaf=         1 NMat=   1 IRICut=       1 DoRegI=T DoRafI=F ISym2E= 1.
 FoFCou: FMM=F IPFlag=           0 FMFlag=      100000 FMFlg1=         800
         NFxFlg=           0 DoJE=F BraDBF=F KetDBF=F FulRan=T
         wScrn=  0.000000 ICntrl=    2527 IOpCl=  0 I1Cent=           0 NGrid=           0
         NMat0=    1 NMatS0=      1 NMatT0=    0 NMatD0=    1 NMtDS0=    0 NMtDT0=    0
 Petite list used in FoFCou.
 Leave Link  703 at Fri Jul  9 19:22:25 2021, MaxMem=  4194304000 cpu:        85.9
 (Enter /home/minenky/programs//g09/l716.exe)
 Dipole        = 6.66133815D-16 1.11022302D-16-1.06581410D-14
 ***** Axes restored to original set *****
 -------------------------------------------------------------------
 Center     Atomic                   Forces (Hartrees/Bohr)
 Number     Number              X              Y              Z
 -------------------------------------------------------------------
      1        6           0.000000000    0.000000000   -0.006189349
      2        6           0.000000000    0.000000000    0.006189349
      3        6           0.000000000    0.000000000   -0.002406531
      4        1           0.000000000   -0.000356907    0.000677426
      5        1           0.000309090    0.000178453    0.000677426
      6        1          -0.000309090    0.000178453    0.000677426
      7        6           0.000000000    0.000000000    0.002406531
      8        1           0.000000000   -0.000356907   -0.000677426
      9        1          -0.000309090    0.000178453   -0.000677426
     10        1           0.000309090    0.000178453   -0.000677426
 -------------------------------------------------------------------
 Cartesian Forces:  Max     0.006189349 RMS     0.001748491
 Leave Link  716 at Fri Jul  9 19:22:25 2021, MaxMem=  4194304000 cpu:         0.1
 (Enter /home/minenky/programs//g09/l103.exe)

 GradGradGradGradGradGradGradGradGradGradGradGradGradGradGradGradGradGrad
 Berny optimization.
 FormGI is forming the generalized inverse of G from B-inverse, IUseBI=4.
 Internal  Forces:  Max     0.005815096 RMS     0.001072984
 Search for a local minimum.
 Step number   1 out of a maximum of   44
 All quantities printed in internal units (Hartrees-Bohrs-Radians)
 RMS Force = .10730D-02 SwitMx=.10000D-02 MixMth= 1
 Mixed Optimization -- RFO/linear search
 Second derivative matrix not updated -- first step.
 ITU=  0
     Eigenvalues ---    0.00230   0.00875   0.01179   0.01279   0.01332
     Eigenvalues ---    0.05466   0.05653   0.06041   0.07595   0.16000
     Eigenvalues ---    0.16000   0.16000   0.16000   0.16000   0.16000
     Eigenvalues ---    0.34540   0.34540   0.34540   0.34540   0.34540
     Eigenvalues ---    0.34540   0.37486   0.37486   1.04190
 RFO step:  Lambda=-5.80508182D-05 EMin= 2.30000000D-03
 Linear search not attempted -- first point.
 Iteration  1 RMS(Cart)=  0.00358349 RMS(Int)=  0.00000503
 Iteration  2 RMS(Cart)=  0.00000446 RMS(Int)=  0.00000267
 Iteration  3 RMS(Cart)=  0.00000000 RMS(Int)=  0.00000267
 ITry= 1 IFail=0 DXMaxC= 8.29D-03 DCOld= 1.00D+10 DXMaxT= 3.00D-01 DXLimC= 3.00D+00 Rises=F
 ClnCor:  largest displacement from symmetrization is 5.75D-09 for atom     5.
 Variable       Old X    -DE/DX   Delta X   Delta X   Delta X     New X
                                 (Linear)    (Quad)   (Total)
    R1        2.27006  -0.00582   0.00000  -0.00558  -0.00558   2.26448
    R2        2.75119   0.00037   0.00000   0.00100   0.00100   2.75219
    R3        2.75119   0.00037   0.00000   0.00100   0.00100   2.75219
    R4        2.06428  -0.00058   0.00000  -0.00167  -0.00167   2.06261
    R5        2.06428  -0.00058   0.00000  -0.00167  -0.00167   2.06261
    R6        2.06428  -0.00058   0.00000  -0.00167  -0.00167   2.06261
    R7        2.06428  -0.00058   0.00000  -0.00167  -0.00167   2.06261
    R8        2.06428  -0.00058   0.00000  -0.00167  -0.00167   2.06261
    R9        2.06428  -0.00058   0.00000  -0.00167  -0.00167   2.06261
    A1        1.93968  -0.00049   0.00000  -0.00306  -0.00306   1.93662
    A2        1.93968  -0.00049   0.00000  -0.00306  -0.00306   1.93662
    A3        1.93968  -0.00049   0.00000  -0.00306  -0.00306   1.93662
    A4        1.88071   0.00052   0.00000   0.00324   0.00323   1.88395
    A5        1.88071   0.00052   0.00000   0.00324   0.00323   1.88395
    A6        1.88071   0.00052   0.00000   0.00324   0.00323   1.88395
    A7        1.93968  -0.00049   0.00000  -0.00306  -0.00306   1.93662
    A8        1.93968  -0.00049   0.00000  -0.00306  -0.00306   1.93662
    A9        1.93968  -0.00049   0.00000  -0.00306  -0.00306   1.93662
   A10        1.88071   0.00052   0.00000   0.00324   0.00323   1.88395
   A11        1.88071   0.00052   0.00000   0.00324   0.00323   1.88395
   A12        1.88071   0.00052   0.00000   0.00324   0.00323   1.88395
   A13        3.14159   0.00000   0.00000   0.00000   0.00000   3.14159
   A14        3.14159   0.00000   0.00000   0.00000   0.00000   3.14159
   A15        3.14159   0.00000   0.00000   0.00000   0.00000   3.14159
   A16        3.14159   0.00000   0.00000   0.00000   0.00000   3.14159
    D1        0.00000   0.00000   0.00000   0.00000   0.00000   0.00000
    D2       -2.09440   0.00000   0.00000   0.00000   0.00000  -2.09440
    D3        2.09440   0.00000   0.00000   0.00000   0.00000   2.09440
    D4       -2.09440   0.00000   0.00000   0.00000   0.00000  -2.09440
    D5        2.09440   0.00000   0.00000   0.00000   0.00000   2.09440
    D6        0.00000   0.00000   0.00000   0.00000   0.00000   0.00000
    D7        2.09440   0.00000   0.00000   0.00000   0.00000   2.09440
    D8        0.00000   0.00000   0.00000   0.00000   0.00000   0.00000
    D9       -2.09440   0.00000   0.00000   0.00000   0.00000  -2.09440
         Item               Value     Threshold  Converged?
 Maximum Force            0.005815     0.000015     NO 
 RMS     Force            0.001073     0.000010     NO 
 Maximum Displacement     0.008289     0.000060     NO 
 RMS     Displacement     0.003586     0.000040     NO 
 Predicted change in Energy=-2.902539D-05
 Lowest energy point so far.  Saving SCF results.
 GradGradGradGradGradGradGradGradGradGradGradGradGradGradGradGradGradGrad

 Leave Link  103 at Fri Jul  9 19:22:27 2021, MaxMem=  4194304000 cpu:        17.1
 (Enter /home/minenky/programs//g09/l202.exe)
                          Input orientation:                          
 ---------------------------------------------------------------------
 Center     Atomic      Atomic             Coordinates (Angstroms)
 Number     Number       Type             X           Y           Z
 ---------------------------------------------------------------------
      1          6           0        0.000000    0.000000    0.599155
      2          6           0        0.000000    0.000000   -0.599155
      3          6           0        0.000000    0.000000   -2.055553
      4          1           0        0.000000    1.019262   -2.445996
      5          1           0       -0.882707   -0.509631   -2.445996
      6          1           0        0.882707   -0.509631   -2.445996
      7          6           0        0.000000    0.000000    2.055553
      8          1           0        0.000000    1.019262    2.445996
      9          1           0        0.882707   -0.509631    2.445996
     10          1           0       -0.882707   -0.509631    2.445996
 ---------------------------------------------------------------------
                    Distance matrix (angstroms):
                    1          2          3          4          5
     1  C    0.000000
     2  C    1.198311   0.000000
     3  C    2.654708   1.456397   0.000000
     4  H    3.211206   2.109435   1.091486   0.000000
     5  H    3.211206   2.109435   1.091486   1.765413   0.000000
     6  H    3.211206   2.109435   1.091486   1.765413   1.765413
     7  C    1.456397   2.654708   4.111105   4.615500   4.615500
     8  H    2.109435   3.211206   4.615500   4.891993   5.200796
     9  H    2.109435   3.211206   4.615500   5.200796   5.200796
    10  H    2.109435   3.211206   4.615500   5.200796   4.891993
                    6          7          8          9         10
     6  H    0.000000
     7  C    4.615500   0.000000
     8  H    5.200796   1.091486   0.000000
     9  H    4.891993   1.091486   1.765413   0.000000
    10  H    5.200796   1.091486   1.765413   1.765413   0.000000
 Stoichiometry    C4H6
 Framework group  D3H[C3(CC.CC),3SGV(H2)]
 Deg. of freedom     4
 Full point group                 D3H     NOp  12
 RotChk:  IX=0 Diff= 1.05D-16
 Largest Abelian subgroup         C2V     NOp   4
 Largest concise Abelian subgroup C2V     NOp   4
                         Standard orientation:                         
 ---------------------------------------------------------------------
 Center     Atomic      Atomic             Coordinates (Angstroms)
 Number     Number       Type             X           Y           Z
 ---------------------------------------------------------------------
      1          6           0        0.000000    0.000000    0.599155
      2          6           0        0.000000    0.000000   -0.599155
      3          6           0        0.000000    0.000000   -2.055553
      4          1           0        0.000000    1.019262   -2.445996
      5          1           0       -0.882707   -0.509631   -2.445996
      6          1           0        0.882707   -0.509631   -2.445996
      7          6           0        0.000000    0.000000    2.055553
      8          1           0        0.000000    1.019262    2.445996
      9          1           0        0.882707   -0.509631    2.445996
     10          1           0       -0.882707   -0.509631    2.445996
 ---------------------------------------------------------------------
 Rotational constants (GHZ):     80.4469052      3.3840342      3.3840342
 Leave Link  202 at Fri Jul  9 19:22:27 2021, MaxMem=  4194304000 cpu:         0.8
 (Enter /home/minenky/programs//g09/l301.exe)
 Standard basis: def2TZVP (5D, 7F)
 Ernie: Thresh=  0.10000D-02 Tol=  0.10000D-05 Strict=F.
 There are    61 symmetry adapted cartesian basis functions of A1  symmetry.
 There are    29 symmetry adapted cartesian basis functions of A2  symmetry.
 There are    29 symmetry adapted cartesian basis functions of B1  symmetry.
 There are    61 symmetry adapted cartesian basis functions of B2  symmetry.
 There are    53 symmetry adapted basis functions of A1  symmetry.
 There are    27 symmetry adapted basis functions of A2  symmetry.
 There are    27 symmetry adapted basis functions of B1  symmetry.
 There are    53 symmetry adapted basis functions of B2  symmetry.
   160 basis functions,   252 primitive gaussians,   180 cartesian basis functions
    15 alpha electrons       15 beta electrons
       nuclear repulsion energy       100.3227904236 Hartrees.
 IExCor= 4639 DFT=T Ex+Corr=wB97XD ExCW=0 ScaHFX=  1.000000
 ScaDFX=  1.000000  1.000000  1.000000  1.000000 ScalE2=  1.000000  1.000000
 IRadAn=      5 IRanWt=     -1 IRanGd=            0 ICorTp=0 IEmpDi=121
  HFx wShort=  0.000000 wLong=  0.200000 cFull=  0.222036 cShort=  0.000000 cLong=  0.777964
  DFx wShort=  0.000000 wLong=  0.200000 cFull=  0.000000 cShort=  0.000000 cLong=  1.000000
 NAtoms=   10 NActive=   10 NUniq=    3 SFac= 4.00D+00 NAtFMM=   60 NAOKFM=F Big=F
 Integral buffers will be    131072 words long.
 Raffenetti 2 integral format.
 Two-electron integral symmetry is turned on.
 R6Disp:  Grimme-D2 Dispersion energy=       -0.0020392457 Hartrees.
 Nuclear repulsion after empirical dispersion term =      100.3207511778 Hartrees.
 Leave Link  301 at Fri Jul  9 19:22:27 2021, MaxMem=  4194304000 cpu:         0.1
 (Enter /home/minenky/programs//g09/l302.exe)
 NPDir=0 NMtPBC=     1 NCelOv=     1 NCel=       1 NClECP=     1 NCelD=      1
         NCelK=      1 NCelE2=     1 NClLst=     1 CellRange=     0.0.
 One-electron integrals computed using PRISM.
 One-electron integral symmetry used in STVInt
  12 Symmetry operations used in ECPInt.
 ECPInt:  NShTT=    2346 NPrTT=    6892 LenC2=    2319 LenP2D=    5741.
 LDataN:  DoStor=T MaxTD1= 6 Len=  172
 NBasis=   160 RedAO= T EigKep=  1.43D-05  NBF=    53    27    27    53
 NBsUse=   160 1.00D-06 EigRej= -1.00D+00 NBFU=    53    27    27    53
 Precomputing XC quadrature grid using
 IXCGrd= 4 IRadAn=           5 IRanWt=          -1 IRanGd=           0 AccXCQ= 0.00D+00.
 Generated NRdTot=       0 NPtTot=           0 NUsed=           0 NTot=          32
 NSgBfM=   179   179   179   179   179 MxSgAt=    10 MxSgA2=    10.
 Leave Link  302 at Fri Jul  9 19:22:43 2021, MaxMem=  4194304000 cpu:       193.1
 (Enter /home/minenky/programs//g09/l303.exe)
 DipDrv:  MaxL=1.
 Leave Link  303 at Fri Jul  9 19:22:43 2021, MaxMem=  4194304000 cpu:         2.5
 (Enter /home/minenky/programs//g09/l401.exe)
 Initial guess from the checkpoint file:  "m1_00_503-17-30_C4H6_wB97XD.chk"
 B after Tr=     0.000000    0.000000    0.000000
         Rot=    1.000000    0.000000    0.000000    0.000000 Ang=   0.00 deg.
 Guess basis will be translated and rotated to current coordinates.
 JPrj=2 DoOrth=T DoCkMO=T.
 Initial guess orbital symmetries:
       Occupied  (A2") (A1') (A1') (A2") (A1') (A2") (A1') (A2")
                 (A1') (E') (E') (E") (E") (E') (E')
       Virtual   (?A) (?A) (?A) (?A) (?A) (?A) (?A) (?A) (?A) (?A)
                 (?A) (?A) (?A) (?A) (?A) (?A) (?A) (?A) (?A) (?A)
                 (?A) (?A) (?A) (?A) (?A) (?A) (?A) (?A) (?A) (?A)
                 (?A) (?A) (?A) (?A) (?A) (?A) (?A) (?A) (?A) (?A)
                 (?A) (?A) (?A) (?A) (?A) (?A) (?B) (?B) (?B) (?B)
                 (?B) (?B) (?B) (?B) (?B) (?B) (?B) (?B) (?B) (?B)
                 (?B) (?B) (?B) (?B) (?B) (?B) (?B) (?B) (?B) (?B)
                 (?B) (?B) (?A) (?A) (?A) (?A) (?A) (?A) (?A) (?A)
                 (?A) (?A) (?A) (?A) (?A) (?A) (?A) (?A) (?A) (?A)
                 (?A) (?A) (?A) (?A) (?A) (?A) (?A) (?B) (?B) (?B)
                 (?B) (?B) (?B) (?B) (?B) (?B) (?B) (?B) (?B) (?B)
                 (?B) (?B) (?B) (?B) (?B) (?B) (?B) (?B) (?B) (?B)
                 (?B) (?B) (?B) (?B) (?B) (?B) (?B) (?B) (?B) (?B)
                 (?B) (?B) (?B) (?B) (?B) (?B) (?B) (?B) (?B) (?B)
                 (?B) (?B) (?B) (?B) (?B)
 The electronic state of the initial guess is 1-A1'.
 Leave Link  401 at Fri Jul  9 19:22:45 2021, MaxMem=  4194304000 cpu:        17.2
 (Enter /home/minenky/programs//g09/l502.exe)
 Closed shell SCF:
 Using DIIS extrapolation, IDIIS=  1040.
 Integral symmetry usage will be decided dynamically.
 Keep R1 ints in memory in symmetry-blocked form, NReq=208188858.
 IVT=      250474 IEndB=      250474 NGot=  4194304000 MDV=  4173023751
 LenX=  4173023751 LenY=  4172990910
 Requested convergence on RMS density matrix=1.00D-08 within 380 cycles.
 Requested convergence on MAX density matrix=1.00D-06.
 Requested convergence on             energy=1.00D-06.
 No special actions if energy rises.
 FoFCou: FMM=F IPFlag=           0 FMFlag=           0 FMFlg1=           0
         NFxFlg=           0 DoJE=F BraDBF=F KetDBF=F FulRan=T
         wScrn=  0.000000 ICntrl=     600 IOpCl=  0 I1Cent=           0 NGrid=           0
         NMat0=    1 NMatS0=  12880 NMatT0=    0 NMatD0=    1 NMtDS0=    0 NMtDT0=    0
 Petite list used in FoFCou.

 Cycle   1  Pass 1  IDiag  1:
 E= -155.979656209982    
 DIIS: error= 6.83D-04 at cycle   1 NSaved=   1.
 NSaved= 1 IEnMin= 1 EnMin= -155.979656209982     IErMin= 1 ErrMin= 6.83D-04
 ErrMax= 6.83D-04  0.00D+00 EMaxC= 1.00D-01 BMatC= 2.15D-05 BMatP= 2.15D-05
 IDIUse=3 WtCom= 9.93D-01 WtEn= 6.83D-03
 Coeff-Com:  0.100D+01
 Coeff-En:   0.100D+01
 Coeff:      0.100D+01
 Gap=     0.777 Goal=   None    Shift=    0.000
 RMSDP=1.16D-04 MaxDP=3.19D-03              OVMax= 7.69D-04

 Cycle   2  Pass 1  IDiag  1:
 E= -155.979664689930     Delta-E=       -0.000008479948 Rises=F Damp=F
 DIIS: error= 1.03D-04 at cycle   2 NSaved=   2.
 NSaved= 2 IEnMin= 2 EnMin= -155.979664689930     IErMin= 2 ErrMin= 1.03D-04
 ErrMax= 1.03D-04  0.00D+00 EMaxC= 1.00D-01 BMatC= 8.34D-07 BMatP= 2.15D-05
 IDIUse=3 WtCom= 9.99D-01 WtEn= 1.03D-03
 Coeff-Com:  0.557D-01 0.944D+00
 Coeff-En:   0.000D+00 0.100D+01
 Coeff:      0.556D-01 0.944D+00
 Gap=     0.449 Goal=   None    Shift=    0.000
 RMSDP=1.63D-05 MaxDP=6.23D-04 DE=-8.48D-06 OVMax= 3.33D-04

 Cycle   3  Pass 1  IDiag  1:
 E= -155.979665215002     Delta-E=       -0.000000525071 Rises=F Damp=F
 DIIS: error= 5.92D-05 at cycle   3 NSaved=   3.
 NSaved= 3 IEnMin= 3 EnMin= -155.979665215002     IErMin= 3 ErrMin= 5.92D-05
 ErrMax= 5.92D-05  0.00D+00 EMaxC= 1.00D-01 BMatC= 2.51D-07 BMatP= 8.34D-07
 IDIUse=1 WtCom= 1.00D+00 WtEn= 0.00D+00
 Coeff-Com: -0.133D-01 0.343D+00 0.671D+00
 Coeff:     -0.133D-01 0.343D+00 0.671D+00
 Gap=     0.449 Goal=   None    Shift=    0.000
 RMSDP=2.96D-06 MaxDP=8.33D-05 DE=-5.25D-07 OVMax= 1.44D-04

 Cycle   4  Pass 1  IDiag  1:
 E= -155.979665462434     Delta-E=       -0.000000247432 Rises=F Damp=F
 DIIS: error= 5.35D-06 at cycle   4 NSaved=   4.
 NSaved= 4 IEnMin= 4 EnMin= -155.979665462434     IErMin= 4 ErrMin= 5.35D-06
 ErrMax= 5.35D-06  0.00D+00 EMaxC= 1.00D-01 BMatC= 2.83D-09 BMatP= 2.51D-07
 IDIUse=1 WtCom= 1.00D+00 WtEn= 0.00D+00
 Coeff-Com: -0.241D-02 0.296D-01 0.117D+00 0.856D+00
 Coeff:     -0.241D-02 0.296D-01 0.117D+00 0.856D+00
 Gap=     0.449 Goal=   None    Shift=    0.000
 RMSDP=1.18D-06 MaxDP=3.43D-05 DE=-2.47D-07 OVMax= 1.77D-05

 Cycle   5  Pass 1  IDiag  1:
 E= -155.979665465501     Delta-E=       -0.000000003067 Rises=F Damp=F
 DIIS: error= 1.87D-06 at cycle   5 NSaved=   5.
 NSaved= 5 IEnMin= 5 EnMin= -155.979665465501     IErMin= 5 ErrMin= 1.87D-06
 ErrMax= 1.87D-06  0.00D+00 EMaxC= 1.00D-01 BMatC= 3.46D-10 BMatP= 2.83D-09
 IDIUse=1 WtCom= 1.00D+00 WtEn= 0.00D+00
 Coeff-Com:  0.159D-03-0.167D-01-0.137D-01 0.255D+00 0.775D+00
 Coeff:      0.159D-03-0.167D-01-0.137D-01 0.255D+00 0.775D+00
 Gap=     0.449 Goal=   None    Shift=    0.000
 RMSDP=4.61D-07 MaxDP=1.68D-05 DE=-3.07D-09 OVMax= 4.62D-06

 Cycle   6  Pass 1  IDiag  1:
 E= -155.979665465861     Delta-E=       -0.000000000361 Rises=F Damp=F
 DIIS: error= 2.80D-07 at cycle   6 NSaved=   6.
 NSaved= 6 IEnMin= 6 EnMin= -155.979665465861     IErMin= 6 ErrMin= 2.80D-07
 ErrMax= 2.80D-07  0.00D+00 EMaxC= 1.00D-01 BMatC= 1.17D-11 BMatP= 3.46D-10
 IDIUse=1 WtCom= 1.00D+00 WtEn= 0.00D+00
 Coeff-Com:  0.218D-03-0.657D-02-0.132D-01 0.154D-02 0.147D+00 0.871D+00
 Coeff:      0.218D-03-0.657D-02-0.132D-01 0.154D-02 0.147D+00 0.871D+00
 Gap=     0.449 Goal=   None    Shift=    0.000
 RMSDP=1.11D-07 MaxDP=4.63D-06 DE=-3.61D-10 OVMax= 1.61D-06

 Cycle   7  Pass 1  IDiag  1:
 E= -155.979665465878     Delta-E=       -0.000000000017 Rises=F Damp=F
 DIIS: error= 4.65D-08 at cycle   7 NSaved=   7.
 NSaved= 7 IEnMin= 7 EnMin= -155.979665465878     IErMin= 7 ErrMin= 4.65D-08
 ErrMax= 4.65D-08  0.00D+00 EMaxC= 1.00D-01 BMatC= 2.69D-13 BMatP= 1.17D-11
 IDIUse=1 WtCom= 1.00D+00 WtEn= 0.00D+00
 Coeff-Com: -0.237D-04 0.132D-02 0.161D-02-0.792D-02-0.485D-01-0.718D-01
 Coeff-Com:  0.113D+01
 Coeff:     -0.237D-04 0.132D-02 0.161D-02-0.792D-02-0.485D-01-0.718D-01
 Coeff:      0.113D+01
 Gap=     0.449 Goal=   None    Shift=    0.000
 RMSDP=2.32D-08 MaxDP=5.07D-07 DE=-1.67D-11 OVMax= 4.35D-07

 Cycle   8  Pass 1  IDiag  1:
 E= -155.979665465879     Delta-E=        0.000000000000 Rises=F Damp=F
 DIIS: error= 5.91D-09 at cycle   8 NSaved=   8.
 NSaved= 8 IEnMin= 8 EnMin= -155.979665465879     IErMin= 8 ErrMin= 5.91D-09
 ErrMax= 5.91D-09  0.00D+00 EMaxC= 1.00D-01 BMatC= 3.72D-15 BMatP= 2.69D-13
 IDIUse=1 WtCom= 1.00D+00 WtEn= 0.00D+00
 Coeff-Com: -0.252D-05 0.920D-05 0.911D-04 0.730D-03 0.228D-02-0.108D-01
 Coeff-Com: -0.118D+00 0.113D+01
 Coeff:     -0.252D-05 0.920D-05 0.911D-04 0.730D-03 0.228D-02-0.108D-01
 Coeff:     -0.118D+00 0.113D+01
 Gap=     0.449 Goal=   None    Shift=    0.000
 RMSDP=6.61D-09 MaxDP=1.80D-07 DE=-3.98D-13 OVMax= 7.13D-08

 SCF Done:  E(RwB97XD) =  -155.979665466     A.U. after    8 cycles
            NFock=  8  Conv=0.66D-08     -V/T= 2.0054
 KE= 1.551385931676D+02 PE=-5.619079382199D+02 EE= 1.504689284085D+02
 Leave Link  502 at Fri Jul  9 19:24:18 2021, MaxMem=  4194304000 cpu:      1288.6
 (Enter /home/minenky/programs//g09/l701.exe)
 Compute integral first derivatives.
 ... and contract with generalized density number  0.
 R6Disp: Adding Grimme-D2 dispersion energy 1st derivatives to the gradient.
  12 Symmetry operations used in ECPInt.
 ECPInt:  NShTT=    2346 NPrTT=    6892 LenC2=    2319 LenP2D=    5741.
 LDataN:  DoStor=T MaxTD1= 7 Len=  274
 Leave Link  701 at Fri Jul  9 19:24:23 2021, MaxMem=  4194304000 cpu:        60.2
 (Enter /home/minenky/programs//g09/l702.exe)
 L702 exits ... SP integral derivatives will be done elsewhere.
 Leave Link  702 at Fri Jul  9 19:24:23 2021, MaxMem=  4194304000 cpu:         0.1
 (Enter /home/minenky/programs//g09/l703.exe)
 Compute integral first derivatives, UseDBF=F ICtDFT=           0.
 Integral derivatives from FoFJK, PRISM(SPDF).
 Calling FoFJK, ICntrl=      2127 FMM=F ISym2X=1 I1Cent= 0 IOpClX= 0 NMat=1 NMatS=1 NMatT=0.
 FoFJK:  IHMeth= 1 ICntrl=    2127 DoSepK=T KAlg= 0 I1Cent=   0 FoldK=F
 IRaf=         1 NMat=   1 IRICut=       1 DoRegI=T DoRafI=F ISym2E= 1.
 FoFCou: FMM=F IPFlag=           0 FMFlag=      100000 FMFlg1=         800
         NFxFlg=           0 DoJE=F BraDBF=F KetDBF=F FulRan=T
         wScrn=  0.000000 ICntrl=    2527 IOpCl=  0 I1Cent=           0 NGrid=           0
         NMat0=    1 NMatS0=      1 NMatT0=    0 NMatD0=    1 NMtDS0=    0 NMtDT0=    0
 Petite list used in FoFCou.
 Leave Link  703 at Fri Jul  9 19:24:30 2021, MaxMem=  4194304000 cpu:        88.8
 (Enter /home/minenky/programs//g09/l716.exe)
 Dipole        = 4.44089210D-16 1.11022302D-16 7.10542736D-15
 ***** Axes restored to original set *****
 -------------------------------------------------------------------
 Center     Atomic                   Forces (Hartrees/Bohr)
 Number     Number              X              Y              Z
 -------------------------------------------------------------------
      1        6           0.000000000    0.000000000   -0.000048037
      2        6           0.000000000    0.000000000    0.000048037
      3        6           0.000000000    0.000000000   -0.000830271
      4        1           0.000000000   -0.000027010    0.000126456
      5        1           0.000023392    0.000013505    0.000126456
      6        1          -0.000023392    0.000013505    0.000126456
      7        6           0.000000000    0.000000000    0.000830271
      8        1           0.000000000   -0.000027010   -0.000126456
      9        1          -0.000023392    0.000013505   -0.000126456
     10        1           0.000023392    0.000013505   -0.000126456
 -------------------------------------------------------------------
 Cartesian Forces:  Max     0.000830271 RMS     0.000222384
 Leave Link  716 at Fri Jul  9 19:24:31 2021, MaxMem=  4194304000 cpu:         0.1
 (Enter /home/minenky/programs//g09/l103.exe)

 GradGradGradGradGradGradGradGradGradGradGradGradGradGradGradGradGradGrad
 Berny optimization.
 Using GEDIIS/GDIIS optimizer.
 FormGI is forming the generalized inverse of G from B-inverse, IUseBI=4.
 Internal  Forces:  Max     0.000450903 RMS     0.000147625
 Search for a local minimum.
 Step number   2 out of a maximum of   44
 All quantities printed in internal units (Hartrees-Bohrs-Radians)
 RMS Force = .14762D-03 SwitMx=.10000D-02 MixMth= 2
 Mixed Optimization -- En-DIIS/RFO-DIIS
 Update second derivatives using D2CorX and points    1    2
 DE= -3.08D-05 DEPred=-2.90D-05 R= 1.06D+00
 TightC=F SS=  1.41D+00  RLast= 1.30D-02 DXNew= 5.0454D-01 3.8993D-02
 Trust test= 1.06D+00 RLast= 1.30D-02 DXMaxT set to 3.00D-01
 ITU=  1  0
 Use linear search instead of GDIIS.
     Eigenvalues ---    0.00230   0.00880   0.01181   0.01281   0.01333
     Eigenvalues ---    0.05497   0.05680   0.06066   0.07600   0.13895
     Eigenvalues ---    0.16000   0.16000   0.16000   0.16000   0.16000
     Eigenvalues ---    0.33385   0.34540   0.34540   0.34540   0.34540
     Eigenvalues ---    0.34540   0.37288   0.37486   1.17341
 RFO step:  Lambda=-2.26420766D-06 EMin= 2.30000000D-03
 Quartic linear search produced a step of  0.06321.
 Iteration  1 RMS(Cart)=  0.00038954 RMS(Int)=  0.00000049
 Iteration  2 RMS(Cart)=  0.00000035 RMS(Int)=  0.00000036
 ITry= 1 IFail=0 DXMaxC= 1.41D-03 DCOld= 1.00D+10 DXMaxT= 3.00D-01 DXLimC= 3.00D+00 Rises=F
 ClnCor:  largest displacement from symmetrization is 4.14D-09 for atom     5.
 Variable       Old X    -DE/DX   Delta X   Delta X   Delta X     New X
                                 (Linear)    (Quad)   (Total)
    R1        2.26448   0.00040  -0.00035   0.00055   0.00019   2.26467
    R2        2.75219   0.00045   0.00006   0.00125   0.00132   2.75351
    R3        2.75219   0.00045   0.00006   0.00125   0.00132   2.75351
    R4        2.06261  -0.00007  -0.00011  -0.00018  -0.00028   2.06233
    R5        2.06261  -0.00007  -0.00011  -0.00018  -0.00028   2.06233
    R6        2.06261  -0.00007  -0.00011  -0.00018  -0.00028   2.06233
    R7        2.06261  -0.00007  -0.00011  -0.00018  -0.00028   2.06233
    R8        2.06261  -0.00007  -0.00011  -0.00018  -0.00028   2.06233
    R9        2.06261  -0.00007  -0.00011  -0.00018  -0.00028   2.06233
    A1        1.93662  -0.00011  -0.00019  -0.00063  -0.00082   1.93580
    A2        1.93662  -0.00011  -0.00019  -0.00063  -0.00082   1.93580
    A3        1.93662  -0.00011  -0.00019  -0.00063  -0.00082   1.93580
    A4        1.88395   0.00011   0.00020   0.00066   0.00086   1.88481
    A5        1.88395   0.00011   0.00020   0.00066   0.00086   1.88481
    A6        1.88395   0.00011   0.00020   0.00066   0.00086   1.88481
    A7        1.93662  -0.00011  -0.00019  -0.00063  -0.00082   1.93580
    A8        1.93662  -0.00011  -0.00019  -0.00063  -0.00082   1.93580
    A9        1.93662  -0.00011  -0.00019  -0.00063  -0.00082   1.93580
   A10        1.88395   0.00011   0.00020   0.00066   0.00086   1.88481
   A11        1.88395   0.00011   0.00020   0.00066   0.00086   1.88481
   A12        1.88395   0.00011   0.00020   0.00066   0.00086   1.88481
   A13        3.14159   0.00000   0.00000   0.00000   0.00000   3.14159
   A14        3.14159   0.00000   0.00000   0.00000   0.00000   3.14159
   A15        3.14159   0.00000   0.00000   0.00000   0.00000   3.14159
   A16        3.14159   0.00000   0.00000   0.00000   0.00000   3.14159
    D1        0.00000   0.00000   0.00000   0.00000   0.00000   0.00000
    D2       -2.09440   0.00000   0.00000   0.00000   0.00000  -2.09440
    D3        2.09440   0.00000   0.00000   0.00000   0.00000   2.09440
    D4       -2.09440   0.00000   0.00000   0.00000   0.00000  -2.09440
    D5        2.09440   0.00000   0.00000   0.00000   0.00000   2.09440
    D6        0.00000   0.00000   0.00000   0.00000   0.00000   0.00000
    D7        2.09440   0.00000   0.00000   0.00000   0.00000   2.09440
    D8        0.00000   0.00000   0.00000   0.00000   0.00000   0.00000
    D9       -2.09440   0.00000   0.00000   0.00000   0.00000  -2.09440
         Item               Value     Threshold  Converged?
 Maximum Force            0.000451     0.000015     NO 
 RMS     Force            0.000148     0.000010     NO 
 Maximum Displacement     0.001414     0.000060     NO 
 RMS     Displacement     0.000390     0.000040     NO 
 Predicted change in Energy=-1.246301D-06
 Lowest energy point so far.  Saving SCF results.
 GradGradGradGradGradGradGradGradGradGradGradGradGradGradGradGradGradGrad

 Leave Link  103 at Fri Jul  9 19:24:33 2021, MaxMem=  4194304000 cpu:        28.8
 (Enter /home/minenky/programs//g09/l202.exe)
                          Input orientation:                          
 ---------------------------------------------------------------------
 Center     Atomic      Atomic             Coordinates (Angstroms)
 Number     Number       Type             X           Y           Z
 ---------------------------------------------------------------------
      1          6           0        0.000000    0.000000    0.599207
      2          6           0        0.000000    0.000000   -0.599207
      3          6           0        0.000000    0.000000   -2.056301
      4          1           0        0.000000    1.019443   -2.445854
      5          1           0       -0.882864   -0.509722   -2.445854
      6          1           0        0.882864   -0.509722   -2.445854
      7          6           0        0.000000    0.000000    2.056301
      8          1           0        0.000000    1.019443    2.445854
      9          1           0        0.882864   -0.509722    2.445854
     10          1           0       -0.882864   -0.509722    2.445854
 ---------------------------------------------------------------------
                    Distance matrix (angstroms):
                    1          2          3          4          5
     1  C    0.000000
[...]
     33  0.413239D-04 -0.349574D-02 -0.413239D-04  0.353650D-02  0.413267D-02
     34  0.373780D-03  0.283261D-02 -0.320405D-02  0.373780D-03  0.240629D-02
               11            12            13            14            15 
     11  0.105229D+00
     12 -0.195348D-01  0.105229D+00
     13 -0.406248D-01  0.111901D-01  0.523296D-01
     14  0.111901D-01 -0.406248D-01  0.103557D-01  0.523296D-01
     15 -0.372086D-01 -0.372086D-01  0.737776D-02  0.737776D-02  0.553071D-01
     16 -0.245874D-02 -0.245874D-02  0.195849D-02  0.195849D-02 -0.443361D-02
     17 -0.301547D-03  0.325257D-02 -0.165546D-02 -0.819755D-03  0.195768D-02
     18  0.325257D-02 -0.301547D-03 -0.819755D-03 -0.165546D-02  0.195768D-02
     19 -0.165546D-02 -0.819755D-03  0.803674D-03  0.170071D-02 -0.196113D-02
     20 -0.819755D-03 -0.165546D-02  0.170071D-02  0.803674D-03 -0.196113D-02
     21  0.195768D-02  0.195768D-02 -0.196113D-02 -0.196113D-02  0.446711D-02
     22  0.556634D-02  0.556634D-02 -0.601811D-02 -0.601811D-02  0.120379D-01
     23  0.123793D-01  0.123793D-01 -0.807777D-02 -0.807777D-02  0.161571D-01
     24 -0.388628D-02  0.388628D-02 -0.229342D-02  0.229342D-02  0.000000D+00
     25  0.886556D-02 -0.886556D-02  0.250705D-02 -0.250705D-02  0.000000D+00
     26  0.437365D-02 -0.437365D-02  0.560933D-02 -0.560933D-02  0.000000D+00
     27  0.407887D-02 -0.494199D-02  0.597334D-02 -0.561498D-02 -0.358433D-03
     28  0.494199D-02 -0.407887D-02  0.561498D-02 -0.597334D-02  0.358433D-03
     29 -0.687335D-03  0.395737D-02 -0.565215D-02  0.326767D-03  0.532479D-02
     30 -0.982108D-03  0.338903D-02 -0.528814D-02  0.321115D-03  0.496636D-02
     31 -0.118991D-03  0.425215D-02 -0.564650D-02 -0.372431D-04  0.568323D-02
     32 -0.395737D-02  0.687335D-03 -0.326767D-03  0.565215D-02 -0.532479D-02
     33 -0.425215D-02  0.118991D-03  0.372431D-04  0.564650D-02 -0.568323D-02
     34 -0.338903D-02  0.982108D-03 -0.321115D-03  0.528814D-02 -0.496636D-02
               16            17            18            19            20 
     16  0.107999D+00
     17 -0.223038D-01  0.105229D+00
     18 -0.223038D-01 -0.195348D-01  0.105229D+00
     19 -0.372090D-01 -0.406248D-01  0.111901D-01  0.523296D-01
     20 -0.372090D-01  0.111901D-01 -0.406248D-01  0.103557D-01  0.523296D-01
     21  0.777397D-02 -0.372086D-01 -0.372086D-01  0.737776D-02  0.737776D-02
     22 -0.247602D-01  0.123793D-01  0.123793D-01 -0.807777D-02 -0.807777D-02
     23 -0.111343D-01  0.556634D-02  0.556634D-02 -0.601811D-02 -0.601811D-02
     24  0.000000D+00  0.886556D-02 -0.886556D-02  0.250705D-02 -0.250705D-02
     25  0.000000D+00 -0.388628D-02  0.388628D-02 -0.229342D-02  0.229342D-02
     26  0.000000D+00  0.437365D-02 -0.437365D-02  0.560933D-02 -0.560933D-02
     27 -0.326948D-02 -0.687335D-03  0.395737D-02 -0.565215D-02  0.326767D-03
     28  0.326948D-02 -0.395737D-02  0.687335D-03 -0.326767D-03  0.565215D-02
     29  0.863188D-03  0.407887D-02 -0.494199D-02  0.597334D-02 -0.561498D-02
     30 -0.240629D-02 -0.982108D-03  0.338903D-02 -0.528814D-02  0.321115D-03
     31  0.413267D-02 -0.425215D-02  0.118991D-03  0.372431D-04  0.564650D-02
     32 -0.863188D-03  0.494199D-02 -0.407887D-02  0.561498D-02 -0.597334D-02
     33 -0.413267D-02 -0.118991D-03  0.425215D-02 -0.564650D-02 -0.372431D-04
     34  0.240629D-02 -0.338903D-02  0.982108D-03 -0.321115D-03  0.528814D-02
               21            22            23            24            25 
     21  0.553071D-01
     22  0.161571D-01  0.750020D-01
     23  0.120379D-01  0.159880D-01  0.750020D-01
     24  0.000000D+00  0.000000D+00  0.000000D+00  0.213251D-01
     25  0.000000D+00  0.000000D+00  0.000000D+00 -0.715313D-02  0.213251D-01
     26  0.000000D+00  0.000000D+00  0.000000D+00  0.161272D-02  0.161272D-02
     27  0.532479D-02  0.463932D-03 -0.946960D-03 -0.289193D-02  0.369842D-02
     28 -0.532479D-02 -0.463932D-03  0.946960D-03 -0.289193D-02  0.369842D-02
     29 -0.358433D-03 -0.946960D-03  0.463932D-03  0.369842D-02 -0.289193D-02
     30  0.496636D-02 -0.483028D-03 -0.483028D-03 -0.806224D-03 -0.806224D-03
     31 -0.568323D-02 -0.141089D-02  0.141089D-02 -0.806224D-03 -0.806224D-03
     32  0.358433D-03  0.946960D-03 -0.463932D-03  0.369842D-02 -0.289193D-02
     33  0.568323D-02  0.141089D-02 -0.141089D-02 -0.806224D-03 -0.806224D-03
     34 -0.496636D-02  0.483028D-03  0.483028D-03 -0.806224D-03 -0.806224D-03
               26            27            28            29            30 
     26  0.130970D-01
     27  0.327597D-02  0.121373D-01
     28  0.327597D-02  0.325047D-02  0.121373D-01
     29  0.327597D-02 -0.641642D-02 -0.569022D-02  0.121373D-01
     30 -0.654501D-02  0.244496D-02 -0.571572D-02  0.244496D-02  0.114349D-01
     31 -0.654501D-02 -0.644192D-02  0.317116D-02  0.317116D-02  0.327424D-02
     32  0.327597D-02 -0.569022D-02 -0.641642D-02  0.325047D-02 -0.571572D-02
     33 -0.654501D-02  0.317116D-02 -0.644192D-02 -0.644192D-02  0.327424D-02
     34 -0.654501D-02 -0.571572D-02  0.244496D-02 -0.571572D-02 -0.488644D-02
               31            32            33            34 
     31  0.128873D-01
     32 -0.644192D-02  0.121373D-01
     33 -0.633883D-02  0.317116D-02  0.128873D-01
     34  0.327424D-02  0.244496D-02  0.327424D-02  0.114349D-01
 Leave Link  716 at Fri Jul  9 19:27:49 2021, MaxMem=  4194304000 cpu:         9.0
 (Enter /home/minenky/programs//g09/l103.exe)

 GradGradGradGradGradGradGradGradGradGradGradGradGradGradGradGradGradGrad
 Berny optimization.
 Red2BG is reusing G-inverse.
 Internal  Forces:  Max     0.000005600 RMS     0.000001117
 Search for a local minimum.
 Step number   1 out of a maximum of    2
 All quantities printed in internal units (Hartrees-Bohrs-Radians)
 Second derivative matrix not updated -- analytic derivatives used.
 ITU=  0
     Eigenvalues ---    0.00001   0.01327   0.01917   0.03251   0.03926
     Eigenvalues ---    0.04431   0.05342   0.06254   0.10756   0.12331
     Eigenvalues ---    0.12412   0.14761   0.14918   0.15361   0.16636
     Eigenvalues ---    0.33929   0.33936   0.33944   0.34006   0.34093
     Eigenvalues ---    0.34150   0.36757   0.37065   1.11798
 Angle between quadratic step and forces=  40.51 degrees.
 Linear search not attempted -- first point.
 Iteration  1 RMS(Cart)=  0.00000532 RMS(Int)=  0.00000000
 Iteration  2 RMS(Cart)=  0.00000000 RMS(Int)=  0.00000000
 ITry= 1 IFail=0 DXMaxC= 1.20D-05 DCOld= 1.00D+10 DXMaxT= 3.00D-01 DXLimC= 3.00D+00 Rises=F
 ClnCor:  largest displacement from symmetrization is 1.66D-08 for atom     5.
 Variable       Old X    -DE/DX   Delta X   Delta X   Delta X     New X
                                 (Linear)    (Quad)   (Total)
    R1        2.26483   0.00001   0.00000   0.00000   0.00000   2.26484
    R2        2.75381   0.00000   0.00000   0.00000   0.00000   2.75381
    R3        2.75381   0.00000   0.00000   0.00000   0.00000   2.75381
    R4        2.06231   0.00000   0.00000   0.00000   0.00000   2.06231
    R5        2.06231   0.00000   0.00000   0.00000   0.00000   2.06231
    R6        2.06231   0.00000   0.00000   0.00000   0.00000   2.06231
    R7        2.06231   0.00000   0.00000   0.00000   0.00000   2.06231
    R8        2.06231   0.00000   0.00000   0.00000   0.00000   2.06231
    R9        2.06231   0.00000   0.00000   0.00000   0.00000   2.06231
    A1        1.93558   0.00000   0.00000   0.00000   0.00000   1.93559
    A2        1.93558   0.00000   0.00000   0.00000   0.00000   1.93559
    A3        1.93558   0.00000   0.00000   0.00000   0.00000   1.93559
    A4        1.88504   0.00000   0.00000   0.00000   0.00000   1.88503
    A5        1.88504   0.00000   0.00000   0.00000   0.00000   1.88503
    A6        1.88504   0.00000   0.00000   0.00000   0.00000   1.88503
    A7        1.93558   0.00000   0.00000   0.00000   0.00000   1.93559
    A8        1.93558   0.00000   0.00000   0.00000   0.00000   1.93559
    A9        1.93558   0.00000   0.00000   0.00000   0.00000   1.93559
   A10        1.88504   0.00000   0.00000   0.00000   0.00000   1.88503
   A11        1.88504   0.00000   0.00000   0.00000   0.00000   1.88503
   A12        1.88504   0.00000   0.00000   0.00000   0.00000   1.88503
   A13        3.14159   0.00000   0.00000   0.00000   0.00000   3.14159
   A14        3.14159   0.00000   0.00000   0.00000   0.00000   3.14159
   A15        3.14159   0.00000   0.00000   0.00000   0.00000   3.14159
   A16        3.14159   0.00000   0.00000   0.00000   0.00000   3.14159
    D1        0.00000   0.00000   0.00000   0.00000   0.00000   0.00000
    D2       -2.09440   0.00000   0.00000   0.00000   0.00000  -2.09440
    D3        2.09440   0.00000   0.00000   0.00000   0.00000   2.09440
    D4       -2.09440   0.00000   0.00000   0.00000   0.00000  -2.09440
    D5        2.09440   0.00000   0.00000   0.00000   0.00000   2.09440
    D6        0.00000   0.00000   0.00000   0.00000   0.00000   0.00000
    D7        2.09440   0.00000   0.00000   0.00000   0.00000   2.09440
    D8        0.00000   0.00000   0.00000   0.00000   0.00000   0.00000
    D9       -2.09440   0.00000   0.00000   0.00000   0.00000  -2.09440
         Item               Value     Threshold  Converged?
 Maximum Force            0.000006     0.000015     YES
 RMS     Force            0.000001     0.000010     YES
 Maximum Displacement     0.000012     0.000060     YES
 RMS     Displacement     0.000005     0.000040     YES
 Predicted change in Energy=-3.131706D-11
 Optimization completed.
    -- Stationary point found.
                           ----------------------------
                           !   Optimized Parameters   !
                           ! (Angstroms and Degrees)  !
 --------------------------                            --------------------------
 ! Name  Definition              Value          Derivative Info.                !
 --------------------------------------------------------------------------------
 ! R1    R(1,2)                  1.1985         -DE/DX =    0.0                 !
 ! R2    R(1,7)                  1.4573         -DE/DX =    0.0                 !
 ! R3    R(2,3)                  1.4573         -DE/DX =    0.0                 !
 ! R4    R(3,4)                  1.0913         -DE/DX =    0.0                 !
 ! R5    R(3,5)                  1.0913         -DE/DX =    0.0                 !
 ! R6    R(3,6)                  1.0913         -DE/DX =    0.0                 !
 ! R7    R(7,8)                  1.0913         -DE/DX =    0.0                 !
 ! R8    R(7,9)                  1.0913         -DE/DX =    0.0                 !
 ! R9    R(7,10)                 1.0913         -DE/DX =    0.0                 !
 ! A1    A(2,3,4)              110.9007         -DE/DX =    0.0                 !
 ! A2    A(2,3,5)              110.9007         -DE/DX =    0.0                 !
 ! A3    A(2,3,6)              110.9007         -DE/DX =    0.0                 !
 ! A4    A(4,3,5)              108.0047         -DE/DX =    0.0                 !
 ! A5    A(4,3,6)              108.0047         -DE/DX =    0.0                 !
 ! A6    A(5,3,6)              108.0047         -DE/DX =    0.0                 !
 ! A7    A(1,7,8)              110.9007         -DE/DX =    0.0                 !
 ! A8    A(1,7,9)              110.9007         -DE/DX =    0.0                 !
 ! A9    A(1,7,10)             110.9007         -DE/DX =    0.0                 !
 ! A10   A(8,7,9)              108.0047         -DE/DX =    0.0                 !
 ! A11   A(8,7,10)             108.0047         -DE/DX =    0.0                 !
 ! A12   A(9,7,10)             108.0047         -DE/DX =    0.0                 !
 ! A13   L(2,1,7,8,-1)         180.0            -DE/DX =    0.0                 !
 ! A14   L(1,2,3,4,-1)         180.0            -DE/DX =    0.0                 !
 ! A15   L(2,1,7,8,-2)         180.0            -DE/DX =    0.0                 !
 ! A16   L(1,2,3,4,-2)         180.0            -DE/DX =    0.0                 !
 ! D1    D(4,3,7,8)              0.0            -DE/DX =    0.0                 !
 ! D2    D(4,3,7,9)           -120.0            -DE/DX =    0.0                 !
 ! D3    D(4,3,7,10)           120.0            -DE/DX =    0.0                 !
 ! D4    D(5,3,7,8)           -120.0            -DE/DX =    0.0                 !
 ! D5    D(5,3,7,9)            120.0            -DE/DX =    0.0                 !
 ! D6    D(5,3,7,10)             0.0            -DE/DX =    0.0                 !
 ! D7    D(6,3,7,8)            120.0            -DE/DX =    0.0                 !
 ! D8    D(6,3,7,9)              0.0            -DE/DX =    0.0                 !
 ! D9    D(6,3,7,10)          -120.0            -DE/DX =    0.0                 !
 --------------------------------------------------------------------------------
 GradGradGradGradGradGradGradGradGradGradGradGradGradGradGradGradGradGrad

 Leave Link  103 at Fri Jul  9 19:27:51 2021, MaxMem=  4194304000 cpu:        25.9
 (Enter /home/minenky/programs//g09/l9999.exe)
 1\1\GINC-CN514-05-R\Freq\RwB97XD\def2TZVP\C4H6\MINENKY\09-Jul-2021\0\\
 #P Geom=AllCheck Guess=TCheck SCRF=Check GenChk RwB97XD/def2TZVP Freq\
 \The PBEPBE optimization and frequencies\\0,1\C,0.,0.,0.5992482405\C,0
 .,0.,-0.5992482405\C,0.,0.,-2.0565022539\H,0.,1.019518727,-2.445833492
 3\H,-0.8829291172,-0.5097593635,-2.4458334923\H,0.8829291172,-0.509759
 3635,-2.4458334923\C,0.,0.,2.0565022539\H,0.,1.019518727,2.4458334923\
 H,0.8829291172,-0.5097593635,2.4458334923\H,-0.8829291172,-0.509759363
 5,2.4458334923\\Version=AM64L-G09RevD.01\State=1-A1'\HF=-155.979667\RM
 SD=2.227e-09\RMSF=1.044e-06\ZeroPoint=0.0847733\Thermal=0.0904607\Dipo
 le=0.,0.,0.\DipoleDeriv=-0.1943999,0.,0.,0.,-0.1944906,0.0002168,0.,-0
 .0000988,-0.0004858,-0.1943999,0.,0.,0.,-0.1944906,-0.0002168,0.,0.000
 0988,-0.0004858,0.1468869,0.,0.,0.,0.146616,0.0000752,0.,-0.0001044,0.
 1359791,0.0934816,0.,0.,0.,-0.061595,0.0829927,0.,0.027018,-0.0450245,
 -0.0229051,-0.0671361,-0.0719366,-0.0671234,0.0547236,-0.0414706,-0.02
 34701,-0.0135105,-0.0451295,-0.0229051,0.0671361,0.0719366,0.0671234,0
 .0547236,-0.0414706,0.0234701,-0.0135105,-0.0451295,0.1468869,0.,0.,0.
 ,0.146616,-0.0000752,0.,0.0001044,0.1359791,0.0934816,0.,0.,0.,-0.0615
 95,-0.0829927,0.,-0.027018,-0.0450245,-0.022905,0.0671361,-0.0719366,0
 .0671234,0.0547236,0.0414706,-0.0234701,0.0135105,-0.0451295,-0.022905
 ,-0.0671361,0.0719366,-0.0671234,0.0547236,0.0414706,0.0234701,0.01351
 05,-0.0451295\Polar=35.0654223,0.,35.0670334,0.,0.,69.5656388\PG=D03H 
 [C3(C1C1.C1C1),3SGV(H2)]\NImag=0\\0.09392137,0.,0.09394727,0.,0.000025
 33,1.46048330,-0.04041220,0.,0.,0.09392137,0.,-0.04041435,-0.00000126,
 0.,0.09394727,0.,0.00000126,-1.10705179,0.,-0.00002533,1.46048330,0.00
 449336,0.,0.,-0.06466692,0.,0.,0.54682356,0.,0.00449142,0.00000054,0.,
 -0.06467087,-0.00000447,0.,0.54683666,0.,-0.00000155,-0.00511241,0.,0.
 00002812,-0.29085599,0.,-0.00000083,0.52240597,0.00089753,0.,0.,-0.001
 54455,0.,0.,-0.04519076,0.,0.,0.04436070,0.,-0.00009679,-0.00176996,0.
 ,0.00519407,0.00286256,0.,-0.28354700,0.08572990,0.,0.30506452,0.,-0.0
 0083442,0.00002407,0.,0.03272702,-0.01916672,0.,0.08708601,-0.07602653
 ,0.,-0.09563315,0.08805594,0.00015163,-0.00043053,0.00153262,0.0035068
 2,0.00291767,-0.00247642,-0.22394730,-0.10321691,-0.07424979,0.0007737
 8,0.00094255,0.00129885,0.23988856,-0.00043062,0.00064922,0.00088445,0
 .00291970,0.00013263,-0.00142456,-0.10322202,-0.10477136,-0.04287097,-
 0.02515739,-0.01320667,-0.01091129,0.11288807,0.10953665,0.00072302,0.
 00041734,0.00002295,-0.02834641,-0.01636415,-0.01917438,-0.07541581,-0
 .04354229,-0.07601494,0.01009887,0.00433081,0.00394219,0.08282074,0.04
 781658,0.08805594,0.00015163,0.00043053,-0.00153262,0.00350682,-0.0029
 1767,0.00247642,-0.22394730,0.10321691,0.07424979,0.00077378,-0.000942
 55,-0.00129885,-0.02019689,0.01304997,0.00880003,0.23988856,0.00043062
 ,0.00064922,0.00088445,-0.00291970,0.00013263,-0.00142456,0.10322202,-
 0.10477136,-0.04287097,0.02515739,-0.01320667,-0.01091129,-0.01304997,
 0.00776400,0.00658048,-0.11288807,0.10953665,-0.00072302,0.00041734,0.
 00002295,0.02834641,-0.01636415,-0.01917438,0.07541581,-0.04354229,-0.
 07601494,-0.01009887,0.00433081,0.00394219,-0.00880003,0.00658048,0.00
 394219,-0.08282074,0.04781658,0.08805594,-0.06466692,0.,0.,0.00449336,
 0.,0.,0.00682311,0.,0.,-0.00018359,0.,0.,-0.00011285,0.00004088,0.0015
 6969,-0.00011285,-0.00004088,-0.00156969,0.54682356,0.,-0.06467087,0.0
 0000447,0.,0.00449142,-0.00000054,0.,0.00682419,-0.00000176,0.,-0.0000
 8946,-0.00181251,0.00004095,-0.00015981,0.00090622,-0.00004095,-0.0001
 5981,0.00090622,0.,0.54683666,0.,-0.00002812,-0.29085599,0.,0.00000155
 ,-0.00511241,0.,0.00000176,0.00222776,0.,0.00019065,-0.00021116,-0.000
 16510,-0.00009535,-0.00021081,0.00016510,-0.00009535,-0.00021081,0.,0.
 00000083,0.52240597,-0.00154455,0.,0.,0.00089753,0.,0.,-0.00018359,0.,
 0.,0.00008831,0.,0.,0.00000742,-0.00005199,-0.00010757,0.00000742,0.00
 005199,0.00010757,-0.04519076,0.,0.,0.04436070,0.,0.00519407,-0.002862
 56,0.,-0.00009679,0.00176996,0.,-0.00008946,-0.00019065,0.,-0.00006773
 ,0.00008056,0.00000942,-0.00001715,-0.00001592,-0.00000942,-0.00001715
 ,-0.00001592,0.,-0.28354700,-0.08572990,0.,0.30506452,0.,-0.03272702,-
 0.01916672,0.,0.00083442,0.00002407,0.,0.00181251,-0.00021116,0.,-0.00
 008056,-0.00067100,0.00004000,-0.00010112,0.00005551,-0.00004000,-0.00
 010112,0.00005551,0.,-0.08708601,-0.07602653,0.,0.09563315,0.08805594,
 0.00350682,-0.00291767,-0.00247642,0.00015163,0.00043053,0.00153262,-0
 .00011285,-0.00004095,-0.00016510,0.00000742,-0.00000942,0.00004000,-0
 .00002944,0.00003071,-0.00006757,-0.00002872,0.00006757,0.00006977,-0.
 22394730,0.10321691,-0.07424979,0.00077378,-0.00094255,0.00129885,0.23
 988856,-0.00291970,0.00013263,0.00142456,0.00043062,0.00064922,-0.0008
 8445,-0.00004088,-0.00015981,0.00009535,0.00005199,-0.00001715,0.00010
 112,-0.00003071,0.00001971,-0.00008520,0.00006757,0.00004930,-0.000040
 28,0.10322202,-0.10477136,0.04287097,0.02515739,-0.01320667,0.01091129
 ,-0.11288807,0.10953665,-0.02834641,0.01636415,-0.01917438,0.00072302,
 -0.00041734,0.00002295,0.00156969,-0.00090622,-0.00021081,-0.00010757,
 0.00001592,0.00005551,-0.00006757,0.00008520,0.00005551,-0.00006977,0.
 00004028,-0.00067100,-0.07541581,0.04354229,-0.07601494,0.01009887,-0.
 00433081,0.00394219,0.08282074,-0.04781658,0.08805594,0.00350682,0.002
 91767,0.00247642,0.00015163,-0.00043053,-0.00153262,-0.00011285,0.0000
 4095,0.00016510,0.00000742,0.00000942,-0.00004000,-0.00002872,-0.00006
 757,-0.00006977,-0.00002944,-0.00003071,0.00006757,-0.22394730,-0.1032
 1691,0.07424979,0.00077378,0.00094255,-0.00129885,-0.02019689,-0.01304
 997,0.00880003,0.23988856,0.00291970,0.00013263,0.00142456,-0.00043062
 ,0.00064922,-0.00088445,0.00004088,-0.00015981,0.00009535,-0.00005199,
 -0.00001715,0.00010112,-0.00006757,0.00004930,-0.00004028,0.00003071,0
 .00001971,-0.00008520,-0.10322202,-0.10477136,0.04287097,-0.02515739,-
 0.01320667,0.01091129,0.01304997,0.00776400,-0.00658048,0.11288807,0.1
 0953665,0.02834641,0.01636415,-0.01917438,-0.00072302,-0.00041734,0.00
 002295,-0.00156969,-0.00090622,-0.00021081,0.00010757,0.00001592,0.000
 05551,0.00006977,0.00004028,-0.00067100,0.00006757,0.00008520,0.000055
 51,0.07541581,0.04354229,-0.07601494,-0.01009887,-0.00433081,0.0039421
 9,-0.00880003,-0.00658048,0.00394219,-0.08282074,-0.04781658,0.0880559
 4\\0.,0.,-0.00000381,0.,0.,0.00000381,0.,0.,-0.00000007,0.,-0.00000047
 ,0.00000062,0.00000041,0.00000024,0.00000062,-0.00000041,0.00000024,0.
 00000062,0.,0.,0.00000007,0.,-0.00000047,-0.00000062,-0.00000041,0.000
 00024,-0.00000062,0.00000041,0.00000024,-0.00000062\\\@


 A DANDELION FROM A LOVER MEANS MORE THAN AN ORCHID FROM A FRIEND.
 Job cpu time:       0 days  0 hours 18 minutes 37.8 seconds.
 File lengths (MBytes):  RWF=     17 Int=      0 D2E=      0 Chk=      3 Scr=      1
 Normal termination of Gaussian 09 at Fri Jul  9 19:27:52 2021.
