 Entering Gaussian System, Link 0=g09
 Initial command:
 /home/minenky/programs//g09/l1.exe "/local/scratch/minenky/m1_00_120836-08-0-C32H16_wB97XD/Gau-29730.inp" -scrdir="/local/scratch/minenky/m1_00_120836-08-0-C32H16_wB97XD/"
 Entering Link 1 = /home/minenky/programs//g09/l1.exe PID=     29731.
  
 Copyright (c) 1988,1990,1992,1993,1995,1998,2003,2009,2013,
            Gaussian, Inc.  All Rights Reserved.
  
 This is part of the Gaussian(R) 09 program.  It is based on
 the Gaussian(R) 03 system (copyright 2003, Gaussian, Inc.),
 the Gaussian(R) 98 system (copyright 1998, Gaussian, Inc.),
 the Gaussian(R) 94 system (copyright 1995, Gaussian, Inc.),
 the Gaussian 92(TM) system (copyright 1992, Gaussian, Inc.),
 the Gaussian 90(TM) system (copyright 1990, Gaussian, Inc.),
 the Gaussian 88(TM) system (copyright 1988, Gaussian, Inc.),
 the Gaussian 86(TM) system (copyright 1986, Carnegie Mellon
 University), and the Gaussian 82(TM) system (copyright 1983,
 Carnegie Mellon University). Gaussian is a federally registered
 trademark of Gaussian, Inc.
  
 This software contains proprietary and confidential information,
 including trade secrets, belonging to Gaussian, Inc.
  
 This software is provided under written license and may be
 used, copied, transmitted, or stored only in accord with that
 written license.
  
 The following legend is applicable only to US Government
 contracts under FAR:
  
                    RESTRICTED RIGHTS LEGEND
  
 Use, reproduction and disclosure by the US Government is
 subject to restrictions as set forth in subparagraphs (a)
 and (c) of the Commercial Computer Software - Restricted
 Rights clause in FAR 52.227-19.
  
 Gaussian, Inc.
 340 Quinnipiac St., Bldg. 40, Wallingford CT 06492
  
  
 ---------------------------------------------------------------
 Warning -- This program may not be used in any manner that
 competes with the business of Gaussian, Inc. or will provide
 assistance to any competitor of Gaussian, Inc.  The licensee
 of this program is prohibited from giving any competitor of
 Gaussian, Inc. access to this program.  By using this program,
 the user acknowledges that Gaussian, Inc. is engaged in the
 business of creating and licensing software in the field of
 computational chemistry and represents and warrants to the
 licensee that it is not a competitor of Gaussian, Inc. and that
 it will not use this program in any manner prohibited above.
 ---------------------------------------------------------------
  

 Cite this work as:
 Gaussian 09, Revision D.01,
 M. J. Frisch, G. W. Trucks, H. B. Schlegel, G. E. Scuseria, 
 M. A. Robb, J. R. Cheeseman, G. Scalmani, V. Barone, B. Mennucci, 
 G. A. Petersson, H. Nakatsuji, M. Caricato, X. Li, H. P. Hratchian, 
 A. F. Izmaylov, J. Bloino, G. Zheng, J. L. Sonnenberg, M. Hada, 
 M. Ehara, K. Toyota, R. Fukuda, J. Hasegawa, M. Ishida, T. Nakajima, 
 Y. Honda, O. Kitao, H. Nakai, T. Vreven, J. A. Montgomery, Jr., 
 J. E. Peralta, F. Ogliaro, M. Bearpark, J. J. Heyd, E. Brothers, 
 K. N. Kudin, V. N. Staroverov, T. Keith, R. Kobayashi, J. Normand, 
 K. Raghavachari, A. Rendell, J. C. Burant, S. S. Iyengar, J. Tomasi, 
 M. Cossi, N. Rega, J. M. Millam, M. Klene, J. E. Knox, J. B. Cross, 
 V. Bakken, C. Adamo, J. Jaramillo, R. Gomperts, R. E. Stratmann, 
 O. Yazyev, A. J. Austin, R. Cammi, C. Pomelli, J. W. Ochterski, 
 R. L. Martin, K. Morokuma, V. G. Zakrzewski, G. A. Voth, 
 P. Salvador, J. J. Dannenberg, S. Dapprich, A. D. Daniels, 
 O. Farkas, J. B. Foresman, J. V. Ortiz, J. Cioslowski, 
 and D. J. Fox, Gaussian, Inc., Wallingford CT, 2013.
 
 ******************************************
 Gaussian 09:  AM64L-G09RevD.01 24-Apr-2013
                27-Jul-2019 
 ******************************************
 %Mem=32000MB
 %NProcShared=16
 Will use up to   16 processors via shared memory.
 %Chk=m1_00_120836-08-0-C32H16_wB97XD
 ----------------------------------------------------------------------
 #P wB97XD/def2tzvp opt=(tight) freq integral(Grid=ultrafine) # SCF(Max
 Cycle=380) 5d 7f GFPrint
 ----------------------------------------------------------------------
 1/7=10,14=-1,18=20,19=15,26=4,38=1/1,3;
 2/9=110,12=2,17=6,18=5,40=1/2;
 3/5=44,7=101,8=11,11=2,16=1,24=100,25=1,30=1,71=1,74=-58,75=-5/1,2,3;
 4//1;
 5/5=2,7=380,38=5/2;
 6/7=2,8=2,9=2,10=2,28=1/1;
 7//1,2,3,16;
 1/7=10,14=-1,18=20,19=15,26=4/3(2);
 2/9=110/2;
 99//99;
 2/9=110/2;
 3/5=44,7=101,8=11,11=2,16=1,25=1,30=1,71=1,74=-58,75=-5/1,2,3;
 4/5=5,16=3,69=1/1;
 5/5=2,7=380,38=5/2;
 7//1,2,3,16;
 1/7=10,14=-1,18=20,19=15,26=4/3(-5);
 2/9=110/2;
 6/7=2,8=2,9=2,10=2,19=2,28=1/1;
 99/9=1/99;
 Leave Link    1 at Sat Jul 27 13:19:25 2019, MaxMem=  4194304000 cpu:         1.5
 (Enter /home/minenky/programs//g09/l101.exe)
 ---------------------------------------
 The PBEPBE optimization and frequencies
 ---------------------------------------
 Symbolic Z-matrix:
 Charge =  0 Multiplicity = 1
 C                    -2.90327  -1.67174   0. 
 C                    -2.77798   1.14023   0. 
 C                    -1.48261   3.19787   0. 
 C                    -2.68476   2.57032   0. 
 C                    -0.26378   2.44303   0. 
 C                     0.98174   3.08857   0. 
 C                     2.00219  -1.91894   0. 
 C                    -0.47106  -3.22417   0. 
 C                     0.70724  -3.96312   0. 
 C                     1.93281  -3.31833   0. 
 C                    -0.43786  -1.829     0. 
 C                     0.80974  -1.16677   0. 
 C                     0.86455   0.27609   0. 
 C                    -0.32955   1.03195   0. 
 C                    -1.60629   0.37732   0. 
 C                    -1.6759   -1.05407   0. 
 C                    -4.10767  -0.91899   0. 
 C                    -4.05499   0.48864   0. 
 C                    -5.2709    1.21968   0. 
 C                    -6.47735   0.57034   0. 
 C                    -6.52712  -0.84052   0. 
 C                    -5.36849  -1.57176   0. 
 C                     3.28844  -1.23837   0. 
 C                     4.49056  -1.94908   0. 
 C                     5.71116  -1.28235   0. 
 C                     5.75561   0.10395   0. 
 C                     3.32566   0.17363   0. 
 C                     4.56775   0.84426   0. 
 C                     4.59147   2.28639   0. 
 C                     3.44645   3.00261   0. 
 C                     2.15913   2.35049   0. 
 C                     2.10484   0.93253   0. 
 H                    -2.96011  -2.77245   0. 
 H                    -1.41824   4.292     0. 
 H                    -3.62586   3.14182   0. 
 H                     1.022     4.18493   0. 
 H                    -1.44586  -3.73578   0. 
 H                     0.66368  -5.05719   0. 
 H                     2.87005  -3.89588   0. 
 H                    -5.21693   2.31904   0. 
 H                    -7.41329   1.13846   0. 
 H                    -7.50093  -1.34097   0. 
 H                    -5.39795  -2.66728   0. 
 H                     4.45779  -3.04948   0. 
 H                     6.6425   -1.85836   0. 
 H                     6.7197    0.62496   0. 
 H                     5.56867   2.78301   0. 
 H                     3.46564   4.0986    0. 
 
 NAtoms=     48 NQM=       48 NQMF=       0 NMMI=      0 NMMIF=      0
                NMic=       0 NMicF=      0.
                    Isotopes and Nuclear Properties:
 (Nuclear quadrupole moments (NQMom) in fm**2, nuclear magnetic moments (NMagM)
  in nuclear magnetons)

  Atom         1           2           3           4           5           6           7           8           9          10
 IAtWgt=          12          12          12          12          12          12          12          12          12          12
 AtmWgt=  12.0000000  12.0000000  12.0000000  12.0000000  12.0000000  12.0000000  12.0000000  12.0000000  12.0000000  12.0000000
 NucSpn=           0           0           0           0           0           0           0           0           0           0
 AtZEff=   0.0000000   0.0000000   0.0000000   0.0000000   0.0000000   0.0000000   0.0000000   0.0000000   0.0000000   0.0000000
 NQMom=    0.0000000   0.0000000   0.0000000   0.0000000   0.0000000   0.0000000   0.0000000   0.0000000   0.0000000   0.0000000
 NMagM=    0.0000000   0.0000000   0.0000000   0.0000000   0.0000000   0.0000000   0.0000000   0.0000000   0.0000000   0.0000000
 AtZNuc=   6.0000000   6.0000000   6.0000000   6.0000000   6.0000000   6.0000000   6.0000000   6.0000000   6.0000000   6.0000000

  Atom        11          12          13          14          15          16          17          18          19          20
 IAtWgt=          12          12          12          12          12          12          12          12          12          12
 AtmWgt=  12.0000000  12.0000000  12.0000000  12.0000000  12.0000000  12.0000000  12.0000000  12.0000000  12.0000000  12.0000000
 NucSpn=           0           0           0           0           0           0           0           0           0           0
 AtZEff=   0.0000000   0.0000000   0.0000000   0.0000000   0.0000000   0.0000000   0.0000000   0.0000000   0.0000000   0.0000000
 NQMom=    0.0000000   0.0000000   0.0000000   0.0000000   0.0000000   0.0000000   0.0000000   0.0000000   0.0000000   0.0000000
 NMagM=    0.0000000   0.0000000   0.0000000   0.0000000   0.0000000   0.0000000   0.0000000   0.0000000   0.0000000   0.0000000
 AtZNuc=   6.0000000   6.0000000   6.0000000   6.0000000   6.0000000   6.0000000   6.0000000   6.0000000   6.0000000   6.0000000

  Atom        21          22          23          24          25          26          27          28          29          30
 IAtWgt=          12          12          12          12          12          12          12          12          12          12
 AtmWgt=  12.0000000  12.0000000  12.0000000  12.0000000  12.0000000  12.0000000  12.0000000  12.0000000  12.0000000  12.0000000
 NucSpn=           0           0           0           0           0           0           0           0           0           0
 AtZEff=   0.0000000   0.0000000   0.0000000   0.0000000   0.0000000   0.0000000   0.0000000   0.0000000   0.0000000   0.0000000
 NQMom=    0.0000000   0.0000000   0.0000000   0.0000000   0.0000000   0.0000000   0.0000000   0.0000000   0.0000000   0.0000000
 NMagM=    0.0000000   0.0000000   0.0000000   0.0000000   0.0000000   0.0000000   0.0000000   0.0000000   0.0000000   0.0000000
 AtZNuc=   6.0000000   6.0000000   6.0000000   6.0000000   6.0000000   6.0000000   6.0000000   6.0000000   6.0000000   6.0000000

  Atom        31          32          33          34          35          36          37          38          39          40
 IAtWgt=          12          12           1           1           1           1           1           1           1           1
 AtmWgt=  12.0000000  12.0000000   1.0078250   1.0078250   1.0078250   1.0078250   1.0078250   1.0078250   1.0078250   1.0078250
 NucSpn=           0           0           1           1           1           1           1           1           1           1
 AtZEff=   0.0000000   0.0000000   0.0000000   0.0000000   0.0000000   0.0000000   0.0000000   0.0000000   0.0000000   0.0000000
 NQMom=    0.0000000   0.0000000   0.0000000   0.0000000   0.0000000   0.0000000   0.0000000   0.0000000   0.0000000   0.0000000
 NMagM=    0.0000000   0.0000000   2.7928460   2.7928460   2.7928460   2.7928460   2.7928460   2.7928460   2.7928460   2.7928460
 AtZNuc=   6.0000000   6.0000000   1.0000000   1.0000000   1.0000000   1.0000000   1.0000000   1.0000000   1.0000000   1.0000000

  Atom        41          42          43          44          45          46          47          48
 IAtWgt=           1           1           1           1           1           1           1           1
 AtmWgt=   1.0078250   1.0078250   1.0078250   1.0078250   1.0078250   1.0078250   1.0078250   1.0078250
 NucSpn=           1           1           1           1           1           1           1           1
 AtZEff=   0.0000000   0.0000000   0.0000000   0.0000000   0.0000000   0.0000000   0.0000000   0.0000000
 NQMom=    0.0000000   0.0000000   0.0000000   0.0000000   0.0000000   0.0000000   0.0000000   0.0000000
 NMagM=    2.7928460   2.7928460   2.7928460   2.7928460   2.7928460   2.7928460   2.7928460   2.7928460
 AtZNuc=   1.0000000   1.0000000   1.0000000   1.0000000   1.0000000   1.0000000   1.0000000   1.0000000
 Leave Link  101 at Sat Jul 27 13:19:25 2019, MaxMem=  4194304000 cpu:         5.2
 (Enter /home/minenky/programs//g09/l103.exe)

 GradGradGradGradGradGradGradGradGradGradGradGradGradGradGradGradGradGrad
 Berny optimization.
 Initialization pass.
                           ----------------------------
                           !    Initial Parameters    !
                           ! (Angstroms and Degrees)  !
 --------------------------                            --------------------------
 ! Name  Definition              Value          Derivative Info.                !
 --------------------------------------------------------------------------------
 ! R1    R(1,16)                 1.374          estimate D2E/DX2                !
 ! R2    R(1,17)                 1.4203         estimate D2E/DX2                !
 ! R3    R(1,33)                 1.1022         estimate D2E/DX2                !
 ! R4    R(2,4)                  1.4331         estimate D2E/DX2                !
 ! R5    R(2,15)                 1.3982         estimate D2E/DX2                !
 ! R6    R(2,18)                 1.4336         estimate D2E/DX2                !
 ! R7    R(3,4)                  1.3561         estimate D2E/DX2                !
 ! R8    R(3,5)                  1.4336         estimate D2E/DX2                !
 ! R9    R(3,34)                 1.096          estimate D2E/DX2                !
 ! R10   R(4,35)                 1.101          estimate D2E/DX2                !
 ! R11   R(5,6)                  1.4029         estimate D2E/DX2                !
 ! R12   R(5,14)                 1.4126         estimate D2E/DX2                !
 ! R13   R(6,31)                 1.3896         estimate D2E/DX2                !
 ! R14   R(6,36)                 1.0971         estimate D2E/DX2                !
 ! R15   R(7,10)                 1.4011         estimate D2E/DX2                !
 ! R16   R(7,12)                 1.4099         estimate D2E/DX2                !
 ! R17   R(7,23)                 1.4552         estimate D2E/DX2                !
 ! R18   R(8,9)                  1.3908         estimate D2E/DX2                !
 ! R19   R(8,11)                 1.3956         estimate D2E/DX2                !
 ! R20   R(8,37)                 1.1009         estimate D2E/DX2                !
 ! R21   R(9,10)                 1.3848         estimate D2E/DX2                !
 ! R22   R(9,38)                 1.0949         estimate D2E/DX2                !
 ! R23   R(10,39)                1.1009         estimate D2E/DX2                !
 ! R24   R(11,12)                1.4125         estimate D2E/DX2                !
 ! R25   R(11,16)                1.4606         estimate D2E/DX2                !
 ! R26   R(12,13)                1.4439         estimate D2E/DX2                !
 ! R27   R(13,14)                1.4132         estimate D2E/DX2                !
 ! R28   R(13,32)                1.4033         estimate D2E/DX2                !
 ! R29   R(14,15)                1.4348         estimate D2E/DX2                !
 ! R30   R(15,16)                1.4331         estimate D2E/DX2                !
 ! R31   R(17,18)                1.4086         estimate D2E/DX2                !
 ! R32   R(17,22)                1.4198         estimate D2E/DX2                !
 ! R33   R(18,19)                1.4188         estimate D2E/DX2                !
 ! R34   R(19,20)                1.3701         estimate D2E/DX2                !
 ! R35   R(19,40)                1.1007         estimate D2E/DX2                !
 ! R36   R(20,21)                1.4117         estimate D2E/DX2                !
 ! R37   R(20,41)                1.0949         estimate D2E/DX2                !
 ! R38   R(21,22)                1.3701         estimate D2E/DX2                !
 ! R39   R(21,42)                1.0949         estimate D2E/DX2                !
 ! R40   R(22,43)                1.0959         estimate D2E/DX2                !
 ! R41   R(23,24)                1.3965         estimate D2E/DX2                !
 ! R42   R(23,27)                1.4125         estimate D2E/DX2                !
 ! R43   R(24,25)                1.3908         estimate D2E/DX2                !
 ! R44   R(24,44)                1.1009         estimate D2E/DX2                !
 ! R45   R(25,26)                1.387          estimate D2E/DX2                !
 ! R46   R(25,45)                1.0951         estimate D2E/DX2                !
 ! R47   R(26,28)                1.3997         estimate D2E/DX2                !
 ! R48   R(26,46)                1.0959         estimate D2E/DX2                !
 ! R49   R(27,28)                1.4116         estimate D2E/DX2                !
 ! R50   R(27,32)                1.4375         estimate D2E/DX2                !
 ! R51   R(28,29)                1.4423         estimate D2E/DX2                !
 ! R52   R(29,30)                1.3506         estimate D2E/DX2                !
 ! R53   R(29,47)                1.0961         estimate D2E/DX2                !
 ! R54   R(30,31)                1.4431         estimate D2E/DX2                !
 ! R55   R(30,48)                1.0962         estimate D2E/DX2                !
 ! R56   R(31,32)                1.419          estimate D2E/DX2                !
 ! A1    A(16,1,17)            121.2814         estimate D2E/DX2                !
 ! A2    A(16,1,33)            119.6699         estimate D2E/DX2                !
 ! A3    A(17,1,33)            119.0486         estimate D2E/DX2                !
 ! A4    A(4,2,15)             119.3394         estimate D2E/DX2                !
 ! A5    A(4,2,18)             120.7625         estimate D2E/DX2                !
 ! A6    A(15,2,18)            119.898          estimate D2E/DX2                !
 ! A7    A(4,3,5)              120.6638         estimate D2E/DX2                !
 ! A8    A(4,3,34)             120.9329         estimate D2E/DX2                !
 ! A9    A(5,3,34)             118.4033         estimate D2E/DX2                !
 ! A10   A(2,4,3)              121.2953         estimate D2E/DX2                !
 ! A11   A(2,4,35)             117.5394         estimate D2E/DX2                !
 ! A12   A(3,4,35)             121.1653         estimate D2E/DX2                !
 ! A13   A(3,5,6)              120.8325         estimate D2E/DX2                !
 ! A14   A(3,5,14)             119.1018         estimate D2E/DX2                !
 ! A15   A(6,5,14)             120.0657         estimate D2E/DX2                !
 ! A16   A(5,6,31)             120.52           estimate D2E/DX2                !
 ! A17   A(5,6,36)             119.4999         estimate D2E/DX2                !
 ! A18   A(31,6,36)            119.98           estimate D2E/DX2                !
 ! A19   A(10,7,12)            119.4047         estimate D2E/DX2                !
 ! A20   A(10,7,23)            120.722          estimate D2E/DX2                !
 ! A21   A(12,7,23)            119.8732         estimate D2E/DX2                !
 ! A22   A(9,8,11)             120.7297         estimate D2E/DX2                !
 ! A23   A(9,8,37)             120.2145         estimate D2E/DX2                !
 ! A24   A(11,8,37)            119.0558         estimate D2E/DX2                !
 ! A25   A(8,9,10)             120.1575         estimate D2E/DX2                !
 ! A26   A(8,9,38)             119.8135         estimate D2E/DX2                !
 ! A27   A(10,9,38)            120.0291         estimate D2E/DX2                !
 ! A28   A(7,10,9)             120.5876         estimate D2E/DX2                !
 ! A29   A(7,10,39)            118.8043         estimate D2E/DX2                !
 ! A30   A(9,10,39)            120.6082         estimate D2E/DX2                !
 ! A31   A(8,11,12)            119.3232         estimate D2E/DX2                !
 ! A32   A(8,11,16)            120.6804         estimate D2E/DX2                !
 ! A33   A(12,11,16)           119.9964         estimate D2E/DX2                !
 ! A34   A(7,12,11)            119.7972         estimate D2E/DX2                !
 ! A35   A(7,12,13)            120.0676         estimate D2E/DX2                !
 ! A36   A(11,12,13)           120.1352         estimate D2E/DX2                !
 ! A37   A(12,13,14)           120.1582         estimate D2E/DX2                !
 ! A38   A(12,13,32)           120.0659         estimate D2E/DX2                !
 ! A39   A(14,13,32)           119.776          estimate D2E/DX2                !
 ! A40   A(5,14,13)            119.665          estimate D2E/DX2                !
 ! A41   A(5,14,15)            119.8145         estimate D2E/DX2                !
 ! A42   A(13,14,15)           120.5206         estimate D2E/DX2                !
 ! A43   A(2,15,14)            119.7852         estimate D2E/DX2                !
 ! A44   A(2,15,16)            120.2849         estimate D2E/DX2                !
 ! A45   A(14,15,16)           119.93           estimate D2E/DX2                !
 ! A46   A(1,16,11)            121.2427         estimate D2E/DX2                !
 ! A47   A(1,16,15)            119.4976         estimate D2E/DX2                !
 ! A48   A(11,16,15)           119.2597         estimate D2E/DX2                !
 ! A49   A(1,17,18)            119.8619         estimate D2E/DX2                !
 ! A50   A(1,17,22)            120.6231         estimate D2E/DX2                !
 ! A51   A(18,17,22)           119.515          estimate D2E/DX2                !
 ! A52   A(2,18,17)            119.1762         estimate D2E/DX2                !
 ! A53   A(2,18,19)            121.9515         estimate D2E/DX2                !
 ! A54   A(17,18,19)           118.8723         estimate D2E/DX2                !
 ! A55   A(18,19,20)           120.6941         estimate D2E/DX2                !
 ! A56   A(18,19,40)           118.2048         estimate D2E/DX2                !
 ! A57   A(20,19,40)           121.1011         estimate D2E/DX2                !
 ! A58   A(19,20,21)           120.3107         estimate D2E/DX2                !
 ! A59   A(19,20,41)           120.4518         estimate D2E/DX2                !
 ! A60   A(21,20,41)           119.2375         estimate D2E/DX2                !
 ! A61   A(20,21,22)           120.2365         estimate D2E/DX2                !
 ! A62   A(20,21,42)           119.219          estimate D2E/DX2                !
 ! A63   A(22,21,42)           120.5445         estimate D2E/DX2                !
 ! A64   A(17,22,21)           120.3714         estimate D2E/DX2                !
 ! A65   A(17,22,43)           118.9121         estimate D2E/DX2                !
 ! A66   A(21,22,43)           120.7165         estimate D2E/DX2                !
 ! A67   A(7,23,24)            121.5238         estimate D2E/DX2                !
 ! A68   A(7,23,27)            119.3937         estimate D2E/DX2                !
 ! A69   A(24,23,27)           119.0825         estimate D2E/DX2                !
 ! A70   A(23,24,25)           120.7629         estimate D2E/DX2                !
 ! A71   A(23,24,44)           118.8868         estimate D2E/DX2                !
 ! A72   A(25,24,44)           120.3504         estimate D2E/DX2                !
 ! A73   A(24,25,26)           120.4812         estimate D2E/DX2                !
 ! A74   A(24,25,45)           119.6195         estimate D2E/DX2                !
 ! A75   A(26,25,45)           119.8993         estimate D2E/DX2                !
 ! A76   A(25,26,28)           120.0959         estimate D2E/DX2                !
 ! A77   A(25,26,46)           120.2238         estimate D2E/DX2                !
 ! A78   A(28,26,46)           119.6803         estimate D2E/DX2                !
 ! A79   A(23,27,28)           119.8753         estimate D2E/DX2                !
 ! A80   A(23,27,32)           120.3564         estimate D2E/DX2                !
 ! A81   A(28,27,32)           119.7684         estimate D2E/DX2                !
 ! A82   A(26,28,27)           119.7022         estimate D2E/DX2                !
 ! A83   A(26,28,29)           120.9898         estimate D2E/DX2                !
 ! A84   A(27,28,29)           119.308          estimate D2E/DX2                !
 ! A85   A(28,29,30)           121.0838         estimate D2E/DX2                !
 ! A86   A(28,29,47)           117.8824         estimate D2E/DX2                !
 ! A87   A(30,29,47)           121.0338         estimate D2E/DX2                !
 ! A88   A(29,30,31)           121.1082         estimate D2E/DX2                !
 ! A89   A(29,30,48)           121.0236         estimate D2E/DX2                !
 ! A90   A(31,30,48)           117.8683         estimate D2E/DX2                !
 ! A91   A(6,31,30)            121.0517         estimate D2E/DX2                !
 ! A92   A(6,31,32)            119.8901         estimate D2E/DX2                !
 ! A93   A(30,31,32)           119.0582         estimate D2E/DX2                !
 ! A94   A(13,32,27)           120.2433         estimate D2E/DX2                !
 ! A95   A(13,32,31)           120.0832         estimate D2E/DX2                !
 ! A96   A(27,32,31)           119.6735         estimate D2E/DX2                !
 ! D1    D(17,1,16,11)         180.0            estimate D2E/DX2                !
 ! D2    D(17,1,16,15)           0.0            estimate D2E/DX2                !
 ! D3    D(33,1,16,11)           0.0            estimate D2E/DX2                !
 ! D4    D(33,1,16,15)         180.0            estimate D2E/DX2                !
 ! D5    D(16,1,17,18)           0.0            estimate D2E/DX2                !
 ! D6    D(16,1,17,22)         180.0            estimate D2E/DX2                !
 ! D7    D(33,1,17,18)         180.0            estimate D2E/DX2                !
 ! D8    D(33,1,17,22)           0.0            estimate D2E/DX2                !
 ! D9    D(15,2,4,3)             0.0            estimate D2E/DX2                !
 ! D10   D(15,2,4,35)          180.0            estimate D2E/DX2                !
 ! D11   D(18,2,4,3)           180.0            estimate D2E/DX2                !
 ! D12   D(18,2,4,35)            0.0            estimate D2E/DX2                !
 ! D13   D(4,2,15,14)            0.0            estimate D2E/DX2                !
 ! D14   D(4,2,15,16)          180.0            estimate D2E/DX2                !
 ! D15   D(18,2,15,14)         180.0            estimate D2E/DX2                !
 ! D16   D(18,2,15,16)           0.0            estimate D2E/DX2                !
 ! D17   D(4,2,18,17)          180.0            estimate D2E/DX2                !
 ! D18   D(4,2,18,19)            0.0            estimate D2E/DX2                !
 ! D19   D(15,2,18,17)           0.0            estimate D2E/DX2                !
 ! D20   D(15,2,18,19)         180.0            estimate D2E/DX2                !
 ! D21   D(5,3,4,2)              0.0            estimate D2E/DX2                !
 ! D22   D(5,3,4,35)           180.0            estimate D2E/DX2                !
 ! D23   D(34,3,4,2)           180.0            estimate D2E/DX2                !
 ! D24   D(34,3,4,35)            0.0            estimate D2E/DX2                !
 ! D25   D(4,3,5,6)            180.0            estimate D2E/DX2                !
 ! D26   D(4,3,5,14)             0.0            estimate D2E/DX2                !
 ! D27   D(34,3,5,6)             0.0            estimate D2E/DX2                !
 ! D28   D(34,3,5,14)          180.0            estimate D2E/DX2                !
 ! D29   D(3,5,6,31)           180.0            estimate D2E/DX2                !
 ! D30   D(3,5,6,36)             0.0            estimate D2E/DX2                !
 ! D31   D(14,5,6,31)            0.0            estimate D2E/DX2                !
 ! D32   D(14,5,6,36)          180.0            estimate D2E/DX2                !
 ! D33   D(3,5,14,13)          180.0            estimate D2E/DX2                !
 ! D34   D(3,5,14,15)            0.0            estimate D2E/DX2                !
 ! D35   D(6,5,14,13)            0.0            estimate D2E/DX2                !
 ! D36   D(6,5,14,15)          180.0            estimate D2E/DX2                !
 ! D37   D(5,6,31,30)          180.0            estimate D2E/DX2                !
 ! D38   D(5,6,31,32)            0.0            estimate D2E/DX2                !
 ! D39   D(36,6,31,30)           0.0            estimate D2E/DX2                !
 ! D40   D(36,6,31,32)         180.0            estimate D2E/DX2                !
 ! D41   D(12,7,10,9)            0.0            estimate D2E/DX2                !
 ! D42   D(12,7,10,39)         180.0            estimate D2E/DX2                !
 ! D43   D(23,7,10,9)          180.0            estimate D2E/DX2                !
 ! D44   D(23,7,10,39)           0.0            estimate D2E/DX2                !
 ! D45   D(10,7,12,11)           0.0            estimate D2E/DX2                !
 ! D46   D(10,7,12,13)         180.0            estimate D2E/DX2                !
 ! D47   D(23,7,12,11)         180.0            estimate D2E/DX2                !
 ! D48   D(23,7,12,13)           0.0            estimate D2E/DX2                !
 ! D49   D(10,7,23,24)           0.0            estimate D2E/DX2                !
 ! D50   D(10,7,23,27)         180.0            estimate D2E/DX2                !
 ! D51   D(12,7,23,24)         180.0            estimate D2E/DX2                !
 ! D52   D(12,7,23,27)           0.0            estimate D2E/DX2                !
 ! D53   D(11,8,9,10)            0.0            estimate D2E/DX2                !
 ! D54   D(11,8,9,38)          180.0            estimate D2E/DX2                !
 ! D55   D(37,8,9,10)          180.0            estimate D2E/DX2                !
 ! D56   D(37,8,9,38)            0.0            estimate D2E/DX2                !
 ! D57   D(9,8,11,12)            0.0            estimate D2E/DX2                !
 ! D58   D(9,8,11,16)          180.0            estimate D2E/DX2                !
 ! D59   D(37,8,11,12)         180.0            estimate D2E/DX2                !
 ! D60   D(37,8,11,16)           0.0            estimate D2E/DX2                !
 ! D61   D(8,9,10,7)             0.0            estimate D2E/DX2                !
 ! D62   D(8,9,10,39)          180.0            estimate D2E/DX2                !
 ! D63   D(38,9,10,7)          180.0            estimate D2E/DX2                !
 ! D64   D(38,9,10,39)           0.0            estimate D2E/DX2                !
 ! D65   D(8,11,12,7)            0.0            estimate D2E/DX2                !
 ! D66   D(8,11,12,13)         180.0            estimate D2E/DX2                !
 ! D67   D(16,11,12,7)         180.0            estimate D2E/DX2                !
 ! D68   D(16,11,12,13)          0.0            estimate D2E/DX2                !
 ! D69   D(8,11,16,1)            0.0            estimate D2E/DX2                !
 ! D70   D(8,11,16,15)         180.0            estimate D2E/DX2                !
 ! D71   D(12,11,16,1)         180.0            estimate D2E/DX2                !
 ! D72   D(12,11,16,15)          0.0            estimate D2E/DX2                !
 ! D73   D(7,12,13,14)         180.0            estimate D2E/DX2                !
 ! D74   D(7,12,13,32)           0.0            estimate D2E/DX2                !
 ! D75   D(11,12,13,14)          0.0            estimate D2E/DX2                !
 ! D76   D(11,12,13,32)        180.0            estimate D2E/DX2                !
 ! D77   D(12,13,14,5)         180.0            estimate D2E/DX2                !
 ! D78   D(12,13,14,15)          0.0            estimate D2E/DX2                !
 ! D79   D(32,13,14,5)           0.0            estimate D2E/DX2                !
 ! D80   D(32,13,14,15)        180.0            estimate D2E/DX2                !
 ! D81   D(12,13,32,27)          0.0            estimate D2E/DX2                !
 ! D82   D(12,13,32,31)        180.0            estimate D2E/DX2                !
 ! D83   D(14,13,32,27)        180.0            estimate D2E/DX2                !
 ! D84   D(14,13,32,31)          0.0            estimate D2E/DX2                !
 ! D85   D(5,14,15,2)            0.0            estimate D2E/DX2                !
 ! D86   D(5,14,15,16)         180.0            estimate D2E/DX2                !
 ! D87   D(13,14,15,2)         180.0            estimate D2E/DX2                !
 ! D88   D(13,14,15,16)          0.0            estimate D2E/DX2                !
 ! D89   D(2,15,16,1)            0.0            estimate D2E/DX2                !
 ! D90   D(2,15,16,11)         180.0            estimate D2E/DX2                !
 ! D91   D(14,15,16,1)         180.0            estimate D2E/DX2                !
 ! D92   D(14,15,16,11)          0.0            estimate D2E/DX2                !
 ! D93   D(1,17,18,2)            0.0            estimate D2E/DX2                !
 ! D94   D(1,17,18,19)         180.0            estimate D2E/DX2                !
 ! D95   D(22,17,18,2)         180.0            estimate D2E/DX2                !
 ! D96   D(22,17,18,19)          0.0            estimate D2E/DX2                !
 ! D97   D(1,17,22,21)         180.0            estimate D2E/DX2                !
 ! D98   D(1,17,22,43)           0.0            estimate D2E/DX2                !
 ! D99   D(18,17,22,21)          0.0            estimate D2E/DX2                !
 ! D100  D(18,17,22,43)        180.0            estimate D2E/DX2                !
 ! D101  D(2,18,19,20)         180.0            estimate D2E/DX2                !
 ! D102  D(2,18,19,40)           0.0            estimate D2E/DX2                !
 ! D103  D(17,18,19,20)          0.0            estimate D2E/DX2                !
 ! D104  D(17,18,19,40)        180.0            estimate D2E/DX2                !
 ! D105  D(18,19,20,21)          0.0            estimate D2E/DX2                !
 ! D106  D(18,19,20,41)        180.0            estimate D2E/DX2                !
 ! D107  D(40,19,20,21)        180.0            estimate D2E/DX2                !
 ! D108  D(40,19,20,41)          0.0            estimate D2E/DX2                !
 ! D109  D(19,20,21,22)          0.0            estimate D2E/DX2                !
 ! D110  D(19,20,21,42)        180.0            estimate D2E/DX2                !
 ! D111  D(41,20,21,22)        180.0            estimate D2E/DX2                !
 ! D112  D(41,20,21,42)          0.0            estimate D2E/DX2                !
 ! D113  D(20,21,22,17)          0.0            estimate D2E/DX2                !
 ! D114  D(20,21,22,43)        180.0            estimate D2E/DX2                !
 ! D115  D(42,21,22,17)        180.0            estimate D2E/DX2                !
 ! D116  D(42,21,22,43)          0.0            estimate D2E/DX2                !
 ! D117  D(7,23,24,25)         180.0            estimate D2E/DX2                !
 ! D118  D(7,23,24,44)           0.0            estimate D2E/DX2                !
 ! D119  D(27,23,24,25)          0.0            estimate D2E/DX2                !
 ! D120  D(27,23,24,44)        180.0            estimate D2E/DX2                !
 ! D121  D(7,23,27,28)         180.0            estimate D2E/DX2                !
 ! D122  D(7,23,27,32)           0.0            estimate D2E/DX2                !
 ! D123  D(24,23,27,28)          0.0            estimate D2E/DX2                !
 ! D124  D(24,23,27,32)        180.0            estimate D2E/DX2                !
 ! D125  D(23,24,25,26)          0.0            estimate D2E/DX2                !
 ! D126  D(23,24,25,45)        180.0            estimate D2E/DX2                !
 ! D127  D(44,24,25,26)        180.0            estimate D2E/DX2                !
 ! D128  D(44,24,25,45)          0.0            estimate D2E/DX2                !
 ! D129  D(24,25,26,28)          0.0            estimate D2E/DX2                !
 ! D130  D(24,25,26,46)        180.0            estimate D2E/DX2                !
 ! D131  D(45,25,26,28)        180.0            estimate D2E/DX2                !
 ! D132  D(45,25,26,46)          0.0            estimate D2E/DX2                !
 ! D133  D(25,26,28,27)          0.0            estimate D2E/DX2                !
 ! D134  D(25,26,28,29)        180.0            estimate D2E/DX2                !
 ! D135  D(46,26,28,27)        180.0            estimate D2E/DX2                !
 ! D136  D(46,26,28,29)          0.0            estimate D2E/DX2                !
 ! D137  D(23,27,28,26)          0.0            estimate D2E/DX2                !
 ! D138  D(23,27,28,29)        180.0            estimate D2E/DX2                !
 ! D139  D(32,27,28,26)        180.0            estimate D2E/DX2                !
 ! D140  D(32,27,28,29)          0.0            estimate D2E/DX2                !
 ! D141  D(23,27,32,13)          0.0            estimate D2E/DX2                !
 ! D142  D(23,27,32,31)        180.0            estimate D2E/DX2                !
 ! D143  D(28,27,32,13)        180.0            estimate D2E/DX2                !
 ! D144  D(28,27,32,31)          0.0            estimate D2E/DX2                !
 ! D145  D(26,28,29,30)        180.0            estimate D2E/DX2                !
 ! D146  D(26,28,29,47)          0.0            estimate D2E/DX2                !
 ! D147  D(27,28,29,30)          0.0            estimate D2E/DX2                !
 ! D148  D(27,28,29,47)        180.0            estimate D2E/DX2                !
 ! D149  D(28,29,30,31)          0.0            estimate D2E/DX2                !
 ! D150  D(28,29,30,48)        180.0            estimate D2E/DX2                !
 ! D151  D(47,29,30,31)        180.0            estimate D2E/DX2                !
 ! D152  D(47,29,30,48)          0.0            estimate D2E/DX2                !
 ! D153  D(29,30,31,6)         180.0            estimate D2E/DX2                !
 ! D154  D(29,30,31,32)          0.0            estimate D2E/DX2                !
 ! D155  D(48,30,31,6)           0.0            estimate D2E/DX2                !
 ! D156  D(48,30,31,32)        180.0            estimate D2E/DX2                !
 ! D157  D(6,31,32,13)           0.0            estimate D2E/DX2                !
 ! D158  D(6,31,32,27)         180.0            estimate D2E/DX2                !
 ! D159  D(30,31,32,13)        180.0            estimate D2E/DX2                !
 ! D160  D(30,31,32,27)          0.0            estimate D2E/DX2                !
 --------------------------------------------------------------------------------
 Trust Radius=3.00D-01 FncErr=1.00D-07 GrdErr=1.00D-06
 Number of steps in this run=    288 maximum allowed number of steps=    288.
 GradGradGradGradGradGradGradGradGradGradGradGradGradGradGradGradGradGrad

 Leave Link  103 at Sat Jul 27 13:19:26 2019, MaxMem=  4194304000 cpu:         0.2
 (Enter /home/minenky/programs//g09/l202.exe)
                          Input orientation:                          
 ---------------------------------------------------------------------
 Center     Atomic      Atomic             Coordinates (Angstroms)
 Number     Number       Type             X           Y           Z
 ---------------------------------------------------------------------
      1          6           0       -2.903267   -1.671735    0.000000
      2          6           0       -2.777978    1.140232    0.000000
      3          6           0       -1.482613    3.197870    0.000000
      4          6           0       -2.684758    2.570319    0.000000
      5          6           0       -0.263783    2.443034    0.000000
      6          6           0        0.981745    3.088574    0.000000
      7          6           0        2.002185   -1.918938    0.000000
      8          6           0       -0.471062   -3.224168    0.000000
      9          6           0        0.707235   -3.963116    0.000000
     10          6           0        1.932808   -3.318328    0.000000
     11          6           0       -0.437857   -1.829004    0.000000
     12          6           0        0.809741   -1.166767    0.000000
     13          6           0        0.864549    0.276093    0.000000
     14          6           0       -0.329553    1.031951    0.000000
     15          6           0       -1.606290    0.377322    0.000000
     16          6           0       -1.675898   -1.054072    0.000000
     17          6           0       -4.107666   -0.918994    0.000000
     18          6           0       -4.054987    0.488637    0.000000
     19          6           0       -5.270903    1.219681    0.000000
     20          6           0       -6.477347    0.570340    0.000000
     21          6           0       -6.527116   -0.840524    0.000000
     22          6           0       -5.368491   -1.571756    0.000000
     23          6           0        3.288441   -1.238365    0.000000
     24          6           0        4.490559   -1.949080    0.000000
     25          6           0        5.711157   -1.282352    0.000000
     26          6           0        5.755606    0.103952    0.000000
     27          6           0        3.325659    0.173632    0.000000
     28          6           0        4.567748    0.844259    0.000000
     29          6           0        4.591474    2.286391    0.000000
     30          6           0        3.446452    3.002612    0.000000
     31          6           0        2.159130    2.350492    0.000000
     32          6           0        2.104838    0.932528    0.000000
     33          1           0       -2.960114   -2.772450    0.000000
     34          1           0       -1.418239    4.292003    0.000000
     35          1           0       -3.625860    3.141818    0.000000
     36          1           0        1.022000    4.184927    0.000000
     37          1           0       -1.445862   -3.735783    0.000000
     38          1           0        0.663681   -5.057188    0.000000
     39          1           0        2.870048   -3.895880    0.000000
     40          1           0       -5.216929    2.319038    0.000000
     41          1           0       -7.413291    1.138460    0.000000
     42          1           0       -7.500932   -1.340968    0.000000
     43          1           0       -5.397950   -2.667284    0.000000
     44          1           0        4.457792   -3.049484    0.000000
     45          1           0        6.642496   -1.858362    0.000000
     46          1           0        6.719701    0.624961    0.000000
     47          1           0        5.568672    2.783006    0.000000
     48          1           0        3.465635    4.098604    0.000000
 ---------------------------------------------------------------------
                    Distance matrix (angstroms):
                    1          2          3          4          5
     1  C    0.000000
     2  C    2.814757   0.000000
     3  C    5.072604   2.431429   0.000000
     4  C    4.247678   1.433122   1.356087   0.000000
     5  C    4.888579   2.831690   1.433640   2.424319   0.000000
     6  C    6.144417   4.234567   2.466781   3.702949   1.402876
     7  C    4.911677   5.675252   6.190763   6.490059   4.915426
     8  C    2.885423   4.936582   6.501215   6.202945   5.670991
     9  C    4.276231   6.179876   7.488335   7.361480   6.479323
    10  C    5.108708   6.486159   7.357033   7.483187   6.165898
    11  C    2.470421   3.780546   5.134294   4.939899   4.275582
    12  C    3.747188   4.265439   4.930004   5.116378   3.766047
    13  C    4.241517   3.743626   3.747793   4.226234   2.443106
    14  C    3.732818   2.450819   2.453722   2.813106   1.412614
    15  C    2.425033   1.398172   2.823259   2.443835   2.463633
    16  C    1.374024   2.455514   4.256333   3.762181   3.771448
    17  C    1.420280   2.451221   4.882569   3.768285   5.106728
    18  C    2.448197   1.433641   3.735914   2.492173   4.265313
    19  C    3.737110   2.494191   4.273684   2.917596   5.154400
    20  C    4.219116   3.743007   5.643694   4.287615   6.489634
    21  C    3.717956   4.240216   6.461860   5.137856   7.071852
    22  C    2.467250   3.750417   6.152184   4.935504   6.494349
    23  C    6.206856   6.516070   6.514840   7.084150   5.115760
    24  C    7.399026   7.897815   7.884788   8.479985   6.472591
    25  C    8.623220   8.828042   8.474828   9.237665   7.041193
    26  C    8.839070   8.596275   7.871731   8.793334   6.457891
    27  C    6.496530   6.179701   5.680272   6.470643   4.246678
    28  C    7.883292   7.351686   6.492022   7.455074   5.089182
    29  C    8.475725   7.458050   6.142095   7.281770   4.857784
    30  C    7.884698   6.497075   4.932931   6.146431   3.752195
    31  C    6.465770   5.083283   3.739030   4.848874   2.424680
    32  C    5.644759   4.887232   4.242827   5.061876   2.809269
    33  H    1.102182   3.916919   6.150425   5.349860   5.871241
    34  H    6.145851   3.432572   1.096025   2.137350   2.179784
    35  H    4.867488   2.173765   2.143979   1.101038   3.433928
    36  H    7.050406   4.869292   2.692094   4.043145   2.165048
    37  H    2.526721   5.054706   6.933750   6.426646   6.290873
    38  H    4.917765   7.088937   8.529511   8.330120   7.557348
    39  H    6.186920   7.567207   8.322677   8.524529   7.071260
    40  H    4.612950   2.708886   3.836334   2.544608   4.954698
    41  H    5.313898   4.635314   6.278066   4.940571   7.267557
    42  H    4.609547   5.335039   7.537984   6.204329   8.166700
    43  H    2.685993   4.621842   7.051942   5.898634   7.243964
    44  H    7.488884   8.361225   8.620780   9.088355   7.242998
    45  H    9.547588   9.886198   9.569895  10.325255   8.136258
    46  H    9.893247   9.511646   8.596384   9.603555   7.216262
    47  H    9.571754   8.506779   7.063479   8.256170   5.842355
    48  H    8.594169   6.909029   5.029561   6.337429   4.080377
                    6          7          8          9         10
     6  C    0.000000
     7  C    5.110428   0.000000
     8  C    6.477759   2.796530   0.000000
     9  C    7.057031   2.419826   1.390838   0.000000
    10  C    6.477107   1.401109   2.405714   1.384839   0.000000
    11  C    5.118382   2.441699   1.395559   2.421915   2.799668
    12  C    4.258815   1.409853   2.423501   2.798228   2.427035
    13  C    2.814922   2.472322   3.746422   4.242127   3.749805
    14  C    2.439098   3.760951   4.258471   5.101532   4.903388
    15  C    3.748174   4.277137   3.776171   4.918516   5.116937
    16  C    4.921848   3.778398   2.482125   3.760567   4.260237
    17  C    6.477863   6.191137   4.305660   5.696486   6.499549
    18  C    5.668187   6.518110   5.160371   6.518962   7.095539
    19  C    6.525976   7.921411   6.541121   7.911986   8.513929
    20  C    7.872709   8.837362   7.104487   8.495319   9.265659
    21  C    8.474716   8.597207   6.508268   7.879494   8.815319
    22  C    7.876812   7.378848   5.168681   6.529399   7.507295
    23  C    4.903392   1.455209   4.251738   3.753251   2.482738
    24  C    6.139197   2.488556   5.122845   4.286010   2.901195
    25  C    6.439901   3.763205   6.480007   5.676771   4.291983
    26  C    5.630073   4.263831   7.060296   6.482831   5.130866
    27  C    3.740430   2.475971   5.095109   4.895797   3.759497
    28  C    4.230410   3.770593   6.476242   6.165583   4.926463
    29  C    3.697789   4.938543   7.483017   7.358237   6.203337
    30  C    2.466206   5.129090   7.356610   7.484964   6.499647
    31  C    1.389605   4.272314   6.163988   6.478399   5.673336
    32  C    2.431023   2.853313   4.890131   5.091230   4.254336
    33  H    7.063275   5.035167   2.529709   3.855793   4.923279
    34  H    2.684803   7.090493   7.575616   8.524355   8.315447
    35  H    4.607912   7.568761   7.104824   8.322007   8.522458
    36  H    1.097092   6.182065   7.558037   8.154121   7.558334
    37  H    7.243281   3.897429   1.100901   2.165065   3.404362
    38  H    8.151969   3.411775   2.155831   1.094938   2.152746
    39  H    7.235212   2.159047   3.407963   2.163857   1.100901
    40  H    6.246258   8.371144   7.297286   8.634882   9.104869
    41  H    8.618560   9.899439   8.199211   9.590049  10.354349
    42  H    9.569569   9.520677   7.277740   8.616825   9.638745
    43  H    8.592462   7.437878   4.958260   6.241191   7.359611
    44  H    7.053982   2.703357   4.931949   3.860233   2.539256
    45  H    7.517732   4.640706   7.243490   6.297405   4.930787
    46  H    6.244480   5.359700   8.156156   7.563082   6.201925
    47  H    4.597094   5.901535   8.518482   8.315272   7.102520
    48  H    2.681394   6.192940   8.313879   8.520570   7.573668
                   11         12         13         14         15
    11  C    0.000000
    12  C    1.412465   0.000000
    13  C    2.475417   1.443900   0.000000
    14  C    2.863004   2.476358   1.413224   0.000000
    15  C    2.496619   2.867300   2.472911   1.434781   0.000000
    16  C    1.460570   2.488192   2.867614   2.482769   1.433085
    17  C    3.780955   4.923645   5.113820   4.252097   2.817325
    18  C    4.295939   5.138671   4.924125   3.764844   2.451226
    19  C    5.714264   6.532179   6.207586   4.944915   3.760181
    20  C    6.498637   7.491273   7.347789   6.165100   4.874880
    21  C    6.168969   7.344107   7.475530   6.474253   5.069288
    22  C    4.937340   6.191491   6.501178   5.671877   4.237105
    23  C    3.772817   2.479735   2.858118   4.271325   5.154496
    24  C    4.929879   3.763036   4.254333   5.667453   6.525619
    25  C    6.173265   4.902779   5.091008   6.468862   7.503302
    26  C    6.488089   5.106497   4.894086   6.155513   7.366970
    27  C    4.263168   2.850704   2.463242   3.754635   4.936153
    28  C    5.674717   4.262258   3.746531   4.900896   6.191669
    29  C    6.498511   5.121114   4.234534   5.078398   6.485123
    30  C    6.199384   4.933150   3.755015   4.259309   5.694062
    31  C    4.920622   3.767222   2.445215   2.816397   4.251093
    32  C    3.753845   2.466640   1.403291   2.436420   3.752429
    33  H    2.692931   4.097563   4.890977   4.625292   3.428397
    34  H    6.199022   5.895936   4.619378   3.437030   3.919195
    35  H    5.905289   6.183725   5.326927   3.913717   3.423610
    36  H    6.188582   5.355901   3.912004   3.430445   4.626637
    37  H    2.156822   3.418711   4.629594   4.896676   4.116232
    38  H    3.410947   3.893162   5.337062   6.169614   5.889538
    39  H    3.900540   3.419492   4.628972   5.875454   6.188525
    40  H    6.328174   6.962153   6.415450   5.054012   4.099632
    41  H    7.580404   8.540042   8.322639   7.084539   5.856672
    42  H    7.079916   8.312498   8.520337   7.553769   6.139978
    43  H    5.030431   6.386468   6.919707   6.274790   4.862747
    44  H    5.045488   4.105229   4.896004   6.291008   6.965348
    45  H    7.080414   5.873614   6.159592   7.547409   8.546388
    46  H    7.566544   6.175591   5.865537   7.060993   8.329673
    47  H    7.572914   6.184508   5.330422   6.152662   7.567522
    48  H    7.097449   5.897280   4.623554   4.879325   6.290657
                   16         17         18         19         20
    16  C    0.000000
    17  C    2.435517   0.000000
    18  C    2.835492   1.408617   0.000000
    19  C    4.253705   2.434554   1.418759   0.000000
    20  C    5.068789   2.798839   2.423737   1.370091   0.000000
    21  C    4.855916   2.420722   2.806794   2.412989   1.411741
    22  C    3.728704   1.419780   2.443462   2.793142   2.412081
    23  C    4.967759   7.403000   7.543771   8.905300   9.931869
    24  C    6.231070   8.659709   8.886441  10.262904  11.253552
    25  C    7.390582   9.825544   9.925420  11.263472  12.328507
    26  C    7.521189   9.916177   9.818133  11.082814  12.241840
    27  C    5.150032   7.513199   7.387365   8.659971   9.811029
    28  C    6.525855   8.852789   8.630065   9.845811  11.048490
    29  C    7.102018   9.270898   8.831377   9.919897  11.201055
    30  C    6.534153   8.511387   7.911489   8.897816  10.217521
    31  C    5.128206   7.068400   6.487046   7.515592   8.818031
    32  C    4.270895   6.482541   6.175798   7.381328   8.589824
    33  H    2.145235   2.179948   3.439976   4.612684   4.852336
    34  H    5.352280   5.864086   4.627962   4.927695   6.280553
    35  H    4.626861   4.089296   2.687661   2.529977   3.839724
    36  H    5.892857   7.236262   6.279997   6.956531   8.324989
    37  H    2.691559   3.875500   4.965204   6.259997   6.622577
    38  H    4.636655   6.315885   7.281621   8.638193   9.091938
    39  H    5.361110   7.586194   8.196346   9.614783  10.359580
    40  H    4.890477   3.422765   2.168059   1.100682   2.155597
    41  H    6.142058   3.893620   3.420596   2.143927   1.094876
    42  H    5.832094   3.419402   3.901537   3.395578   2.168138
    43  H    4.056614   2.172866   3.429779   3.889040   3.412814
    44  H    6.450103   8.826441   9.218769  10.624183  11.518697
    45  H    8.357187  10.791126  10.951920  12.304610  13.342746
    46  H    8.561848  10.936896  10.775551  12.005344  13.197161
    47  H    8.197986  10.360325   9.893379  10.951730  12.247549
    48  H    7.279110   9.084668   8.342160   9.198658  10.550429
                   21         22         23         24         25
    21  C    0.000000
    22  C    1.370078   0.000000
    23  C    9.823617   8.663349   0.000000
    24  C   11.073305   9.866268   1.396497   0.000000
    25  C   12.246246  11.083426   2.423115   1.390822   0.000000
    26  C   12.318982  11.249601   2.808687   2.411490   1.387016
    27  C    9.904832   8.867616   1.412488   2.421343   2.794725
    28  C   11.222054  10.225750   2.444167   2.794406   2.414510
    29  C   11.549920  10.681114   3.757899   4.236673   3.740269
    30  C   10.688394   9.931166   4.243920   5.060575   4.846628
    31  C    9.253835   8.488174   3.762345   4.891000   5.080792
    32  C    8.812170   7.881756   2.472589   3.741034   4.232166
    33  H    4.056580   2.691086   6.434117   7.496031   8.798371
    34  H    7.241785   7.070230   7.262081   8.594476   9.049957
    35  H    4.927102   5.025390   8.184960   9.580893  10.332142
    36  H    9.068865   8.601033   5.877827   7.046768   7.202730
    37  H    5.848220   4.479959   5.352637   6.199468   7.565860
    38  H    8.335936   6.966731   4.633872   4.930044   6.302888
    39  H    9.881391   8.560086   2.690248   2.533000   3.860367
    40  H    3.420442   3.893745   9.219351  10.604346  11.506219
    41  H    2.168336   3.395067  10.962499  12.297746  13.345841
    42  H    1.094879   2.144893  10.789861  12.006900  13.212219
    43  H    2.147573   1.095924   8.803136   9.914556  11.195101
    44  H   11.204808   9.936776   2.155813   1.100891   2.166490
    45  H   13.208887  12.014406   3.410877   2.153848   1.095071
    46  H   13.327634  12.286169   3.904553   3.405109   2.157546
    47  H   12.626879  11.772234   4.622865   4.853346   4.067854
    48  H   11.146752  10.497370   5.339911   6.133919   5.830699
                   26         27         28         29         30
    26  C    0.000000
    27  C    2.430946   0.000000
    28  C    1.399665   1.411568   0.000000
    29  C    2.473508   2.462933   1.442327   0.000000
    30  C    3.705999   2.831558   2.432240   1.350574   0.000000
    31  C    4.240470   2.469718   2.840805   2.433189   1.443072
    32  C    3.743614   1.437472   2.464491   2.831308   2.466815
    33  H    9.178098   6.941927   8.351604   9.089465   8.625279
    34  H    8.306854   6.282161   6.907893   6.335546   5.032668
    35  H    9.861062   7.558686   8.509640   8.261739   7.073681
    36  H    6.249910   4.625724   4.871590   4.042967   2.697375
    37  H    8.161171   6.168544   7.559119   8.527368   8.327106
    38  H    7.250177   5.869208   7.075932   8.328008   8.526676
    39  H    4.932049   4.094937   5.034988   6.417459   6.922531
    40  H   11.193888   8.807870   9.895194   9.808458   8.690307
    41  H   13.209469  10.782205  11.984651  12.059525  11.018579
    42  H   13.335051  10.932021  12.264919  12.624738  11.777602
    43  H   11.492674   9.174538  10.566270  11.150224  10.505768
    44  H    3.410056   3.416168   3.895295   5.337549   6.136015
    45  H    2.153428   3.889783   3.407161   4.624464   5.817540
    46  H    1.095869   3.423919   2.163099   2.699944   4.045663
    47  H    2.685568   3.440922   2.181878   1.096149   2.133553
    48  H    4.604478   3.927467   3.435901   2.133455   1.096160
                   31         32         33         34         35
    31  C    0.000000
    32  C    1.419003   0.000000
    33  H    7.242320   6.275397   0.000000
    34  H    4.070263   4.868074   7.230759   0.000000
    35  H    5.838862   6.141812   5.951621   2.489279   0.000000
    36  H    2.158290   3.427920   8.016379   2.442588   4.763473
    37  H    7.073804   5.865202   1.794706   8.027833   7.214831
    38  H    7.557122   6.160652   4.283914   9.578192   9.253317
    39  H    6.286698   4.888667   5.937414   9.242880   9.577370
    40  H    7.376126   7.451891   5.569243   4.280494   1.791220
    41  H    9.648849   9.520357   5.926720   6.773882   4.284634
    42  H   10.341358   9.871149   4.761109   8.290326   5.925501
    43  H    9.071248   8.321686   2.440103   8.016843   6.073382
    44  H    5.868866   4.625236   7.423078   9.403466  10.182222
    45  H    6.149392   5.327233   9.646019  10.139154  11.421074
    46  H    4.876091   4.625101  10.258715   8.925989  10.647309
    47  H    3.436866   3.927139  10.178571   7.148007   9.201530
    48  H    2.182396   3.446130   9.407532   4.887703   7.155749
                   36         37         38         39         40
    36  H    0.000000
    37  H    8.296263   0.000000
    38  H    9.249058   2.489234   0.000000
    39  H    8.289434   4.318878   2.493329   0.000000
    40  H    6.511972   7.133148   9.433466  10.199235   0.000000
    41  H    8.968562   7.705093  10.179565  11.449526   2.493546
    42  H   10.157553   6.511452   8.970574  10.681048   4.314200
    43  H    9.389811   4.093982   6.515751   8.358782   4.989607
    44  H    8.008830   5.943411   4.292570   1.799255  11.064414
    45  H    8.252958   8.303388   6.780761   4.287522  12.573649
    46  H    6.718419   9.257025   8.304348   5.937831  12.056245
    47  H    4.757899   9.575923   9.248113   7.203478  10.795576
    48  H    2.445159   9.246644   9.574941   8.016639   8.863057
                   41         42         43         44         45
    41  H    0.000000
    42  H    2.480977   0.000000
    43  H    4.306424   2.486291   0.000000
    44  H   12.588149  12.080153   9.863150   0.000000
    45  H   14.371712  14.152888  12.067589   2.488313   0.000000
    46  H   14.142318  14.355880  12.556924   4.314833   2.484524
    47  H   13.085714  13.704806  12.246324   5.937339   4.763969
    48  H   11.274463  12.241509  11.150802   7.216615   6.751140
                   46         47         48
    46  H    0.000000
    47  H    2.445818   0.000000
    48  H    4.759742   2.480637   0.000000
 Stoichiometry    C32H16
 Framework group  CS[SG(C32H16)]
 Deg. of freedom    93
 Full point group                 CS      NOp   2
 Largest Abelian subgroup         CS      NOp   2
 Largest concise Abelian subgroup C1      NOp   1
                         Standard orientation:                         
 ---------------------------------------------------------------------
 Center     Atomic      Atomic             Coordinates (Angstroms)
 Number     Number       Type             X           Y           Z
 ---------------------------------------------------------------------
      1          6           0        0.702505   -3.265961    0.000000
      2          6           0       -1.936486   -2.286890    0.000000
      3          6           0       -3.499515   -0.424422    0.000000
      4          6           0       -3.269583   -1.760874    0.000000
      5          6           0       -2.408161    0.505240    0.000000
      6          6           0       -2.641956    1.888498    0.000000
      7          6           0        2.437751    1.328982    0.000000
      8          6           0        2.924256   -1.424904    0.000000
      9          6           0        3.988090   -0.528976    0.000000
     10          6           0        3.748910    0.835053    0.000000
     11          6           0        1.606061   -0.966706    0.000000
     12          6           0        1.357002    0.423627    0.000000
     13          6           0        0.000000    0.916976    0.000000
     14          6           0       -1.084766    0.011171    0.000000
     15          6           0       -0.851860   -1.404581    0.000000
     16          6           0        0.489700   -1.908516    0.000000
     17          6           0       -0.382441   -4.182524    0.000000
     18          6           0       -1.706553   -3.701973    0.000000
     19          6           0       -2.774362   -4.636135    0.000000
     20          6           0       -2.524998   -5.983342    0.000000
     21          6           0       -1.196920   -6.462111    0.000000
     22          6           0       -0.146448   -5.582553    0.000000
     23          6           0        2.183054    2.761729    0.000000
     24          6           0        3.227289    3.688970    0.000000
     25          6           0        2.965698    5.054970    0.000000
     26          6           0        1.659376    5.521164    0.000000
     27          6           0        0.850057    3.228894    0.000000
     28          6           0        0.591326    4.616547    0.000000
     29          6           0       -0.774487    5.080081    0.000000
     30          6           0       -1.806507    4.208885    0.000000
     31          6           0       -1.579226    2.783823    0.000000
     32          6           0       -0.245770    2.298577    0.000000
     33          1           0        1.733125   -3.656638    0.000000
     34          1           0       -4.521566   -0.028591    0.000000
     35          1           0       -4.101462   -2.482165    0.000000
     36          1           0       -3.673495    2.262044    0.000000
     37          1           0        3.113317   -2.509450    0.000000
     38          1           0        5.016449   -0.904965    0.000000
     39          1           0        4.585371    1.550816    0.000000
     40          1           0       -3.804568   -4.248608    0.000000
     41          1           0       -3.352084   -6.700757    0.000000
     42          1           0       -1.018194   -7.542305    0.000000
     43          1           0        0.887607   -5.945568    0.000000
     44          1           0        4.264975    3.321315    0.000000
     45          1           0        3.798888    5.765587    0.000000
     46          1           0        1.458098    6.598390    0.000000
     47          1           0       -0.948533    6.162324    0.000000
     48          1           0       -2.844146    4.562258    0.000000
 ---------------------------------------------------------------------
 Rotational constants (GHZ):      0.3182452      0.1009521      0.0766406
 Leave Link  202 at Sat Jul 27 13:19:29 2019, MaxMem=  4194304000 cpu:         0.5
 (Enter /home/minenky/programs//g09/l301.exe)
 Standard basis: def2TZVP (5D, 7F)
 ======================================================================================================
                                       Pseudopotential Parameters
 ======================================================================================================
  Center     Atomic      Valence      Angular      Power
  Number     Number     Electrons     Momentum     of R      Exponent        Coefficient   SO-Coeffient
 ======================================================================================================
    1          6
                                   No pseudopotential on this center.
    2          6
                                   No pseudopotential on this center.
    3          6
                                   No pseudopotential on this center.
    4          6
                                   No pseudopotential on this center.
    5          6
                                   No pseudopotential on this center.
    6          6
                                   No pseudopotential on this center.
    7          6
                                   No pseudopotential on this center.
    8          6
                                   No pseudopotential on this center.
    9          6
                                   No pseudopotential on this center.
   10          6
                                   No pseudopotential on this center.
   11          6
                                   No pseudopotential on this center.
   12          6
                                   No pseudopotential on this center.
   13          6
                                   No pseudopotential on this center.
   14          6
                                   No pseudopotential on this center.
   15          6
                                   No pseudopotential on this center.
   16          6
                                   No pseudopotential on this center.
   17          6
                                   No pseudopotential on this center.
   18          6
                                   No pseudopotential on this center.
   19          6
                                   No pseudopotential on this center.
   20          6
                                   No pseudopotential on this center.
   21          6
                                   No pseudopotential on this center.
   22          6
                                   No pseudopotential on this center.
   23          6
                                   No pseudopotential on this center.
   24          6
                                   No pseudopotential on this center.
   25          6
                                   No pseudopotential on this center.
   26          6
                                   No pseudopotential on this center.
   27          6
                                   No pseudopotential on this center.
   28          6
                                   No pseudopotential on this center.
   29          6
                                   No pseudopotential on this center.
   30          6
                                   No pseudopotential on this center.
   31          6
                                   No pseudopotential on this center.
   32          6
                                   No pseudopotential on this center.
   33          1
                                   No pseudopotential on this center.
   34          1
                                   No pseudopotential on this center.
   35          1
                                   No pseudopotential on this center.
   36          1
                                   No pseudopotential on this center.
   37          1
                                   No pseudopotential on this center.
   38          1
                                   No pseudopotential on this center.
   39          1
                                   No pseudopotential on this center.
   40          1
                                   No pseudopotential on this center.
   41          1
                                   No pseudopotential on this center.
   42          1
                                   No pseudopotential on this center.
   43          1
                                   No pseudopotential on this center.
   44          1
                                   No pseudopotential on this center.
   45          1
                                   No pseudopotential on this center.
   46          1
                                   No pseudopotential on this center.
   47          1
                                   No pseudopotential on this center.
   48          1
                                   No pseudopotential on this center.
 ======================================================================================================
 Ernie: Thresh=  0.10000D-02 Tol=  0.10000D-05 Strict=F.
 AO basis set (Overlap normalization):
 Atom C1       Shell     1 S   6     bf    1 -     1          1.327542650876         -6.171770938595          0.000000000000
      0.1357534968D+05  0.6064550360D-03
      0.2035233368D+04  0.4697908888D-02
      0.4632256236D+03  0.2433247765D-01
      0.1312001960D+03  0.9739996831D-01
      0.4285301589D+02  0.3019558425D+00
      0.1558418577D+02  0.6623360914D+00
 Atom C1       Shell     2 S   2     bf    2 -     2          1.327542650876         -6.171770938595          0.000000000000
      0.6206713851D+01  0.6559530854D+00
      0.2576489653D+01  0.3758563329D+00
 Atom C1       Shell     3 S   1     bf    3 -     3          1.327542650876         -6.171770938595          0.000000000000
      0.5769633942D+00  0.1000000000D+01
 Atom C1       Shell     4 S   1     bf    4 -     4          1.327542650876         -6.171770938595          0.000000000000
      0.2297283136D+00  0.1000000000D+01
 Atom C1       Shell     5 S   1     bf    5 -     5          1.327542650876         -6.171770938595          0.000000000000
      0.9516444003D-01  0.1000000000D+01
 Atom C1       Shell     6 P   4     bf    6 -     8          1.327542650876         -6.171770938595          0.000000000000
      0.3469723224D+02  0.1132722000D-01
      0.7958262283D+01  0.7616965920D-01
      0.2378082688D+01  0.3019225220D+00
      0.8143320818D+00  0.7278502735D+00
 Atom C1       Shell     7 P   1     bf    9 -    11          1.327542650876         -6.171770938595          0.000000000000
      0.2888754725D+00  0.1000000000D+01
 Atom C1       Shell     8 P   1     bf   12 -    14          1.327542650876         -6.171770938595          0.000000000000
      0.1005682367D+00  0.1000000000D+01
 Atom C1       Shell     9 D   1     bf   15 -    19          1.327542650876         -6.171770938595          0.000000000000
      0.1097000000D+01  0.1000000000D+01
 Atom C1       Shell    10 D   1     bf   20 -    24          1.327542650876         -6.171770938595          0.000000000000
      0.3180000000D+00  0.1000000000D+01
 Atom C1       Shell    11 F   1     bf   25 -    31          1.327542650876         -6.171770938595          0.000000000000
      0.7610000000D+00  0.1000000000D+01
 Atom C2       Shell    12 S   6     bf   32 -    32         -3.659429116786         -4.321596361110          0.000000000000
      0.1357534968D+05  0.6064550360D-03
      0.2035233368D+04  0.4697908888D-02
      0.4632256236D+03  0.2433247765D-01
      0.1312001960D+03  0.9739996831D-01
      0.4285301589D+02  0.3019558425D+00
      0.1558418577D+02  0.6623360914D+00
 Atom C2       Shell    13 S   2     bf   33 -    33         -3.659429116786         -4.321596361110          0.000000000000
      0.6206713851D+01  0.6559530854D+00
      0.2576489653D+01  0.3758563329D+00
 Atom C2       Shell    14 S   1     bf   34 -    34         -3.659429116786         -4.321596361110          0.000000000000
      0.5769633942D+00  0.1000000000D+01
 Atom C2       Shell    15 S   1     bf   35 -    35         -3.659429116786         -4.321596361110          0.000000000000
      0.2297283136D+00  0.1000000000D+01
 Atom C2       Shell    16 S   1     bf   36 -    36         -3.659429116786         -4.321596361110          0.000000000000
      0.9516444003D-01  0.1000000000D+01
 Atom C2       Shell    17 P   4     bf   37 -    39         -3.659429116786         -4.321596361110          0.000000000000
      0.3469723224D+02  0.1132722000D-01
      0.7958262283D+01  0.7616965920D-01
      0.2378082688D+01  0.3019225220D+00
      0.8143320818D+00  0.7278502735D+00
 Atom C2       Shell    18 P   1     bf   40 -    42         -3.659429116786         -4.321596361110          0.000000000000
      0.2888754725D+00  0.1000000000D+01
 Atom C2       Shell    19 P   1     bf   43 -    45         -3.659429116786         -4.321596361110          0.000000000000
      0.1005682367D+00  0.1000000000D+01
 Atom C2       Shell    20 D   1     bf   46 -    50         -3.659429116786         -4.321596361110          0.000000000000
      0.1097000000D+01  0.1000000000D+01
 Atom C2       Shell    21 D   1     bf   51 -    55         -3.659429116786         -4.321596361110          0.000000000000
      0.3180000000D+00  0.1000000000D+01
 Atom C2       Shell    22 F   1     bf   56 -    62         -3.659429116786         -4.321596361110          0.000000000000
      0.7610000000D+00  0.1000000000D+01
 Atom C3       Shell    23 S   6     bf   63 -    63         -6.613124492362         -0.802041354776          0.000000000000
      0.1357534968D+05  0.6064550360D-03
      0.2035233368D+04  0.4697908888D-02
      0.4632256236D+03  0.2433247765D-01
      0.1312001960D+03  0.9739996831D-01
      0.4285301589D+02  0.3019558425D+00
      0.1558418577D+02  0.6623360914D+00
 Atom C3       Shell    24 S   2     bf   64 -    64         -6.613124492362         -0.802041354776          0.000000000000
      0.6206713851D+01  0.6559530854D+00
      0.2576489653D+01  0.3758563329D+00
 Atom C3       Shell    25 S   1     bf   65 -    65         -6.613124492362         -0.802041354776          0.000000000000
      0.5769633942D+00  0.1000000000D+01
 Atom C3       Shell    26 S   1     bf   66 -    66         -6.613124492362         -0.802041354776          0.000000000000
      0.2297283136D+00  0.1000000000D+01
 Atom C3       Shell    27 S   1     bf   67 -    67         -6.613124492362         -0.802041354776          0.000000000000
      0.9516444003D-01  0.1000000000D+01
 Atom C3       Shell    28 P   4     bf   68 -    70         -6.613124492362         -0.802041354776          0.000000000000
      0.3469723224D+02  0.1132722000D-01
      0.7958262283D+01  0.7616965920D-01
      0.2378082688D+01  0.3019225220D+00
      0.8143320818D+00  0.7278502735D+00
 Atom C3       Shell    29 P   1     bf   71 -    73         -6.613124492362         -0.802041354776          0.000000000000
      0.2888754725D+00  0.1000000000D+01
 Atom C3       Shell    30 P   1     bf   74 -    76         -6.613124492362         -0.802041354776          0.000000000000
      0.1005682367D+00  0.1000000000D+01
 Atom C3       Shell    31 D   1     bf   77 -    81         -6.613124492362         -0.802041354776          0.000000000000
      0.1097000000D+01  0.1000000000D+01
 Atom C3       Shell    32 D   1     bf   82 -    86         -6.613124492362         -0.802041354776          0.000000000000
      0.3180000000D+00  0.1000000000D+01
 Atom C3       Shell    33 F   1     bf   87 -    93         -6.613124492362         -0.802041354776          0.000000000000
      0.7610000000D+00  0.1000000000D+01
 Atom C4       Shell    34 S   6     bf   94 -    94         -6.178616236221         -3.327570004984          0.000000000000
      0.1357534968D+05  0.6064550360D-03
      0.2035233368D+04  0.4697908888D-02
      0.4632256236D+03  0.2433247765D-01
      0.1312001960D+03  0.9739996831D-01
      0.4285301589D+02  0.3019558425D+00
      0.1558418577D+02  0.6623360914D+00
 Atom C4       Shell    35 S   2     bf   95 -    95         -6.178616236221         -3.327570004984          0.000000000000
      0.6206713851D+01  0.6559530854D+00
      0.2576489653D+01  0.3758563329D+00
 Atom C4       Shell    36 S   1     bf   96 -    96         -6.178616236221         -3.327570004984          0.000000000000
      0.5769633942D+00  0.1000000000D+01
 Atom C4       Shell    37 S   1     bf   97 -    97         -6.178616236221         -3.327570004984          0.000000000000
      0.2297283136D+00  0.1000000000D+01
 Atom C4       Shell    38 S   1     bf   98 -    98         -6.178616236221         -3.327570004984          0.000000000000
      0.9516444003D-01  0.1000000000D+01
 Atom C4       Shell    39 P   4     bf   99 -   101         -6.178616236221         -3.327570004984          0.000000000000
      0.3469723224D+02  0.1132722000D-01
      0.7958262283D+01  0.7616965920D-01
      0.2378082688D+01  0.3019225220D+00
      0.8143320818D+00  0.7278502735D+00
 Atom C4       Shell    40 P   1     bf  102 -   104         -6.178616236221         -3.327570004984          0.000000000000
      0.2888754725D+00  0.1000000000D+01
 Atom C4       Shell    41 P   1     bf  105 -   107         -6.178616236221         -3.327570004984          0.000000000000
      0.1005682367D+00  0.1000000000D+01
 Atom C4       Shell    42 D   1     bf  108 -   112         -6.178616236221         -3.327570004984          0.000000000000
      0.1097000000D+01  0.1000000000D+01
 Atom C4       Shell    43 D   1     bf  113 -   117         -6.178616236221         -3.327570004984          0.000000000000
      0.3180000000D+00  0.1000000000D+01
 Atom C4       Shell    44 F   1     bf  118 -   124         -6.178616236221         -3.327570004984          0.000000000000
      0.7610000000D+00  0.1000000000D+01
 Atom C5       Shell    45 S   6     bf  125 -   125         -4.550764939643          0.954765786174          0.000000000000
      0.1357534968D+05  0.6064550360D-03
      0.2035233368D+04  0.4697908888D-02
      0.4632256236D+03  0.2433247765D-01
      0.1312001960D+03  0.9739996831D-01
      0.4285301589D+02  0.3019558425D+00
      0.1558418577D+02  0.6623360914D+00
 Atom C5       Shell    46 S   2     bf  126 -   126         -4.550764939643          0.954765786174          0.000000000000
      0.6206713851D+01  0.6559530854D+00
      0.2576489653D+01  0.3758563329D+00
 Atom C5       Shell    47 S   1     bf  127 -   127         -4.550764939643          0.954765786174          0.000000000000
      0.5769633942D+00  0.1000000000D+01
 Atom C5       Shell    48 S   1     bf  128 -   128         -4.550764939643          0.954765786174          0.000000000000
      0.2297283136D+00  0.1000000000D+01
 Atom C5       Shell    49 S   1     bf  129 -   129         -4.550764939643          0.954765786174          0.000000000000
      0.9516444003D-01  0.1000000000D+01
 Atom C5       Shell    50 P   4     bf  130 -   132         -4.550764939643          0.954765786174          0.000000000000
      0.3469723224D+02  0.1132722000D-01
      0.7958262283D+01  0.7616965920D-01
      0.2378082688D+01  0.3019225220D+00
      0.8143320818D+00  0.7278502735D+00
 Atom C5       Shell    51 P   1     bf  133 -   135         -4.550764939643          0.954765786174          0.000000000000
      0.2888754725D+00  0.1000000000D+01
 Atom C5       Shell    52 P   1     bf  136 -   138         -4.550764939643          0.954765786174          0.000000000000
      0.1005682367D+00  0.1000000000D+01
 Atom C5       Shell    53 D   1     bf  139 -   143         -4.550764939643          0.954765786174          0.000000000000
      0.1097000000D+01  0.1000000000D+01
 Atom C5       Shell    54 D   1     bf  144 -   148         -4.550764939643          0.954765786174          0.000000000000
      0.3180000000D+00  0.1000000000D+01
 Atom C5       Shell    55 F   1     bf  149 -   155         -4.550764939643          0.954765786174          0.000000000000
      0.7610000000D+00  0.1000000000D+01
 Atom C6       Shell    56 S   6     bf  156 -   156         -4.992573430699          3.568744118128          0.000000000000
      0.1357534968D+05  0.6064550360D-03
      0.2035233368D+04  0.4697908888D-02
      0.4632256236D+03  0.2433247765D-01
      0.1312001960D+03  0.9739996831D-01
      0.4285301589D+02  0.3019558425D+00
      0.1558418577D+02  0.6623360914D+00
[...]
 ,0.00000654,0.00000124,0.,0.00012952,-0.00002121,0.,0.00007540,0.00136
 699,0.,0.00084464,-0.00037325,0.,0.05978138,0.00206582,0.00094407,0.,0
 .00071608,-0.00061216,0.,0.00008100,-0.00008080,0.,-0.00031457,-0.0000
 5663,0.,-0.00004372,0.00000603,0.,0.00003532,0.00003485,0.,0.00000032,
 0.00002264,0.,-0.00006830,0.00000868,0.,0.00003579,0.00002092,0.,-0.00
 001982,-0.00001187,0.,0.00004280,-0.00009001,0.,-0.00001906,-0.0000365
 4,0.,0.00001677,-0.00002492,0.,-0.00004092,0.00007774,0.,0.00001366,0.
 00026915,0.,-0.00043310,0.00008742,0.,0.00228377,-0.01235618,0.,-0.002
 75830,0.00077373,0.,-0.00012731,0.00065708,0.,0.00336296,0.00054594,0.
 ,-0.00336498,-0.01212401,0.,-0.00546081,-0.33833235,0.,-0.00002030,0.0
 0000989,0.,0.00000862,0.00000290,0.,-0.00000763,-0.00000615,0.,-0.0000
 0261,0.00001596,0.,0.00001193,-0.00001514,0.,-0.00000160,-0.00001857,0
 .,-0.00002011,-0.00000453,0.,0.00001524,0.00002479,0.,-0.00003663,0.00
 001759,0.,-0.00002437,-0.00002585,0.,-0.00082640,0.00055311,0.,-0.0000
 2882,-0.00001895,0.,0.00001979,0.00001505,0.,0.00000148,-0.00000542,0.
 ,-0.00000539,0.00001522,0.,-0.00000608,0.00000811,0.,-0.00000094,0.000
 00137,0.,0.00001118,-0.00010461,0.,-0.00019269,-0.00070840,0.,0.000354
 90,0.00079862,0.,0.00475531,0.35972152,0.,0.,-0.00299714,0.,0.,0.00008
 022,0.,0.,0.00000571,0.,0.,0.00019628,0.,0.,0.00000170,0.,0.,-0.000003
 71,0.,0.,-0.00001121,0.,0.,-0.00004814,0.,0.,0.00000177,0.,0.,-0.00000
 634,0.,0.,0.00016128,0.,0.,0.00000556,0.,0.,0.00000336,0.,0.,0.0000456
 7,0.,0.,-0.00006932,0.,0.,-0.00014055,0.,0.,0.00295869,0.,0.,0.0051981
 4,0.,0.,-0.00083567,0.,0.,0.00885643,0.,0.,0.00386746,0.,0.,-0.0366276
 4,0.,0.,0.00000108,0.,0.,-0.00000311,0.,0.,-0.00000149,0.,0.,-0.000000
 37,0.,0.,-0.00000037,0.,0.,-0.00000035,0.,0.,-0.00000096,0.,0.,-0.0000
 0009,0.,0.,-0.00000003,0.,0.,0.00000022,0.,0.,0.00026327,0.,0.,-0.0000
 4110,0.,0.,0.00001139,0.,0.,-0.00000120,0.,0.,0.00004564,0.,0.,0.00000
 630,0.,0.,0.00000288,0.,0.,-0.00116127,0.,0.,0.00008000,0.,0.,-0.00501
 174,0.,0.,0.02516328,0.00002089,-0.00005551,0.,0.00001090,-0.00004314,
 0.,-0.00005398,-0.00002818,0.,0.00000407,0.00007176,0.,0.00012699,0.00
 011164,0.,-0.00014050,0.00012565,0.,0.00101394,-0.00085895,0.,0.000131
 16,-0.00008267,0.,0.00017376,-0.00046782,0.,-0.00243881,0.00064871,0.,
 0.00012282,-0.00000992,0.,0.00002627,-0.00002846,0.,-0.00000232,0.0001
 3605,0.,0.00012198,-0.00020929,0.,-0.00000803,0.00001830,0.,-0.0000513
 7,0.00008236,0.,-0.00001516,-0.00000747,0.,0.00004115,-0.00001121,0.,-
 0.00001218,0.00001232,0.,0.00002074,-0.00000377,0.,-0.00000129,-0.0000
 1374,0.,0.00000094,-0.00001019,0.,0.00662073,0.02698373,0.,-0.05918634
 ,0.00645286,0.,0.00397612,-0.02964418,0.,-0.00457420,-0.00244251,0.,-0
 .00495773,0.00196240,0.,-0.00127719,0.00032581,0.,0.00023808,-0.000292
 08,0.,-0.00024538,-0.00000020,0.,-0.00021118,0.00008960,0.,0.00082957,
 0.00127341,0.,-0.00001733,-0.00000850,0.,-0.00000009,-0.00000270,0.,0.
 00000236,-0.00000291,0.,-0.00004212,0.00002919,0.,0.00006560,-0.000029
 66,0.,-0.00002149,0.00000868,0.,-0.00275399,-0.00216380,0.,0.00000439,
 -0.00000587,0.,0.00000209,-0.00000131,0.,0.00000359,0.00000066,0.,-0.0
 0000444,-0.00000051,0.,0.06160694,-0.00002189,0.00002061,0.,-0.0000002
 8,-0.00002237,0.,-0.00001932,0.00004260,0.,0.00004311,-0.00001373,0.,0
 .00005483,0.00000488,0.,-0.00007706,-0.00005099,0.,-0.00118268,-0.0015
 5499,0.,-0.00012298,-0.00004839,0.,-0.00030012,0.00059789,0.,-0.001988
 47,-0.00060304,0.,-0.00001942,-0.00006651,0.,0.00026328,0.00000736,0.,
 -0.00010700,-0.00001869,0.,0.00002401,0.00002087,0.,-0.00003706,-0.000
 04949,0.,0.00007045,-0.00000188,0.,0.00001522,0.00000506,0.,-0.0000110
 0,0.00001098,0.,0.00000237,0.00000348,0.,0.00000084,0.00000514,0.,0.00
 000757,0.00000076,0.,-0.00000427,-0.00000467,0.,-0.00081686,-0.0124433
 8,0.,0.00591404,-0.34451215,0.,0.00277757,-0.01206549,0.,-0.00316146,0
 .00056108,0.,0.00275359,0.00070114,0.,0.00006696,0.00062819,0.,-0.0000
 4468,-0.00002363,0.,0.00002450,0.00002564,0.,0.00033335,-0.00005024,0.
 ,-0.00050446,-0.00057958,0.,0.00000958,0.00000973,0.,0.00000102,-0.000
 00455,0.,0.00000226,0.00000100,0.,0.00002482,-0.00002410,0.,-0.0000489
 3,0.00002729,0.,0.00001203,-0.00000722,0.,-0.00286907,0.00049081,0.,-0
 .00000501,0.00000180,0.,0.00000173,-0.00000041,0.,0.00000169,0.0000007
 4,0.,0.00000123,0.00000306,0.,-0.00092572,0.36873614,0.,0.,-0.00007638
 ,0.,0.,-0.00002625,0.,0.,-0.00003840,0.,0.,0.00003129,0.,0.,0.00009420
 ,0.,0.,-0.00003200,0.,0.,-0.00276964,0.,0.,0.00008847,0.,0.,-0.0002982
 7,0.,0.,-0.00077203,0.,0.,-0.00006803,0.,0.,-0.00006397,0.,0.,-0.00012
 518,0.,0.,0.00003048,0.,0.,-0.00005265,0.,0.,0.00018398,0.,0.,0.000004
 25,0.,0.,0.00000585,0.,0.,-0.00000006,0.,0.,-0.00000493,0.,0.,-0.00000
 063,0.,0.,-0.00000132,0.,0.,0.00191111,0.,0.,-0.03539026,0.,0.,0.00292
 756,0.,0.,0.00780024,0.,0.,0.00735972,0.,0.,-0.00122409,0.,0.,-0.00097
 669,0.,0.,0.00013608,0.,0.,-0.00015022,0.,0.,0.00019700,0.,0.,0.000039
 34,0.,0.,0.00000361,0.,0.,-0.00000253,0.,0.,-0.00009253,0.,0.,0.000053
 96,0.,0.,-0.00002195,0.,0.,0.00212382,0.,0.,0.00000120,0.,0.,0.0000020
 2,0.,0.,0.00000134,0.,0.,0.00000199,0.,0.,0.02295035,-0.00000473,0.000
 02333,0.,-0.00000579,0.00002845,0.,0.00004035,-0.00001375,0.,-0.000026
 07,-0.00003491,0.,-0.00007438,-0.00006986,0.,0.00013276,0.00000621,0.,
 -0.00047485,0.00125941,0.,-0.00007089,0.00002591,0.,0.00006987,-0.0000
 1450,0.,-0.00006705,-0.00001786,0.,-0.00007152,0.00006127,0.,-0.000298
 58,-0.00029632,0.,0.00010020,-0.00013591,0.,-0.00007609,0.00008789,0.,
 0.00002503,0.00002199,0.,-0.00002825,-0.00005813,0.,-0.00000839,-0.000
 00301,0.,-0.00001107,0.00000087,0.,0.00000498,-0.00001039,0.,-0.000011
 13,-0.00000496,0.,-0.00000971,0.00000578,0.,0.00000404,0.00001214,0.,-
 0.00305916,-0.00383759,0.,-0.01848335,0.01684198,0.,-0.26534583,0.1252
 4581,0.,0.00447014,-0.00254616,0.,0.00018799,-0.00091161,0.,0.00170329
 ,-0.00095273,0.,-0.00005410,0.00001168,0.,0.00017450,0.00003488,0.,-0.
 00016701,0.00002682,0.,-0.00000580,0.00006014,0.,0.00000595,-0.0000017
 6,0.,0.00000072,0.00000475,0.,-0.00000456,0.00000208,0.,-0.00000085,0.
 00000660,0.,-0.00000672,-0.00000612,0.,-0.00002173,-0.00002245,0.,-0.0
 0000451,-0.00000264,0.,0.00000166,0.00000222,0.,-0.00000320,0.00000133
 ,0.,-0.00000380,-0.00000097,0.,0.00000177,-0.00000267,0.,0.00083890,-0
 .00027846,0.,0.27991891,0.00002385,0.00001304,0.,0.00001513,0.00005270
 ,0.,0.00005726,0.00000871,0.,-0.00002275,-0.00004744,0.,-0.00015340,-0
 .00011076,0.,0.00023767,0.00000997,0.,-0.00032075,0.00073536,0.,-0.000
 02318,0.00007424,0.,0.00009773,-0.00002643,0.,0.00000085,-0.00004566,0
 .,-0.00007467,0.00000509,0.,-0.00016552,-0.00004278,0.,0.00016447,-0.0
 0017865,0.,-0.00009272,0.00014517,0.,0.00002920,0.00000951,0.,-0.00002
 755,-0.00003636,0.,-0.00001759,0.00001662,0.,-0.00003202,-0.00001331,0
 .,0.00001404,0.00000168,0.,-0.00000406,-0.00000749,0.,0.00000021,0.000
 01004,0.,0.00000924,-0.00000348,0.,-0.00343387,-0.00086225,0.,-0.01480
 657,0.01150844,0.,0.12553455,-0.13746033,0.,0.02914612,-0.01060510,0.,
 -0.00080235,-0.00080052,0.,-0.00149774,-0.00572912,0.,0.00144444,0.000
 17097,0.,0.00007386,-0.00057675,0.,-0.00035123,0.00000553,0.,-0.000001
 15,0.00009432,0.,0.00000101,0.00000129,0.,-0.00000179,-0.00000097,0.,0
 .00000263,-0.00000103,0.,-0.00000488,0.00000231,0.,0.00000152,-0.00000
 171,0.,-0.00000619,-0.00000218,0.,-0.00000725,-0.00002620,0.,-0.000001
 90,-0.00000036,0.,0.00000176,-0.00000093,0.,0.00000145,0.00000100,0.,-
 0.00000018,0.00000158,0.,0.00026103,0.00092770,0.,-0.13494802,0.142041
 20,0.,0.,-0.00000248,0.,0.,-0.00000298,0.,0.,-0.00000129,0.,0.,-0.0000
 0160,0.,0.,-0.00000732,0.,0.,0.00004032,0.,0.,0.00017009,0.,0.,0.00004
 260,0.,0.,-0.00009257,0.,0.,0.00021276,0.,0.,-0.00000880,0.,0.,-0.0003
 7995,0.,0.,0.00008598,0.,0.,0.00008343,0.,0.,-0.00000617,0.,0.,-0.0000
 2991,0.,0.,0.00001135,0.,0.,-0.00000209,0.,0.,-0.00000142,0.,0.,-0.000
 00066,0.,0.,-0.00000180,0.,0.,-0.00000029,0.,0.,0.00777203,0.,0.,0.002
 17241,0.,0.,-0.03684958,0.,0.,0.00255246,0.,0.,-0.00096588,0.,0.,0.008
 00210,0.,0.,0.00018391,0.,0.,-0.00037155,0.,0.,0.00008240,0.,0.,-0.000
 87870,0.,0.,-0.00000142,0.,0.,0.00000194,0.,0.,0.00000190,0.,0.,-0.000
 00568,0.,0.,0.00000044,0.,0.,0.00001938,0.,0.,-0.00003131,0.,0.,0.0000
 0049,0.,0.,0.00000088,0.,0.,0.00000050,0.,0.,0.00000129,0.,0.,-0.00389
 817,0.,0.,0.02596707,-0.00000592,-0.00000180,0.,-0.00000668,0.00000557
 ,0.,0.00002229,-0.00001922,0.,-0.00002896,0.00001601,0.,-0.00004016,0.
 00000744,0.,0.00008156,0.00007796,0.,0.00013601,-0.00000039,0.,-0.0000
 1967,0.00003724,0.,0.00004353,-0.00003117,0.,-0.00004545,-0.00004985,0
 .,-0.00000269,-0.00003183,0.,0.00000874,0.00013120,0.,-0.00028421,0.00
 031990,0.,-0.00006216,-0.00010688,0.,-0.00002997,0.00005581,0.,0.00000
 266,-0.00001676,0.,0.00000935,-0.00000308,0.,-0.00000632,0.00000316,0.
 ,-0.00000029,-0.00000830,0.,-0.00000942,0.00000278,0.,-0.00000163,0.00
 000303,0.,-0.00000153,0.00000642,0.,-0.00003589,0.00086540,0.,0.001847
 31,0.00035383,0.,0.00340409,0.00212695,0.,-0.27391802,-0.11804688,0.,-
 0.00260686,0.00392524,0.,-0.01943478,-0.01564272,0.,0.00100744,-0.0020
 5458,0.,0.00016147,0.00040940,0.,0.00011329,-0.00013497,0.,-0.00062532
 ,-0.00132168,0.,0.00000120,-0.00000094,0.,-0.00000422,0.00000886,0.,-0
 .00000238,0.00000063,0.,-0.00002428,0.00002860,0.,-0.00000565,-0.00000
 429,0.,-0.00000524,-0.00000660,0.,0.00000433,0.00000674,0.,0.00000215,
 0.00000165,0.,-0.00000265,0.00000084,0.,-0.00000279,-0.00000117,0.,0.0
 0000123,-0.00000155,0.,-0.00000989,0.00014968,0.,0.00071599,-0.0004164
 2,0.,0.28950773,-0.00003174,0.00000322,0.,-0.00000792,-0.00003723,0.,-
 0.00005495,-0.00000513,0.,0.00002106,0.00004425,0.,0.00013162,0.000115
 09,0.,-0.00024748,-0.00002332,0.,-0.00021021,-0.00000927,0.,0.00000488
 ,-0.00005859,0.,-0.00008677,0.00006051,0.,0.00003111,-0.00002530,0.,0.
 00001599,0.00006873,0.,-0.00004097,-0.00017173,0.,0.00004457,-0.000072
 28,0.,0.00015262,-0.00004651,0.,-0.00001698,-0.00003286,0.,0.00001892,
 -0.00000211,0.,0.00002089,-0.00001705,0.,0.00002470,0.00001149,0.,-0.0
 0001103,-0.00000251,0.,-0.00000022,0.00000888,0.,0.00000112,-0.0000072
 5,0.,-0.00001035,0.00000583,0.,0.00096108,-0.00071170,0.,0.00112140,-0
 .00559363,0.,-0.02954799,-0.00933772,0.,-0.11853442,-0.12593073,0.,0.0
 0292651,-0.00137357,0.,0.01437046,0.01052847,0.,0.00180693,0.00111937,
 0.,-0.00048411,0.00007012,0.,0.00028714,0.00014727,0.,0.00066721,0.000
 56239,0.,0.00000310,0.00000021,0.,0.00000165,0.00000135,0.,-0.00000233
 ,0.00000128,0.,0.00000882,-0.00000402,0.,-0.00000993,0.00000223,0.,-0.
 00000125,-0.00000550,0.,0.00000563,0.00010226,0.,0.00000113,0.00000136
 ,0.,-0.00000192,0.00000121,0.,-0.00000228,-0.00000106,0.,0.00000118,-0
 .00000139,0.,-0.00133729,-0.00066860,0.,0.00039284,0.00085564,0.,0.128
 02437,0.13074739,0.,0.,0.00001424,0.,0.,-0.00001123,0.,0.,-0.00000794,
 0.,0.,-0.00000103,0.,0.,-0.00000296,0.,0.,-0.00000251,0.,0.,-0.0009276
 4,0.,0.,-0.00001311,0.,0.,-0.00008755,0.,0.,0.00004255,0.,0.,0.0000628
 9,0.,0.,0.00009024,0.,0.,-0.00007688,0.,0.,0.00001277,0.,0.,-0.0000730
 2,0.,0.,-0.00001877,0.,0.,-0.00000373,0.,0.,0.00001817,0.,0.,-0.000000
 70,0.,0.,-0.00000289,0.,0.,-0.00000004,0.,0.,-0.00000173,0.,0.,-0.0010
 5128,0.,0.,0.00763110,0.,0.,0.00270210,0.,0.,-0.03615450,0.,0.,0.00669
 871,0.,0.,0.00308490,0.,0.,-0.00395236,0.,0.,-0.00010280,0.,0.,0.00011
 369,0.,0.,0.00013357,0.,0.,-0.00000229,0.,0.,0.00000246,0.,0.,0.000001
 55,0.,0.,0.00002377,0.,0.,0.00002467,0.,0.,0.00000300,0.,0.,0.00010535
 ,0.,0.,0.00000145,0.,0.,0.00000067,0.,0.,0.00000077,0.,0.,0.00000069,0
 .,0.,-0.00000094,0.,0.,-0.00391190,0.,0.,0.02515493,0.00001297,-0.0000
 1060,0.,0.00000559,0.00005104,0.,-0.00002113,-0.00014992,0.,-0.0000859
 7,0.00002279,0.,-0.00037180,0.00030652,0.,-0.00063435,-0.00112469,0.,0
 .00004208,-0.00000804,0.,-0.00001246,0.00001035,0.,0.00001247,-0.00002
 068,0.,-0.00002258,0.00000180,0.,0.00002163,-0.00003585,0.,-0.00003244
 ,0.00003174,0.,0.00013620,-0.00006391,0.,-0.00000863,0.00008747,0.,0.0
 0003032,0.00002329,0.,-0.00002468,-0.00002063,0.,-0.00000372,0.0000030
 4,0.,-0.00000992,-0.00000946,0.,0.00000359,-0.00001151,0.,-0.00001347,
 -0.00000456,0.,-0.00000877,0.00000731,0.,0.00000487,0.00001035,0.,-0.0
 0015937,0.00033990,0.,0.00031303,0.00004169,0.,0.00001247,-0.00039934,
 0.,0.00112349,0.00151633,0.,0.00098943,0.00041459,0.,0.00135301,0.0017
 0715,0.,-0.27826711,-0.11553525,0.,-0.01957145,-0.01540829,0.,-0.00197
 002,0.00427801,0.,0.00013263,0.00030458,0.,0.00000024,-0.00000259,0.,0
 .00000388,0.00001188,0.,-0.00001822,-0.00000599,0.,-0.00000121,0.00006
 212,0.,-0.00000541,-0.00000386,0.,-0.00000263,-0.00000628,0.,0.0000105
 7,-0.00000065,0.,0.00000512,0.00000114,0.,-0.00000429,0.00000135,0.,-0
 .00000422,-0.00000188,0.,0.00000132,-0.00000319,0.,0.00001150,-0.00001
 368,0.,0.00000276,-0.00004372,0.,0.00019124,-0.00037623,0.,0.29603346,
 -0.00003554,0.00000938,0.,-0.00000718,-0.00004532,0.,-0.00000808,0.000
 07601,0.,0.00004285,0.00004274,0.,0.00028217,-0.00006607,0.,0.00029060
 ,0.00071042,0.,0.00026356,-0.00041801,0.,-0.00002107,0.00001209,0.,0.0
 0002495,-0.00004937,0.,-0.00018799,-0.00002697,0.,-0.00000353,0.000009
 14,0.,0.00003779,0.00005082,0.,-0.00024673,0.00005926,0.,0.00007654,-0
 .00014100,0.,-0.00005756,-0.00000472,0.,0.00003808,-0.00001290,0.,0.00
 002836,-0.00001347,0.,0.00001221,0.00001591,0.,-0.00000822,0.00000229,
 0.,0.00000019,0.00001357,0.,0.00000972,-0.00000519,0.,-0.00001164,-0.0
 0000101,0.,-0.00171599,-0.00001615,0.,0.00007506,0.00005659,0.,0.00032
 660,0.00003567,0.,-0.00187117,0.00138179,0.,0.00190336,-0.00528744,0.,
 -0.02838831,-0.01028160,0.,-0.11650238,-0.12042643,0.,0.01702601,0.012
 01181,0.,0.00301422,-0.00180967,0.,0.00077435,-0.00032447,0.,0.0000050
 8,0.00000287,0.,-0.00000459,-0.00000008,0.,0.00000964,0.00000383,0.,-0
 .00001071,-0.00002603,0.,-0.00000390,-0.00000251,0.,-0.00001694,-0.000
 01124,0.,0.00001163,0.00000756,0.,-0.00000174,0.00000124,0.,0.00000043
 ,0.00000022,0.,-0.00000037,-0.00000011,0.,0.00000122,0.00000113,0.,0.0
 0008779,0.00000201,0.,0.00001021,-0.00003042,0.,0.00129415,-0.00033409
 ,0.,0.12366975,0.12396163,0.,0.,-0.00001077,0.,0.,-0.00000768,0.,0.,-0
 .00005736,0.,0.,0.00008114,0.,0.,-0.00097828,0.,0.,0.00008227,0.,0.,0.
 00000780,0.,0.,0.00000219,0.,0.,-0.00002506,0.,0.,-0.00001291,0.,0.,0.
 00000227,0.,0.,0.00007927,0.,0.,-0.00070939,0.,0.,0.00013844,0.,0.,0.0
 0006476,0.,0.,0.00000844,0.,0.,0.00000165,0.,0.,-0.00001083,0.,0.,-0.0
 0000100,0.,0.,-0.00000398,0.,0.,-0.00000092,0.,0.,0.00000026,0.,0.,0.0
 0006529,0.,0.,0.00000866,0.,0.,-0.00018048,0.,0.,-0.00178910,0.,0.,0.0
 0348755,0.,0.,0.00268344,0.,0.,-0.03746821,0.,0.,0.00450290,0.,0.,0.01
 074268,0.,0.,-0.00067707,0.,0.,0.00000233,0.,0.,-0.00001053,0.,0.,0.00
 000648,0.,0.,0.00027793,0.,0.,0.00000428,0.,0.,0.00000346,0.,0.,0.0000
 1282,0.,0.,0.00000423,0.,0.,0.00000111,0.,0.,0.00000121,0.,0.,0.000000
 83,0.,0.,0.00003717,0.,0.,0.00006998,0.,0.,0.00023800,0.,0.,0.02533094
 ,0.00000967,0.00001895,0.,-0.00002986,-0.00001936,0.,0.00000316,-0.000
 02245,0.,0.00000086,-0.00003012,0.,0.00004388,0.00041497,0.,0.00151658
 ,-0.00168352,0.,-0.00003185,0.00005297,0.,-0.00003842,0.00001058,0.,0.
 00001516,-0.00000873,0.,0.00002871,-0.00000263,0.,0.00003760,-0.000141
 54,0.,-0.00042615,-0.00000266,0.,0.00047809,-0.00140296,0.,0.00013829,
 -0.00008341,0.,0.00000603,0.00011490,0.,0.00001309,-0.00000867,0.,-0.0
 0002086,0.00000010,0.,-0.00000339,0.00001458,0.,0.00000260,-0.00000763
 ,0.,0.00000011,-0.00000636,0.,-0.00001027,0.00000106,0.,0.00000825,0.0
 0000505,0.,0.00018961,-0.00018221,0.,-0.00017766,-0.00002033,0.,-0.000
 28257,0.00028906,0.,0.00073194,0.00102054,0.,-0.00065055,0.00033593,0.
 ,-0.00470487,0.00156128,0.,0.00510555,0.02932925,0.,-0.05910183,-0.007
 07762,0.,0.00263797,-0.02779493,0.,-0.00495691,-0.00099238,0.,0.000000
 31,-0.00000167,0.,-0.00003612,0.00001972,0.,0.00000137,0.00000297,0.,-
 0.00059082,0.00089516,0.,-0.00000047,-0.00001658,0.,0.00000290,0.00000
 095,0.,-0.00000258,-0.00001852,0.,-0.00000215,0.00000176,0.,-0.0000008
 9,-0.00000034,0.,0.00000030,0.00000064,0.,-0.00000041,-0.00000040,0.,0
 .00000953,0.00000413,0.,-0.00000069,0.00013945,0.,-0.00003857,-0.00003
 054,0.,0.00079997,-0.00021288,0.,0.05932638,0.00002798,0.00001029,0.,-
 0.00001568,0.00005030,0.,0.00008167,-0.00010353,0.,-0.00007831,-0.0000
 7484,0.,-0.00042976,0.00012294,0.,0.00169884,0.00103319,0.,0.00004815,
 0.00002923,0.,-0.00005201,0.00000881,0.,0.00002169,-0.00000510,0.,-0.0
 0002890,-0.00002697,0.,0.00005889,-0.00010624,0.,-0.00026593,0.0000119
 8,0.,0.00065595,-0.00065974,0.,-0.00002728,0.00024268,0.,0.00003002,0.
 00010715,0.,-0.00002520,-0.00001540,0.,-0.00003119,0.00000953,0.,-0.00
 002545,-0.00000363,0.,0.00001202,-0.00002043,0.,-0.00001462,-0.0000165
 6,0.,-0.00002196,0.00001060,0.,0.00001487,0.00001607,0.,-0.00005240,-0
 .00001010,0.,0.00001077,0.00006286,0.,0.00033451,-0.00011359,0.,-0.000
 44120,-0.00068048,0.,-0.00008090,0.00047869,0.,0.00291330,0.00099343,0
 .,-0.00311816,-0.01260856,0.,-0.00613876,-0.33937934,0.,0.00234390,-0.
 01164934,0.,-0.00252828,0.00070886,0.,0.00000237,-0.00000327,0.,-0.000
 01433,0.00002552,0.,-0.00001160,0.00000090,0.,-0.00077756,0.00044319,0
 .,-0.00000454,-0.00001220,0.,-0.00000180,-0.00000768,0.,0.00000564,-0.
 00000464,0.,0.00000248,0.00000351,0.,-0.00000538,0.00000123,0.,-0.0000
 0387,-0.00000113,0.,0.00000101,-0.00000362,0.,0.00000558,-0.00002192,0
 .,-0.00000382,-0.00008187,0.,0.00003820,0.00001459,0.,0.00035662,0.000
 86629,0.,0.00553444,0.36035836,0.,0.,-0.00000081,0.,0.,0.00001121,0.,0
 .,0.00007353,0.,0.,-0.00001179,0.,0.,-0.00019289,0.,0.,-0.00180257,0.,
 0.,0.00006311,0.,0.,-0.00000747,0.,0.,-0.00000460,0.,0.,-0.00000994,0.
 ,0.,-0.00000161,0.,0.,0.00001420,0.,0.,0.00018750,0.,0.,-0.00005634,0.
 ,0.,0.00003760,0.,0.,-0.00000514,0.,0.,-0.00000183,0.,0.,-0.00000281,0
 .,0.,-0.00000134,0.,0.,-0.00000174,0.,0.,-0.00000075,0.,0.,-0.00000032
 ,0.,0.,-0.00076716,0.,0.,0.00013329,0.,0.,-0.00082081,0.,0.,0.00002390
 ,0.,0.,-0.00073159,0.,0.,0.01068529,0.,0.,0.00447465,0.,0.,-0.03712054
 ,0.,0.,0.00266347,0.,0.,0.00344894,0.,0.,0.00000053,0.,0.,0.00000840,0
 .,0.,-0.00000534,0.,0.,0.00025354,0.,0.,0.00000315,0.,0.,0.00000094,0.
 ,0.,0.00000662,0.,0.,0.00000245,0.,0.,0.00000111,0.,0.,0.00000099,0.,0
 .,0.00000067,0.,0.,0.00010207,0.,0.,-0.00002220,0.,0.,0.00024556,0.,0.
 ,-0.00600621,0.,0.,0.02513308\\-0.00000791,0.00000025,0.,-0.00001180,0
 .00000107,0.,0.00000193,-0.00000189,0.,-0.00000023,-0.00000238,0.,0.00
 000090,0.00000749,0.,-0.00000252,-0.00000285,0.,-0.00000073,-0.0000025
 2,0.,-0.00000047,0.00000207,0.,0.00000152,0.00000033,0.,0.00000083,0.0
 0000161,0.,-0.00000160,-0.00000412,0.,0.00000190,0.00000102,0.,-0.0000
 0274,-0.00000003,0.,-0.00000146,-0.00000355,0.,0.00000733,-0.00000587,
 0.,0.00000319,0.00000764,0.,0.00000499,-0.00000579,0.,0.00000782,0.000
 00310,0.,-0.00000301,-0.00000143,0.,0.00000115,0.00000362,0.,0.0000036
 2,-0.00000745,0.,-0.00000807,0.00000217,0.,0.00000189,0.00000397,0.,-0
 .00000043,-0.00000005,0.,-0.00000023,-0.00000061,0.,-0.00000213,0.0000
 0232,0.,-0.00000535,-0.00000022,0.,0.00000677,0.00000300,0.,-0.0000010
 2,-0.00000175,0.,-0.00000290,-0.00000040,0.,0.00000132,0.00000361,0.,0
 .00000420,-0.00000137,0.,0.00000132,0.,0.,-0.00000142,-0.00000031,0.,0
 .00000086,0.00000056,0.,-0.00000028,-0.00000009,0.,0.00000115,-0.00000
 123,0.,0.00000069,0.00000035,0.,0.00000021,-0.00000036,0.,-0.00000150,
 -0.00000123,0.,0.00000002,-0.00000151,0.,-0.00000024,-0.00000019,0.,0.
 00000204,-0.00000073,0.,0.00000123,0.00000033,0.,-0.00000012,0.0000010
 6,0.,-0.00000028,0.00000085,0.,-0.00000057,0.00000125,0.,0.00000008,0.
 00000026,0.\\\@


 IF IT'S NOT TRUE, IT'S WELL INVENTED -- DANTE
 Job cpu time:       4 days 17 hours 53 minutes 24.6 seconds.
 File lengths (MBytes):  RWF=   4428 Int=      0 D2E=      0 Chk=     85 Scr=      1
 Normal termination of Gaussian 09 at Sun Jul 28 01:16:12 2019.
