 Entering Gaussian System, Link 0=g09
 Initial command:
 /home/minenky/programs//g09/l1.exe "/local/scratch/minenky/m1_00_582-16-1-C12H12_wB97XD/Gau-127467.inp" -scrdir="/local/scratch/minenky/m1_00_582-16-1-C12H12_wB97XD/"
 Entering Link 1 = /home/minenky/programs//g09/l1.exe PID=    127468.
  
 Copyright (c) 1988,1990,1992,1993,1995,1998,2003,2009,2013,
            Gaussian, Inc.  All Rights Reserved.
  
 This is part of the Gaussian(R) 09 program.  It is based on
 the Gaussian(R) 03 system (copyright 2003, Gaussian, Inc.),
 the Gaussian(R) 98 system (copyright 1998, Gaussian, Inc.),
 the Gaussian(R) 94 system (copyright 1995, Gaussian, Inc.),
 the Gaussian 92(TM) system (copyright 1992, Gaussian, Inc.),
 the Gaussian 90(TM) system (copyright 1990, Gaussian, Inc.),
 the Gaussian 88(TM) system (copyright 1988, Gaussian, Inc.),
 the Gaussian 86(TM) system (copyright 1986, Carnegie Mellon
 University), and the Gaussian 82(TM) system (copyright 1983,
 Carnegie Mellon University). Gaussian is a federally registered
 trademark of Gaussian, Inc.
  
 This software contains proprietary and confidential information,
 including trade secrets, belonging to Gaussian, Inc.
  
 This software is provided under written license and may be
 used, copied, transmitted, or stored only in accord with that
 written license.
  
 The following legend is applicable only to US Government
 contracts under FAR:
  
                    RESTRICTED RIGHTS LEGEND
  
 Use, reproduction and disclosure by the US Government is
 subject to restrictions as set forth in subparagraphs (a)
 and (c) of the Commercial Computer Software - Restricted
 Rights clause in FAR 52.227-19.
  
 Gaussian, Inc.
 340 Quinnipiac St., Bldg. 40, Wallingford CT 06492
  
  
 ---------------------------------------------------------------
 Warning -- This program may not be used in any manner that
 competes with the business of Gaussian, Inc. or will provide
 assistance to any competitor of Gaussian, Inc.  The licensee
 of this program is prohibited from giving any competitor of
 Gaussian, Inc. access to this program.  By using this program,
 the user acknowledges that Gaussian, Inc. is engaged in the
 business of creating and licensing software in the field of
 computational chemistry and represents and warrants to the
 licensee that it is not a competitor of Gaussian, Inc. and that
 it will not use this program in any manner prohibited above.
 ---------------------------------------------------------------
  

 Cite this work as:
 Gaussian 09, Revision D.01,
 M. J. Frisch, G. W. Trucks, H. B. Schlegel, G. E. Scuseria, 
 M. A. Robb, J. R. Cheeseman, G. Scalmani, V. Barone, B. Mennucci, 
 G. A. Petersson, H. Nakatsuji, M. Caricato, X. Li, H. P. Hratchian, 
 A. F. Izmaylov, J. Bloino, G. Zheng, J. L. Sonnenberg, M. Hada, 
 M. Ehara, K. Toyota, R. Fukuda, J. Hasegawa, M. Ishida, T. Nakajima, 
 Y. Honda, O. Kitao, H. Nakai, T. Vreven, J. A. Montgomery, Jr., 
 J. E. Peralta, F. Ogliaro, M. Bearpark, J. J. Heyd, E. Brothers, 
 K. N. Kudin, V. N. Staroverov, T. Keith, R. Kobayashi, J. Normand, 
 K. Raghavachari, A. Rendell, J. C. Burant, S. S. Iyengar, J. Tomasi, 
 M. Cossi, N. Rega, J. M. Millam, M. Klene, J. E. Knox, J. B. Cross, 
 V. Bakken, C. Adamo, J. Jaramillo, R. Gomperts, R. E. Stratmann, 
 O. Yazyev, A. J. Austin, R. Cammi, C. Pomelli, J. W. Ochterski, 
 R. L. Martin, K. Morokuma, V. G. Zakrzewski, G. A. Voth, 
 P. Salvador, J. J. Dannenberg, S. Dapprich, A. D. Daniels, 
 O. Farkas, J. B. Foresman, J. V. Ortiz, J. Cioslowski, 
 and D. J. Fox, Gaussian, Inc., Wallingford CT, 2013.
 
 ******************************************
 Gaussian 09:  AM64L-G09RevD.01 24-Apr-2013
                 9-Jul-2021 
 ******************************************
 %Mem=32000MB
 %NProcShared=16
 Will use up to   16 processors via shared memory.
 %Chk=m1_00_582-16-1-C12H12_wB97XD
 ----------------------------------------------------------------------
 #P wB97XD/def2tzvp opt=(tight) freq integral(Grid=ultrafine) # SCF(Max
 Cycle=380) 5d 7f GFPrint
 ----------------------------------------------------------------------
 1/7=10,14=-1,18=20,19=15,26=4,38=1/1,3;
 2/9=110,12=2,17=6,18=5,40=1/2;
 3/5=44,7=101,8=11,11=2,16=1,24=100,25=1,30=1,71=1,74=-58,75=-5/1,2,3;
 4//1;
 5/5=2,7=380,38=5/2;
 6/7=2,8=2,9=2,10=2,28=1/1;
 7//1,2,3,16;
 1/7=10,14=-1,18=20,19=15,26=4/3(2);
 2/9=110/2;
 99//99;
 2/9=110/2;
 3/5=44,7=101,8=11,11=2,16=1,25=1,30=1,71=1,74=-58,75=-5/1,2,3;
 4/5=5,16=3,69=1/1;
 5/5=2,7=380,38=5/2;
 7//1,2,3,16;
 1/7=10,14=-1,18=20,19=15,26=4/3(-5);
 2/9=110/2;
 6/7=2,8=2,9=2,10=2,19=2,28=1/1;
 99/9=1/99;
 Leave Link    1 at Fri Jul  9 19:19:35 2021, MaxMem=  4194304000 cpu:         1.3
 (Enter /home/minenky/programs//g09/l101.exe)
 ---------------------------------------
 The PBEPBE optimization and frequencies
 ---------------------------------------
 Symbolic Z-matrix:
 Charge =  0 Multiplicity = 1
 C                     2.43696  -0.42305   0. 
 C                     3.75146  -1.152     0. 
 C                     1.23926  -1.09463   0. 
 C                     2.42068   0.99433   0. 
 C                     0.       -0.41106   0. 
 C                     1.24192   1.68938   0. 
 C                     0.        1.01252   0. 
 C                    -1.23926  -1.09463   0. 
 C                    -1.24192   1.68938   0. 
 C                    -2.43696  -0.42305   0. 
 C                    -2.42068   0.99433   0. 
 C                    -3.75146  -1.152     0. 
 H                     4.34614  -0.89026  -0.87893 
 H                     4.34614  -0.89026   0.87893 
 H                     3.60669  -2.23209   0. 
 H                     1.23036  -2.17893   0. 
 H                     3.3627    1.53006   0. 
 H                     1.24632   2.77292   0. 
 H                    -1.23036  -2.17893   0. 
 H                    -1.24632   2.77292   0. 
 H                    -3.3627    1.53006   0. 
 H                    -4.34614  -0.89026   0.87894 
 H                    -4.34615  -0.89025  -0.87893 
 H                    -3.60669  -2.23209  -0.00001 
 
 NAtoms=     24 NQM=       24 NQMF=       0 NMMI=      0 NMMIF=      0
                NMic=       0 NMicF=      0.
                    Isotopes and Nuclear Properties:
 (Nuclear quadrupole moments (NQMom) in fm**2, nuclear magnetic moments (NMagM)
  in nuclear magnetons)

  Atom         1           2           3           4           5           6           7           8           9          10
 IAtWgt=          12          12          12          12          12          12          12          12          12          12
 AtmWgt=  12.0000000  12.0000000  12.0000000  12.0000000  12.0000000  12.0000000  12.0000000  12.0000000  12.0000000  12.0000000
 NucSpn=           0           0           0           0           0           0           0           0           0           0
 AtZEff=   0.0000000   0.0000000   0.0000000   0.0000000   0.0000000   0.0000000   0.0000000   0.0000000   0.0000000   0.0000000
 NQMom=    0.0000000   0.0000000   0.0000000   0.0000000   0.0000000   0.0000000   0.0000000   0.0000000   0.0000000   0.0000000
 NMagM=    0.0000000   0.0000000   0.0000000   0.0000000   0.0000000   0.0000000   0.0000000   0.0000000   0.0000000   0.0000000
 AtZNuc=   6.0000000   6.0000000   6.0000000   6.0000000   6.0000000   6.0000000   6.0000000   6.0000000   6.0000000   6.0000000

  Atom        11          12          13          14          15          16          17          18          19          20
 IAtWgt=          12          12           1           1           1           1           1           1           1           1
 AtmWgt=  12.0000000  12.0000000   1.0078250   1.0078250   1.0078250   1.0078250   1.0078250   1.0078250   1.0078250   1.0078250
 NucSpn=           0           0           1           1           1           1           1           1           1           1
 AtZEff=   0.0000000   0.0000000   0.0000000   0.0000000   0.0000000   0.0000000   0.0000000   0.0000000   0.0000000   0.0000000
 NQMom=    0.0000000   0.0000000   0.0000000   0.0000000   0.0000000   0.0000000   0.0000000   0.0000000   0.0000000   0.0000000
 NMagM=    0.0000000   0.0000000   2.7928460   2.7928460   2.7928460   2.7928460   2.7928460   2.7928460   2.7928460   2.7928460
 AtZNuc=   6.0000000   6.0000000   1.0000000   1.0000000   1.0000000   1.0000000   1.0000000   1.0000000   1.0000000   1.0000000

  Atom        21          22          23          24
 IAtWgt=           1           1           1           1
 AtmWgt=   1.0078250   1.0078250   1.0078250   1.0078250
 NucSpn=           1           1           1           1
 AtZEff=   0.0000000   0.0000000   0.0000000   0.0000000
 NQMom=    0.0000000   0.0000000   0.0000000   0.0000000
 NMagM=    2.7928460   2.7928460   2.7928460   2.7928460
 AtZNuc=   1.0000000   1.0000000   1.0000000   1.0000000
 Leave Link  101 at Fri Jul  9 19:19:35 2021, MaxMem=  4194304000 cpu:         1.7
 (Enter /home/minenky/programs//g09/l103.exe)

 GradGradGradGradGradGradGradGradGradGradGradGradGradGradGradGradGradGrad
 Berny optimization.
 Initialization pass.
                           ----------------------------
                           !    Initial Parameters    !
                           ! (Angstroms and Degrees)  !
 --------------------------                            --------------------------
 ! Name  Definition              Value          Derivative Info.                !
 --------------------------------------------------------------------------------
 ! R1    R(1,2)                  1.5031         estimate D2E/DX2                !
 ! R2    R(1,3)                  1.3731         estimate D2E/DX2                !
 ! R3    R(1,4)                  1.4175         estimate D2E/DX2                !
 ! R4    R(2,13)                 1.093          estimate D2E/DX2                !
 ! R5    R(2,14)                 1.093          estimate D2E/DX2                !
 ! R6    R(2,15)                 1.0897         estimate D2E/DX2                !
 ! R7    R(3,5)                  1.4153         estimate D2E/DX2                !
 ! R8    R(3,16)                 1.0843         estimate D2E/DX2                !
 ! R9    R(4,6)                  1.3684         estimate D2E/DX2                !
 ! R10   R(4,17)                 1.0837         estimate D2E/DX2                !
 ! R11   R(5,7)                  1.4236         estimate D2E/DX2                !
 ! R12   R(5,8)                  1.4153         estimate D2E/DX2                !
 ! R13   R(6,7)                  1.4144         estimate D2E/DX2                !
 ! R14   R(6,18)                 1.0836         estimate D2E/DX2                !
 ! R15   R(7,9)                  1.4144         estimate D2E/DX2                !
 ! R16   R(8,10)                 1.3731         estimate D2E/DX2                !
 ! R17   R(8,19)                 1.0843         estimate D2E/DX2                !
 ! R18   R(9,11)                 1.3684         estimate D2E/DX2                !
 ! R19   R(9,20)                 1.0836         estimate D2E/DX2                !
 ! R20   R(10,11)                1.4175         estimate D2E/DX2                !
 ! R21   R(10,12)                1.5031         estimate D2E/DX2                !
 ! R22   R(11,21)                1.0837         estimate D2E/DX2                !
 ! R23   R(12,22)                1.093          estimate D2E/DX2                !
 ! R24   R(12,23)                1.093          estimate D2E/DX2                !
 ! R25   R(12,24)                1.0897         estimate D2E/DX2                !
 ! A1    A(2,1,3)              121.7088         estimate D2E/DX2                !
 ! A2    A(2,1,4)              119.6686         estimate D2E/DX2                !
 ! A3    A(3,1,4)              118.6227         estimate D2E/DX2                !
 ! A4    A(1,2,13)             111.0806         estimate D2E/DX2                !
 ! A5    A(1,2,14)             111.0805         estimate D2E/DX2                !
 ! A6    A(1,2,15)             111.3767         estimate D2E/DX2                !
 ! A7    A(13,2,14)            107.0536         estimate D2E/DX2                !
 ! A8    A(13,2,15)            108.0364         estimate D2E/DX2                !
 ! A9    A(14,2,15)            108.0364         estimate D2E/DX2                !
 ! A10   A(1,3,5)              121.8382         estimate D2E/DX2                !
 ! A11   A(1,3,16)             119.7514         estimate D2E/DX2                !
 ! A12   A(5,3,16)             118.4104         estimate D2E/DX2                !
 ! A13   A(1,4,6)              121.1835         estimate D2E/DX2                !
 ! A14   A(1,4,17)             118.969          estimate D2E/DX2                !
 ! A15   A(6,4,17)             119.8475         estimate D2E/DX2                !
 ! A16   A(3,5,7)              118.8811         estimate D2E/DX2                !
 ! A17   A(3,5,8)              122.2378         estimate D2E/DX2                !
 ! A18   A(7,5,8)              118.8811         estimate D2E/DX2                !
 ! A19   A(4,6,7)              120.8839         estimate D2E/DX2                !
 ! A20   A(4,6,18)             120.2927         estimate D2E/DX2                !
 ! A21   A(7,6,18)             118.8234         estimate D2E/DX2                !
 ! A22   A(5,7,6)              118.5906         estimate D2E/DX2                !
 ! A23   A(5,7,9)              118.5906         estimate D2E/DX2                !
 ! A24   A(6,7,9)              122.8187         estimate D2E/DX2                !
 ! A25   A(5,8,10)             121.8381         estimate D2E/DX2                !
 ! A26   A(5,8,19)             118.4105         estimate D2E/DX2                !
 ! A27   A(10,8,19)            119.7514         estimate D2E/DX2                !
 ! A28   A(7,9,11)             120.8839         estimate D2E/DX2                !
 ! A29   A(7,9,20)             118.8235         estimate D2E/DX2                !
 ! A30   A(11,9,20)            120.2925         estimate D2E/DX2                !
 ! A31   A(8,10,11)            118.6227         estimate D2E/DX2                !
 ! A32   A(8,10,12)            121.7087         estimate D2E/DX2                !
 ! A33   A(11,10,12)           119.6686         estimate D2E/DX2                !
 ! A34   A(9,11,10)            121.1835         estimate D2E/DX2                !
 ! A35   A(9,11,21)            119.8474         estimate D2E/DX2                !
 ! A36   A(10,11,21)           118.9691         estimate D2E/DX2                !
 ! A37   A(10,12,22)           111.0805         estimate D2E/DX2                !
 ! A38   A(10,12,23)           111.0806         estimate D2E/DX2                !
 ! A39   A(10,12,24)           111.3767         estimate D2E/DX2                !
 ! A40   A(22,12,23)           107.0537         estimate D2E/DX2                !
 ! A41   A(22,12,24)           108.0363         estimate D2E/DX2                !
 ! A42   A(23,12,24)           108.0364         estimate D2E/DX2                !
 ! D1    D(3,1,2,13)           120.4794         estimate D2E/DX2                !
 ! D2    D(3,1,2,14)          -120.4795         estimate D2E/DX2                !
 ! D3    D(3,1,2,15)            -0.0001         estimate D2E/DX2                !
 ! D4    D(4,1,2,13)           -59.5206         estimate D2E/DX2                !
 ! D5    D(4,1,2,14)            59.5205         estimate D2E/DX2                !
 ! D6    D(4,1,2,15)           179.9999         estimate D2E/DX2                !
 ! D7    D(2,1,3,5)            180.0            estimate D2E/DX2                !
 ! D8    D(2,1,3,16)             0.0            estimate D2E/DX2                !
 ! D9    D(4,1,3,5)              0.0            estimate D2E/DX2                !
 ! D10   D(4,1,3,16)           180.0            estimate D2E/DX2                !
 ! D11   D(2,1,4,6)            180.0            estimate D2E/DX2                !
 ! D12   D(2,1,4,17)             0.0            estimate D2E/DX2                !
 ! D13   D(3,1,4,6)              0.0            estimate D2E/DX2                !
 ! D14   D(3,1,4,17)           180.0            estimate D2E/DX2                !
 ! D15   D(1,3,5,7)              0.0            estimate D2E/DX2                !
 ! D16   D(1,3,5,8)            180.0            estimate D2E/DX2                !
 ! D17   D(16,3,5,7)           180.0            estimate D2E/DX2                !
 ! D18   D(16,3,5,8)             0.0            estimate D2E/DX2                !
 ! D19   D(1,4,6,7)              0.0            estimate D2E/DX2                !
 ! D20   D(1,4,6,18)           180.0            estimate D2E/DX2                !
 ! D21   D(17,4,6,7)           180.0            estimate D2E/DX2                !
 ! D22   D(17,4,6,18)            0.0            estimate D2E/DX2                !
 ! D23   D(3,5,7,6)              0.0            estimate D2E/DX2                !
 ! D24   D(3,5,7,9)            180.0            estimate D2E/DX2                !
 ! D25   D(8,5,7,6)            180.0            estimate D2E/DX2                !
 ! D26   D(8,5,7,9)              0.0            estimate D2E/DX2                !
 ! D27   D(3,5,8,10)           180.0            estimate D2E/DX2                !
 ! D28   D(3,5,8,19)             0.0            estimate D2E/DX2                !
 ! D29   D(7,5,8,10)             0.0            estimate D2E/DX2                !
 ! D30   D(7,5,8,19)           180.0            estimate D2E/DX2                !
 ! D31   D(4,6,7,5)              0.0            estimate D2E/DX2                !
 ! D32   D(4,6,7,9)            180.0            estimate D2E/DX2                !
 ! D33   D(18,6,7,5)           180.0            estimate D2E/DX2                !
 ! D34   D(18,6,7,9)             0.0            estimate D2E/DX2                !
 ! D35   D(5,7,9,11)             0.0            estimate D2E/DX2                !
 ! D36   D(5,7,9,20)           180.0            estimate D2E/DX2                !
 ! D37   D(6,7,9,11)           180.0            estimate D2E/DX2                !
 ! D38   D(6,7,9,20)             0.0            estimate D2E/DX2                !
 ! D39   D(5,8,10,11)            0.0            estimate D2E/DX2                !
 ! D40   D(5,8,10,12)          180.0            estimate D2E/DX2                !
 ! D41   D(19,8,10,11)         180.0            estimate D2E/DX2                !
 ! D42   D(19,8,10,12)           0.0            estimate D2E/DX2                !
 ! D43   D(7,9,11,10)            0.0            estimate D2E/DX2                !
 ! D44   D(7,9,11,21)          180.0            estimate D2E/DX2                !
 ! D45   D(20,9,11,10)         180.0            estimate D2E/DX2                !
 ! D46   D(20,9,11,21)           0.0            estimate D2E/DX2                !
 ! D47   D(8,10,11,9)            0.0            estimate D2E/DX2                !
 ! D48   D(8,10,11,21)         180.0            estimate D2E/DX2                !
 ! D49   D(12,10,11,9)         180.0            estimate D2E/DX2                !
 ! D50   D(12,10,11,21)          0.0            estimate D2E/DX2                !
 ! D51   D(8,10,12,22)         120.479          estimate D2E/DX2                !
 ! D52   D(8,10,12,23)        -120.4799         estimate D2E/DX2                !
 ! D53   D(8,10,12,24)          -0.0004         estimate D2E/DX2                !
 ! D54   D(11,10,12,22)        -59.521          estimate D2E/DX2                !
 ! D55   D(11,10,12,23)         59.5201         estimate D2E/DX2                !
 ! D56   D(11,10,12,24)        179.9996         estimate D2E/DX2                !
 --------------------------------------------------------------------------------
 Trust Radius=3.00D-01 FncErr=1.00D-07 GrdErr=1.00D-06
 Number of steps in this run=    133 maximum allowed number of steps=    144.
 GradGradGradGradGradGradGradGradGradGradGradGradGradGradGradGradGradGrad

 Leave Link  103 at Fri Jul  9 19:19:35 2021, MaxMem=  4194304000 cpu:         0.0
 (Enter /home/minenky/programs//g09/l202.exe)
                          Input orientation:                          
 ---------------------------------------------------------------------
 Center     Atomic      Atomic             Coordinates (Angstroms)
 Number     Number       Type             X           Y           Z
 ---------------------------------------------------------------------
      1          6           0        2.436960   -0.423047    0.000000
      2          6           0        3.751455   -1.151998    0.000000
      3          6           0        1.239263   -1.094634    0.000000
      4          6           0        2.420680    0.994328    0.000000
      5          6           0        0.000000   -0.411058    0.000000
      6          6           0        1.241920    1.689376    0.000000
      7          6           0        0.000000    1.012523    0.000000
      8          6           0       -1.239263   -1.094634    0.000000
      9          6           0       -1.241919    1.689376    0.000000
     10          6           0       -2.436960   -0.423046    0.000000
     11          6           0       -2.420680    0.994328    0.000000
     12          6           0       -3.751455   -1.151998    0.000000
     13          1           0        4.346143   -0.890257   -0.878934
     14          1           0        4.346144   -0.890255    0.878933
     15          1           0        3.606693   -2.232087    0.000001
     16          1           0        1.230356   -2.178931    0.000000
     17          1           0        3.362704    1.530061    0.000000
     18          1           0        1.246322    2.772921    0.000000
     19          1           0       -1.230357   -2.178931    0.000000
     20          1           0       -1.246323    2.772921    0.000000
     21          1           0       -3.362703    1.530062    0.000000
     22          1           0       -4.346139   -0.890262    0.878939
     23          1           0       -4.346147   -0.890251   -0.878929
     24          1           0       -3.606692   -2.232088   -0.000007
 ---------------------------------------------------------------------
                    Distance matrix (angstroms):
                    1          2          3          4          5
     1  C    0.000000
     2  C    1.503086   0.000000
     3  C    1.373138   2.512847   0.000000
     4  C    1.417468   2.525406   2.399898   0.000000
     5  C    2.436989   3.823926   1.415291   2.799072   0.000000
     6  C    2.427025   3.790933   2.784011   1.368418   2.440121
     7  C    2.828363   4.331116   2.444562   2.420748   1.423581
     8  C    3.737064   4.991048   2.478526   4.214136   1.415291
     9  C    4.242226   5.745188   3.729206   3.727965   2.440120
    10  C    4.873920   6.231200   3.737064   5.060199   2.436989
    11  C    5.060199   6.534674   4.214136   4.841360   2.799072
    12  C    6.231200   7.502910   4.991048   6.534674   3.823926
    13  H    2.153088   1.093017   3.235274   2.834007   4.459946
    14  H    2.153088   1.093018   3.235275   2.834006   4.459946
    15  H    2.154275   1.089747   2.626504   3.437496   4.040344
    16  H    2.130498   2.722229   1.084334   3.389166   2.153869
    17  H    2.161396   2.710086   3.376096   1.083706   3.882747
    18  H    3.410547   4.656252   3.867561   2.131316   3.419216
    19  H    4.065998   5.086555   2.697169   4.837318   2.153869
    20  H    4.876555   6.354744   4.597404   4.075574   3.419217
    21  H    6.119700   7.602940   5.297841   5.808143   3.882746
    22  H    6.855746   8.149360   5.657828   7.079128   4.459943
    23  H    6.855752   8.149367   5.657835   7.079131   4.459948
    24  H    6.308594   7.436997   4.977658   6.836591   4.040344
                    6          7          8          9         10
     6  C    0.000000
     7  C    1.414389   0.000000
     8  C    3.729206   2.444562   0.000000
     9  C    2.483839   1.414388   2.784011   0.000000
    10  C    4.242226   2.828362   1.373138   2.427025   0.000000
    11  C    3.727966   2.420748   2.399898   1.368419   1.417467
    12  C    5.745189   4.331116   2.512847   3.790934   1.503086
    13  H    4.130766   4.825148   5.657831   6.217191   6.855749
    14  H    4.130766   4.825148   5.657832   6.217191   6.855750
    15  H    4.579304   4.851364   4.977659   6.235937   6.308595
    16  H    3.868324   3.420403   2.697169   4.590854   4.065998
    17  H    2.126760   3.402297   5.297841   4.607378   6.119700
    18  H    1.083554   2.156924   4.597403   2.713929   4.876553
    19  H    4.590855   3.420403   1.084334   3.868324   2.130498
    20  H    2.713931   2.156924   3.867561   1.083554   3.410546
    21  H    4.607378   3.402296   3.376096   2.126759   2.161396
    22  H    6.217191   4.825148   3.235271   4.130768   2.153088
    23  H    6.217193   4.825149   3.235277   4.130765   2.153089
    24  H    6.235938   4.851363   2.626504   4.579305   2.154276
                   11         12         13         14         15
    11  C    0.000000
    12  C    2.525406   0.000000
    13  H    7.079130   8.149364   0.000000
    14  H    7.079130   8.149365   1.757867   0.000000
    15  H    6.836591   7.436998   1.766301   1.766302   0.000000
    16  H    4.837317   5.086554   3.484442   3.484443   2.376931
    17  H    5.808144   7.602940   2.756377   2.756376   3.770051
    18  H    4.075573   6.354743   4.878554   4.878553   5.533666
    19  H    3.389165   2.722228   5.790558   5.790559   4.837342
    20  H    2.131316   4.656251   6.742928   6.742927   6.971504
    21  H    1.083706   2.710087   8.127532   8.127532   7.919990
    22  H    2.834009   1.093018   8.868251   8.692283   8.112987
    23  H    2.834004   1.093017   8.692290   8.868258   8.112996
    24  H    3.437497   1.089748   8.112990   8.112993   7.213385
                   16         17         18         19         20
    16  H    0.000000
    17  H    4.278262   0.000000
    18  H    4.951878   2.454338   0.000000
    19  H    2.460713   5.903629   5.536676   0.000000
    20  H    5.536676   4.773660   2.492645   4.951878   0.000000
    21  H    5.903628   6.725407   4.773658   4.278262   2.454336
    22  H    5.790552   8.127531   6.742927   3.484437   4.878555
    23  H    5.790561   8.127534   6.742926   3.484445   4.878550
    24  H    4.837340   7.919990   6.971503   2.376929   5.533666
                   21         22         23         24
    21  H    0.000000
    22  H    2.756383   0.000000
    23  H    2.756373   1.757868   0.000000
    24  H    3.770053   1.766303   1.766302   0.000000
 Stoichiometry    C12H12
 Framework group  C1[X(C12H12)]
 Deg. of freedom    66
 Full point group                 C1      NOp   1
 Largest Abelian subgroup         C1      NOp   1
 Largest concise Abelian subgroup C1      NOp   1
                         Standard orientation:                         
 ---------------------------------------------------------------------
 Center     Atomic      Atomic             Coordinates (Angstroms)
 Number     Number       Type             X           Y           Z
 ---------------------------------------------------------------------
      1          6           0        2.436960   -0.423047    0.000000
      2          6           0        3.751455   -1.151998    0.000000
      3          6           0        1.239263   -1.094634    0.000000
      4          6           0        2.420680    0.994328    0.000000
      5          6           0        0.000000   -0.411058    0.000000
      6          6           0        1.241920    1.689376    0.000000
      7          6           0        0.000000    1.012523    0.000000
      8          6           0       -1.239263   -1.094634    0.000000
      9          6           0       -1.241919    1.689376    0.000000
     10          6           0       -2.436960   -0.423046    0.000000
     11          6           0       -2.420680    0.994328    0.000000
     12          6           0       -3.751455   -1.151998    0.000000
     13          1           0        4.346143   -0.890257   -0.878934
     14          1           0        4.346144   -0.890255    0.878933
     15          1           0        3.606693   -2.232087    0.000001
     16          1           0        1.230356   -2.178931    0.000000
     17          1           0        3.362704    1.530061    0.000000
     18          1           0        1.246322    2.772921    0.000000
     19          1           0       -1.230357   -2.178931    0.000000
     20          1           0       -1.246323    2.772921    0.000000
     21          1           0       -3.362703    1.530062    0.000000
     22          1           0       -4.346139   -0.890262    0.878939
     23          1           0       -4.346147   -0.890251   -0.878929
     24          1           0       -3.606692   -2.232088   -0.000007
 ---------------------------------------------------------------------
 Rotational constants (GHZ):      2.3235153      0.6094363      0.4856919
 Leave Link  202 at Fri Jul  9 19:19:35 2021, MaxMem=  4194304000 cpu:         0.1
 (Enter /home/minenky/programs//g09/l301.exe)
 Standard basis: def2TZVP (5D, 7F)
 ======================================================================================================
                                       Pseudopotential Parameters
 ======================================================================================================
  Center     Atomic      Valence      Angular      Power
  Number     Number     Electrons     Momentum     of R      Exponent        Coefficient   SO-Coeffient
 ======================================================================================================
    1          6
                                   No pseudopotential on this center.
    2          6
                                   No pseudopotential on this center.
    3          6
                                   No pseudopotential on this center.
    4          6
                                   No pseudopotential on this center.
    5          6
                                   No pseudopotential on this center.
    6          6
                                   No pseudopotential on this center.
    7          6
                                   No pseudopotential on this center.
    8          6
                                   No pseudopotential on this center.
    9          6
                                   No pseudopotential on this center.
   10          6
                                   No pseudopotential on this center.
   11          6
                                   No pseudopotential on this center.
   12          6
                                   No pseudopotential on this center.
   13          1
                                   No pseudopotential on this center.
   14          1
                                   No pseudopotential on this center.
   15          1
                                   No pseudopotential on this center.
   16          1
                                   No pseudopotential on this center.
   17          1
                                   No pseudopotential on this center.
   18          1
                                   No pseudopotential on this center.
   19          1
                                   No pseudopotential on this center.
   20          1
                                   No pseudopotential on this center.
   21          1
                                   No pseudopotential on this center.
   22          1
                                   No pseudopotential on this center.
   23          1
                                   No pseudopotential on this center.
   24          1
                                   No pseudopotential on this center.
 ======================================================================================================
 Ernie: Thresh=  0.10000D-02 Tol=  0.10000D-05 Strict=F.
 AO basis set (Overlap normalization):
 Atom C1       Shell     1 S   6     bf    1 -     1          4.605186844084         -0.799442921397         -0.000000067490
      0.1357534968D+05  0.6064550360D-03
      0.2035233368D+04  0.4697908888D-02
      0.4632256236D+03  0.2433247765D-01
      0.1312001960D+03  0.9739996831D-01
      0.4285301589D+02  0.3019558425D+00
      0.1558418577D+02  0.6623360914D+00
 Atom C1       Shell     2 S   2     bf    2 -     2          4.605186844084         -0.799442921397         -0.000000067490
      0.6206713851D+01  0.6559530854D+00
      0.2576489653D+01  0.3758563329D+00
 Atom C1       Shell     3 S   1     bf    3 -     3          4.605186844084         -0.799442921397         -0.000000067490
      0.5769633942D+00  0.1000000000D+01
 Atom C1       Shell     4 S   1     bf    4 -     4          4.605186844084         -0.799442921397         -0.000000067490
      0.2297283136D+00  0.1000000000D+01
 Atom C1       Shell     5 S   1     bf    5 -     5          4.605186844084         -0.799442921397         -0.000000067490
      0.9516444003D-01  0.1000000000D+01
 Atom C1       Shell     6 P   4     bf    6 -     8          4.605186844084         -0.799442921397         -0.000000067490
      0.3469723224D+02  0.1132722000D-01
      0.7958262283D+01  0.7616965920D-01
      0.2378082688D+01  0.3019225220D+00
      0.8143320818D+00  0.7278502735D+00
 Atom C1       Shell     7 P   1     bf    9 -    11          4.605186844084         -0.799442921397         -0.000000067490
      0.2888754725D+00  0.1000000000D+01
 Atom C1       Shell     8 P   1     bf   12 -    14          4.605186844084         -0.799442921397         -0.000000067490
      0.1005682367D+00  0.1000000000D+01
 Atom C1       Shell     9 D   1     bf   15 -    19          4.605186844084         -0.799442921397         -0.000000067490
      0.1097000000D+01  0.1000000000D+01
 Atom C1       Shell    10 D   1     bf   20 -    24          4.605186844084         -0.799442921397         -0.000000067490
      0.3180000000D+00  0.1000000000D+01
 Atom C1       Shell    11 F   1     bf   25 -    31          4.605186844084         -0.799442921397         -0.000000067490
      0.7610000000D+00  0.1000000000D+01
 Atom C2       Shell    12 S   6     bf   32 -    32          7.089222405341         -2.176960660887         -0.000000067490
      0.1357534968D+05  0.6064550360D-03
      0.2035233368D+04  0.4697908888D-02
      0.4632256236D+03  0.2433247765D-01
      0.1312001960D+03  0.9739996831D-01
      0.4285301589D+02  0.3019558425D+00
      0.1558418577D+02  0.6623360914D+00
 Atom C2       Shell    13 S   2     bf   33 -    33          7.089222405341         -2.176960660887         -0.000000067490
      0.6206713851D+01  0.6559530854D+00
      0.2576489653D+01  0.3758563329D+00
 Atom C2       Shell    14 S   1     bf   34 -    34          7.089222405341         -2.176960660887         -0.000000067490
      0.5769633942D+00  0.1000000000D+01
 Atom C2       Shell    15 S   1     bf   35 -    35          7.089222405341         -2.176960660887         -0.000000067490
      0.2297283136D+00  0.1000000000D+01
 Atom C2       Shell    16 S   1     bf   36 -    36          7.089222405341         -2.176960660887         -0.000000067490
      0.9516444003D-01  0.1000000000D+01
 Atom C2       Shell    17 P   4     bf   37 -    39          7.089222405341         -2.176960660887         -0.000000067490
      0.3469723224D+02  0.1132722000D-01
      0.7958262283D+01  0.7616965920D-01
      0.2378082688D+01  0.3019225220D+00
      0.8143320818D+00  0.7278502735D+00
 Atom C2       Shell    18 P   1     bf   40 -    42          7.089222405341         -2.176960660887         -0.000000067490
      0.2888754725D+00  0.1000000000D+01
 Atom C2       Shell    19 P   1     bf   43 -    45          7.089222405341         -2.176960660887         -0.000000067490
      0.1005682367D+00  0.1000000000D+01
 Atom C2       Shell    20 D   1     bf   46 -    50          7.089222405341         -2.176960660887         -0.000000067490
      0.1097000000D+01  0.1000000000D+01
 Atom C2       Shell    21 D   1     bf   51 -    55          7.089222405341         -2.176960660887         -0.000000067490
      0.3180000000D+00  0.1000000000D+01
 Atom C2       Shell    22 F   1     bf   56 -    62          7.089222405341         -2.176960660887         -0.000000067490
      0.7610000000D+00  0.1000000000D+01
 Atom C3       Shell    23 S   6     bf   63 -    63          2.341867531469         -2.068558439292         -0.000000067490
      0.1357534968D+05  0.6064550360D-03
      0.2035233368D+04  0.4697908888D-02
      0.4632256236D+03  0.2433247765D-01
      0.1312001960D+03  0.9739996831D-01
      0.4285301589D+02  0.3019558425D+00
      0.1558418577D+02  0.6623360914D+00
 Atom C3       Shell    24 S   2     bf   64 -    64          2.341867531469         -2.068558439292         -0.000000067490
      0.6206713851D+01  0.6559530854D+00
      0.2576489653D+01  0.3758563329D+00
 Atom C3       Shell    25 S   1     bf   65 -    65          2.341867531469         -2.068558439292         -0.000000067490
      0.5769633942D+00  0.1000000000D+01
 Atom C3       Shell    26 S   1     bf   66 -    66          2.341867531469         -2.068558439292         -0.000000067490
      0.2297283136D+00  0.1000000000D+01
 Atom C3       Shell    27 S   1     bf   67 -    67          2.341867531469         -2.068558439292         -0.000000067490
      0.9516444003D-01  0.1000000000D+01
 Atom C3       Shell    28 P   4     bf   68 -    70          2.341867531469         -2.068558439292         -0.000000067490
      0.3469723224D+02  0.1132722000D-01
      0.7958262283D+01  0.7616965920D-01
      0.2378082688D+01  0.3019225220D+00
      0.8143320818D+00  0.7278502735D+00
 Atom C3       Shell    29 P   1     bf   71 -    73          2.341867531469         -2.068558439292         -0.000000067490
      0.2888754725D+00  0.1000000000D+01
 Atom C3       Shell    30 P   1     bf   74 -    76          2.341867531469         -2.068558439292         -0.000000067490
      0.1005682367D+00  0.1000000000D+01
 Atom C3       Shell    31 D   1     bf   77 -    81          2.341867531469         -2.068558439292         -0.000000067490
      0.1097000000D+01  0.1000000000D+01
 Atom C3       Shell    32 D   1     bf   82 -    86          2.341867531469         -2.068558439292         -0.000000067490
      0.3180000000D+00  0.1000000000D+01
 Atom C3       Shell    33 F   1     bf   87 -    93          2.341867531469         -2.068558439292         -0.000000067490
      0.7610000000D+00  0.1000000000D+01
 Atom C4       Shell    34 S   6     bf   94 -    94          4.574422086678          1.879007656018         -0.000000067490
      0.1357534968D+05  0.6064550360D-03
      0.2035233368D+04  0.4697908888D-02
      0.4632256236D+03  0.2433247765D-01
      0.1312001960D+03  0.9739996831D-01
      0.4285301589D+02  0.3019558425D+00
      0.1558418577D+02  0.6623360914D+00
 Atom C4       Shell    35 S   2     bf   95 -    95          4.574422086678          1.879007656018         -0.000000067490
      0.6206713851D+01  0.6559530854D+00
      0.2576489653D+01  0.3758563329D+00
 Atom C4       Shell    36 S   1     bf   96 -    96          4.574422086678          1.879007656018         -0.000000067490
      0.5769633942D+00  0.1000000000D+01
 Atom C4       Shell    37 S   1     bf   97 -    97          4.574422086678          1.879007656018         -0.000000067490
      0.2297283136D+00  0.1000000000D+01
 Atom C4       Shell    38 S   1     bf   98 -    98          4.574422086678          1.879007656018         -0.000000067490
      0.9516444003D-01  0.1000000000D+01
 Atom C4       Shell    39 P   4     bf   99 -   101          4.574422086678          1.879007656018         -0.000000067490
      0.3469723224D+02  0.1132722000D-01
      0.7958262283D+01  0.7616965920D-01
      0.2378082688D+01  0.3019225220D+00
      0.8143320818D+00  0.7278502735D+00
 Atom C4       Shell    40 P   1     bf  102 -   104          4.574422086678          1.879007656018         -0.000000067490
      0.2888754725D+00  0.1000000000D+01
 Atom C4       Shell    41 P   1     bf  105 -   107          4.574422086678          1.879007656018         -0.000000067490
      0.1005682367D+00  0.1000000000D+01
 Atom C4       Shell    42 D   1     bf  108 -   112          4.574422086678          1.879007656018         -0.000000067490
      0.1097000000D+01  0.1000000000D+01
 Atom C4       Shell    43 D   1     bf  113 -   117          4.574422086678          1.879007656018         -0.000000067490
      0.3180000000D+00  0.1000000000D+01
 Atom C4       Shell    44 F   1     bf  118 -   124          4.574422086678          1.879007656018         -0.000000067490
      0.7610000000D+00  0.1000000000D+01
 Atom C5       Shell    45 S   6     bf  125 -   125         -0.000000152848         -0.776787022235         -0.000000067490
      0.1357534968D+05  0.6064550360D-03
      0.2035233368D+04  0.4697908888D-02
      0.4632256236D+03  0.2433247765D-01
      0.1312001960D+03  0.9739996831D-01
      0.4285301589D+02  0.3019558425D+00
      0.1558418577D+02  0.6623360914D+00
 Atom C5       Shell    46 S   2     bf  126 -   126         -0.000000152848         -0.776787022235         -0.000000067490
      0.6206713851D+01  0.6559530854D+00
      0.2576489653D+01  0.3758563329D+00
 Atom C5       Shell    47 S   1     bf  127 -   127         -0.000000152848         -0.776787022235         -0.000000067490
      0.5769633942D+00  0.1000000000D+01
 Atom C5       Shell    48 S   1     bf  128 -   128         -0.000000152848         -0.776787022235         -0.000000067490
      0.2297283136D+00  0.1000000000D+01
 Atom C5       Shell    49 S   1     bf  129 -   129         -0.000000152848         -0.776787022235         -0.000000067490
      0.9516444003D-01  0.1000000000D+01
 Atom C5       Shell    50 P   4     bf  130 -   132         -0.000000152848         -0.776787022235         -0.000000067490
      0.3469723224D+02  0.1132722000D-01
      0.7958262283D+01  0.7616965920D-01
      0.2378082688D+01  0.3019225220D+00
      0.8143320818D+00  0.7278502735D+00
 Atom C5       Shell    51 P   1     bf  133 -   135         -0.000000152848         -0.776787022235         -0.000000067490
      0.2888754725D+00  0.1000000000D+01
 Atom C5       Shell    52 P   1     bf  136 -   138         -0.000000152848         -0.776787022235         -0.000000067490
      0.1005682367D+00  0.1000000000D+01
 Atom C5       Shell    53 D   1     bf  139 -   143         -0.000000152848         -0.776787022235         -0.000000067490
      0.1097000000D+01  0.1000000000D+01
 Atom C5       Shell    54 D   1     bf  144 -   148         -0.000000152848         -0.776787022235         -0.000000067490
      0.3180000000D+00  0.1000000000D+01
 Atom C5       Shell    55 F   1     bf  149 -   155         -0.000000152848         -0.776787022235         -0.000000067490
      0.7610000000D+00  0.1000000000D+01
 Atom C6       Shell    56 S   6     bf  156 -   156          2.346888502451          3.192458011953         -0.000000067490
      0.1357534968D+05  0.6064550360D-03
      0.2035233368D+04  0.4697908888D-02
      0.4632256236D+03  0.2433247765D-01
      0.1312001960D+03  0.9739996831D-01
      0.4285301589D+02  0.3019558425D+00
      0.1558418577D+02  0.6623360914D+00
 Atom C6       Shell    57 S   2     bf  157 -   157          2.346888502451          3.192458011953         -0.000000067490
      0.6206713851D+01  0.6559530854D+00
      0.2576489653D+01  0.3758563329D+00
 Atom C6       Shell    58 S   1     bf  158 -   158          2.346888502451          3.192458011953         -0.000000067490
      0.5769633942D+00  0.1000000000D+01
 Atom C6       Shell    59 S   1     bf  159 -   159          2.346888502451          3.192458011953         -0.000000067490
      0.2297283136D+00  0.1000000000D+01
 Atom C6       Shell    60 S   1     bf  160 -   160          2.346888502451          3.192458011953         -0.000000067490
      0.9516444003D-01  0.1000000000D+01
 Atom C6       Shell    61 P   4     bf  161 -   163          2.346888502451          3.192458011953         -0.000000067490
      0.3469723224D+02  0.1132722000D-01
      0.7958262283D+01  0.7616965920D-01
      0.2378082688D+01  0.3019225220D+00
      0.8143320818D+00  0.7278502735D+00
 Atom C6       Shell    62 P   1     bf  164 -   166          2.346888502451          3.192458011953         -0.000000067490
      0.2888754725D+00  0.1000000000D+01
 Atom C6       Shell    63 P   1     bf  167 -   169          2.346888502451          3.192458011953         -0.000000067490
      0.1005682367D+00  0.1000000000D+01
 Atom C6       Shell    64 D   1     bf  170 -   174          2.346888502451          3.192458011953         -0.000000067490
      0.1097000000D+01  0.1000000000D+01
 Atom C6       Shell    65 D   1     bf  175 -   179          2.346888502451          3.192458011953         -0.000000067490
      0.3180000000D+00  0.1000000000D+01
 Atom C6       Shell    66 F   1     bf  180 -   186          2.346888502451          3.192458011953         -0.000000067490
      0.7610000000D+00  0.1000000000D+01
 Atom C7       Shell    67 S   6     bf  187 -   187         -0.000000168880          1.913391195745         -0.000000067490
      0.1357534968D+05  0.6064550360D-03
      0.2035233368D+04  0.4697908888D-02
      0.4632256236D+03  0.2433247765D-01
      0.1312001960D+03  0.9739996831D-01
      0.4285301589D+02  0.3019558425D+00
      0.1558418577D+02  0.6623360914D+00
 Atom C7       Shell    68 S   2     bf  188 -   188         -0.000000168880          1.913391195745         -0.000000067490
      0.6206713851D+01  0.6559530854D+00
      0.2576489653D+01  0.3758563329D+00
 Atom C7       Shell    69 S   1     bf  189 -   189         -0.000000168880          1.913391195745         -0.000000067490
      0.5769633942D+00  0.1000000000D+01
 Atom C7       Shell    70 S   1     bf  190 -   190         -0.000000168880          1.913391195745         -0.000000067490
      0.2297283136D+00  0.1000000000D+01
 Atom C7       Shell    71 S   1     bf  191 -   191         -0.000000168880          1.913391195745         -0.000000067490
      0.9516444003D-01  0.1000000000D+01
 Atom C7       Shell    72 P   4     bf  192 -   194         -0.000000168880          1.913391195745         -0.000000067490
      0.3469723224D+02  0.1132722000D-01
      0.7958262283D+01  0.7616965920D-01
      0.2378082688D+01  0.3019225220D+00
      0.8143320818D+00  0.7278502735D+00
 Atom C7       Shell    73 P   1     bf  195 -   197         -0.000000168880          1.913391195745         -0.000000067490
      0.2888754725D+00  0.1000000000D+01
 Atom C7       Shell    74 P   1     bf  198 -   200         -0.000000168880          1.913391195745         -0.000000067490
      0.1005682367D+00  0.1000000000D+01
 Atom C7       Shell    75 D   1     bf  201 -   205         -0.000000168880          1.913391195745         -0.000000067490
      0.1097000000D+01  0.1000000000D+01
 Atom C7       Shell    76 D   1     bf  206 -   210         -0.000000168880          1.913391195745         -0.000000067490
      0.3180000000D+00  0.1000000000D+01
 Atom C7       Shell    77 F   1     bf  211 -   217         -0.000000168880          1.913391195745         -0.000000067490
      0.7610000000D+00  0.1000000000D+01
 Atom C8       Shell    78 S   6     bf  218 -   218         -2.341867821768         -2.068558467205         -0.000000067490
      0.1357534968D+05  0.6064550360D-03
      0.2035233368D+04  0.4697908888D-02
      0.4632256236D+03  0.2433247765D-01
      0.1312001960D+03  0.9739996831D-01
      0.4285301589D+02  0.3019558425D+00
      0.1558418577D+02  0.6623360914D+00
 Atom C8       Shell    79 S   2     bf  219 -   219         -2.341867821768         -2.068558467205         -0.000000067490
      0.6206713851D+01  0.6559530854D+00
      0.2576489653D+01  0.3758563329D+00
 Atom C8       Shell    80 S   1     bf  220 -   220         -2.341867821768         -2.068558467205         -0.000000067490
      0.5769633942D+00  0.1000000000D+01
 Atom C8       Shell    81 S   1     bf  221 -   221         -2.341867821768         -2.068558467205         -0.000000067490
      0.2297283136D+00  0.1000000000D+01
 Atom C8       Shell    82 S   1     bf  222 -   222         -2.341867821768         -2.068558467205         -0.000000067490
      0.9516444003D-01  0.1000000000D+01
 Atom C8       Shell    83 P   4     bf  223 -   225         -2.341867821768         -2.068558467205         -0.000000067490
      0.3469723224D+02  0.1132722000D-01
      0.7958262283D+01  0.7616965920D-01
      0.2378082688D+01  0.3019225220D+00
      0.8143320818D+00  0.7278502735D+00
 Atom C8       Shell    84 P   1     bf  226 -   228         -2.341867821768         -2.068558467205         -0.000000067490
      0.2888754725D+00  0.1000000000D+01
 Atom C8       Shell    85 P   1     bf  229 -   231         -2.341867821768         -2.068558467205         -0.000000067490
      0.1005682367D+00  0.1000000000D+01
 Atom C8       Shell    86 D   1     bf  232 -   236         -2.341867821768         -2.068558467205         -0.000000067490
      0.1097000000D+01  0.1000000000D+01
 Atom C8       Shell    87 D   1     bf  237 -   241         -2.341867821768         -2.068558467205         -0.000000067490
      0.3180000000D+00  0.1000000000D+01
 Atom C8       Shell    88 F   1     bf  242 -   248         -2.341867821768         -2.068558467205         -0.000000067490
      0.7610000000D+00  0.1000000000D+01
 Atom C9       Shell    89 S   6     bf  249 -   249         -2.346886965730          3.192457983980         -0.000000067490
      0.1357534968D+05  0.6064550360D-03
      0.2035233368D+04  0.4697908888D-02
      0.4632256236D+03  0.2433247765D-01
      0.1312001960D+03  0.9739996831D-01
      0.4285301589D+02  0.3019558425D+00
      0.1558418577D+02  0.6623360914D+00
 Atom C9       Shell    90 S   2     bf  250 -   250         -2.346886965730          3.192457983980         -0.000000067490
      0.6206713851D+01  0.6559530854D+00
      0.2576489653D+01  0.3758563329D+00
 Atom C9       Shell    91 S   1     bf  251 -   251         -2.346886965730          3.192457983980         -0.000000067490
      0.5769633942D+00  0.1000000000D+01
 Atom C9       Shell    92 S   1     bf  252 -   252         -2.346886965730          3.192457983980         -0.000000067490
      0.2297283136D+00  0.1000000000D+01
 Atom C9       Shell    93 S   1     bf  253 -   253         -2.346886965730          3.192457983980         -0.000000067490
      0.9516444003D-01  0.1000000000D+01
 Atom C9       Shell    94 P   4     bf  254 -   256         -2.346886965730          3.192457983980         -0.000000067490
      0.3469723224D+02  0.1132722000D-01
      0.7958262283D+01  0.7616965920D-01
      0.2378082688D+01  0.3019225220D+00
      0.8143320818D+00  0.7278502735D+00
 Atom C9       Shell    95 P   1     bf  257 -   259         -2.346886965730          3.192457983980         -0.000000067490
      0.2888754725D+00  0.1000000000D+01
 Atom C9       Shell    96 P   1     bf  260 -   262         -2.346886965730          3.192457983980         -0.000000067490
      0.1005682367D+00  0.1000000000D+01
 Atom C9       Shell    97 D   1     bf  263 -   267         -2.346886965730          3.192457983980         -0.000000067490
      0.1097000000D+01  0.1000000000D+01
 Atom C9       Shell    98 D   1     bf  268 -   272         -2.346886965730          3.192457983980         -0.000000067490
      0.3180000000D+00  0.1000000000D+01
 Atom C9       Shell    99 F   1     bf  273 -   279         -2.346886965730          3.192457983980         -0.000000067490
      0.7610000000D+00  0.1000000000D+01
 Atom C10      Shell   100 S   6     bf  280 -   280         -4.605187149510         -0.799441086561         -0.000000067490
      0.1357534968D+05  0.6064550360D-03
      0.2035233368D+04  0.4697908888D-02
      0.4632256236D+03  0.2433247765D-01
      0.1312001960D+03  0.9739996831D-01
      0.4285301589D+02  0.3019558425D+00
      0.1558418577D+02  0.6623360914D+00
 Atom C10      Shell   101 S   2     bf  281 -   281         -4.605187149510         -0.799441086561         -0.000000067490
      0.6206713851D+01  0.6559530854D+00
      0.2576489653D+01  0.3758563329D+00
 Atom C10      Shell   102 S   1     bf  282 -   282         -4.605187149510         -0.799441086561         -0.000000067490
      0.5769633942D+00  0.1000000000D+01
 Atom C10      Shell   103 S   1     bf  283 -   283         -4.605187149510         -0.799441086561         -0.000000067490
      0.2297283136D+00  0.1000000000D+01
 Atom C10      Shell   104 S   1     bf  284 -   284         -4.605187149510         -0.799441086561         -0.000000067490
      0.9516444003D-01  0.1000000000D+01
 Atom C10      Shell   105 P   4     bf  285 -   287         -4.605187149510         -0.799441086561         -0.000000067490
      0.3469723224D+02  0.1132722000D-01
      0.7958262283D+01  0.7616965920D-01
      0.2378082688D+01  0.3019225220D+00
      0.8143320818D+00  0.7278502735D+00
 Atom C10      Shell   106 P   1     bf  288 -   290         -4.605187149510         -0.799441086561         -0.000000067490
      0.2888754725D+00  0.1000000000D+01
 Atom C10      Shell   107 P   1     bf  291 -   293         -4.605187149510         -0.799441086561         -0.000000067490
      0.1005682367D+00  0.1000000000D+01
 Atom C10      Shell   108 D   1     bf  294 -   298         -4.605187149510         -0.799441086561         -0.000000067490
      0.1097000000D+01  0.1000000000D+01
 Atom C10      Shell   109 D   1     bf  299 -   303         -4.605187149510         -0.799441086561         -0.000000067490
      0.3180000000D+00  0.1000000000D+01
 Atom C10      Shell   110 F   1     bf  304 -   310         -4.605187149510         -0.799441086561         -0.000000067490
      0.7610000000D+00  0.1000000000D+01
 Atom C11      Shell   111 S   6     bf  311 -   311         -4.574422424029          1.879007601495         -0.000000067490
      0.1357534968D+05  0.6064550360D-03
      0.2035233368D+04  0.4697908888D-02
      0.4632256236D+03  0.2433247765D-01
      0.1312001960D+03  0.9739996831D-01
      0.4285301589D+02  0.3019558425D+00
      0.1558418577D+02  0.6623360914D+00
 Atom C11      Shell   112 S   2     bf  312 -   312         -4.574422424029          1.879007601495         -0.000000067490
      0.6206713851D+01  0.6559530854D+00
      0.2576489653D+01  0.3758563329D+00
 Atom C11      Shell   113 S   1     bf  313 -   313         -4.574422424029          1.879007601495         -0.000000067490
      0.5769633942D+00  0.1000000000D+01
 Atom C11      Shell   114 S   1     bf  314 -   314         -4.574422424029          1.879007601495         -0.000000067490
      0.2297283136D+00  0.1000000000D+01
 Atom C11      Shell   115 S   1     bf  315 -   315         -4.574422424029          1.879007601495         -0.000000067490
      0.9516444003D-01  0.1000000000D+01
 Atom C11      Shell   116 P   4     bf  316 -   318         -4.574422424029          1.879007601495         -0.000000067490
      0.3469723224D+02  0.1132722000D-01
      0.7958262283D+01  0.7616965920D-01
      0.2378082688D+01  0.3019225220D+00
      0.8143320818D+00  0.7278502735D+00
 Atom C11      Shell   117 P   1     bf  319 -   321         -4.574422424029          1.879007601495         -0.000000067490
      0.2888754725D+00  0.1000000000D+01
 Atom C11      Shell   118 P   1     bf  322 -   324         -4.574422424029          1.879007601495         -0.000000067490
      0.1005682367D+00  0.1000000000D+01
 Atom C11      Shell   119 D   1     bf  325 -   329         -4.574422424029          1.879007601495         -0.000000067490
      0.1097000000D+01  0.1000000000D+01
 Atom C11      Shell   120 D   1     bf  330 -   334         -4.574422424029          1.879007601495         -0.000000067490
      0.3180000000D+00  0.1000000000D+01
 Atom C11      Shell   121 F   1     bf  335 -   341         -4.574422424029          1.879007601495         -0.000000067490
      0.7610000000D+00  0.1000000000D+01
 Atom C12      Shell   122 S   6     bf  342 -   342         -7.089222694348         -2.176960745384         -0.000000067490
      0.1357534968D+05  0.6064550360D-03
      0.2035233368D+04  0.4697908888D-02
      0.4632256236D+03  0.2433247765D-01
      0.1312001960D+03  0.9739996831D-01
      0.4285301589D+02  0.3019558425D+00
      0.1558418577D+02  0.6623360914D+00
 Atom C12      Shell   123 S   2     bf  343 -   343         -7.089222694348         -2.176960745384         -0.000000067490
      0.6206713851D+01  0.6559530854D+00
      0.2576489653D+01  0.3758563329D+00
 Atom C12      Shell   124 S   1     bf  344 -   344         -7.089222694348         -2.176960745384         -0.000000067490
      0.5769633942D+00  0.1000000000D+01
 Atom C12      Shell   125 S   1     bf  345 -   345         -7.089222694348         -2.176960745384         -0.000000067490
      0.2297283136D+00  0.1000000000D+01
 Atom C12      Shell   126 S   1     bf  346 -   346         -7.089222694348         -2.176960745384         -0.000000067490
      0.9516444003D-01  0.1000000000D+01
 Atom C12      Shell   127 P   4     bf  347 -   349         -7.089222694348         -2.176960745384         -0.000000067490
      0.3469723224D+02  0.1132722000D-01
      0.7958262283D+01  0.7616965920D-01
      0.2378082688D+01  0.3019225220D+00
      0.8143320818D+00  0.7278502735D+00
 Atom C12      Shell   128 P   1     bf  350 -   352         -7.089222694348         -2.176960745384         -0.000000067490
      0.2888754725D+00  0.1000000000D+01
 Atom C12      Shell   129 P   1     bf  353 -   355         -7.089222694348         -2.176960745384         -0.000000067490
      0.1005682367D+00  0.1000000000D+01
 Atom C12      Shell   130 D   1     bf  356 -   360         -7.089222694348         -2.176960745384         -0.000000067490
      0.1097000000D+01  0.1000000000D+01
 Atom C12      Shell   131 D   1     bf  361 -   365         -7.089222694348         -2.176960745384         -0.000000067490
      0.3180000000D+00  0.1000000000D+01
 Atom C12      Shell   132 F   1     bf  366 -   372         -7.089222694348         -2.176960745384         -0.000000067490
      0.7610000000D+00  0.1000000000D+01
 Atom H13      Shell   133 S   3     bf  373 -   373          8.213019856907         -1.682341846442         -1.660944616372
      0.3406134100D+02  0.2543930721D-01
      0.5123574600D+01  0.1900859489D+00
      0.1164662600D+01  0.8524411301D+00
 Atom H13      Shell   134 S   1     bf  374 -   374          8.213019856907         -1.682341846442         -1.660944616372
      0.3272304100D+00  0.1000000000D+01
 Atom H13      Shell   135 S   1     bf  375 -   375          8.213019856907         -1.682341846442         -1.660944616372
      0.1030724100D+00  0.1000000000D+01
 Atom H13      Shell   136 P   1     bf  376 -   378          8.213019856907         -1.682341846442         -1.660944616372
      0.8000000000D+00  0.1000000000D+01
 Atom H14      Shell   137 S   3     bf  379 -   379          8.213021746633         -1.682338066990          1.660942591665
      0.3406134100D+02  0.2543930721D-01
      0.5123574600D+01  0.1900859489D+00
      0.1164662600D+01  0.8524411301D+00
 Atom H14      Shell   138 S   1     bf  380 -   380          8.213021746633         -1.682338066990          1.660942591665
      0.3272304100D+00  0.1000000000D+01
 Atom H14      Shell   139 S   1     bf  381 -   381          8.213021746633         -1.682338066990          1.660942591665
      0.1030724100D+00  0.1000000000D+01
 Atom H14      Shell   140 P   1     bf  382 -   384          8.213021746633         -1.682338066990          1.660942591665
      0.8000000000D+00  0.1000000000D+01
 Atom H15      Shell   141 S   3     bf  385 -   385          6.815661883056         -4.218033071659          0.000001822236
      0.3406134100D+02  0.2543930721D-01
      0.5123574600D+01  0.1900859489D+00
      0.1164662600D+01  0.8524411301D+00
 Atom H15      Shell   142 S   1     bf  386 -   386          6.815661883056         -4.218033071659          0.000001822236
      0.3272304100D+00  0.1000000000D+01
 Atom H15      Shell   143 S   1     bf  387 -   387          6.815661883056         -4.218033071659          0.000001822236
      0.1030724100D+00  0.1000000000D+01
 Atom H15      Shell   144 P   1     bf  388 -   390          6.815661883056         -4.218033071659          0.000001822236
      0.8000000000D+00  0.1000000000D+01
 Atom H16      Shell   145 S   3     bf  391 -   391          2.325035753014         -4.117582816102         -0.000000067490
      0.3406134100D+02  0.2543930721D-01
      0.5123574600D+01  0.1900859489D+00
      0.1164662600D+01  0.8524411301D+00
 Atom H16      Shell   146 S   1     bf  392 -   392          2.325035753014         -4.117582816102         -0.000000067490
      0.3272304100D+00  0.1000000000D+01
 Atom H16      Shell   147 S   1     bf  393 -   393          2.325035753014         -4.117582816102         -0.000000067490
      0.1030724100D+00  0.1000000000D+01
 Atom H16      Shell   148 P   1     bf  394 -   396          2.325035753014         -4.117582816102         -0.000000067490
      0.8000000000D+00  0.1000000000D+01
 Atom H17      Shell   149 S   3     bf  397 -   397          6.354589451251          2.891396316976         -0.000000067490
      0.3406134100D+02  0.2543930721D-01
      0.5123574600D+01  0.1900859489D+00
      0.1164662600D+01  0.8524411301D+00
 Atom H17      Shell   150 S   1     bf  398 -   398          6.354589451251          2.891396316976         -0.000000067490
      0.3272304100D+00  0.1000000000D+01
 Atom H17      Shell   151 S   1     bf  399 -   399          6.354589451251          2.891396316976         -0.000000067490
      0.1030724100D+00  0.1000000000D+01
 Atom H17      Shell   152 P   1     bf  400 -   402          6.354589451251          2.891396316976         -0.000000067490
      0.8000000000D+00  0.1000000000D+01
 Atom H18      Shell   153 S   3     bf  403 -   403          2.355207064685          5.240061314660         -0.000000067490
      0.3406134100D+02  0.2543930721D-01
      0.5123574600D+01  0.1900859489D+00
      0.1164662600D+01  0.8524411301D+00
 Atom H18      Shell   154 S   1     bf  404 -   404          2.355207064685          5.240061314660         -0.000000067490
      0.3272304100D+00  0.1000000000D+01
 Atom H18      Shell   155 S   1     bf  405 -   405          2.355207064685          5.240061314660         -0.000000067490
      0.1030724100D+00  0.1000000000D+01
 Atom H18      Shell   156 P   1     bf  406 -   408          2.355207064685          5.240061314660         -0.000000067490
      0.8000000000D+00  0.1000000000D+01
 Atom H19      Shell   157 S   3     bf  409 -   409         -2.325037908617         -4.117582843814         -0.000000067490
      0.3406134100D+02  0.2543930721D-01
      0.5123574600D+01  0.1900859489D+00
      0.1164662600D+01  0.8524411301D+00
 Atom H19      Shell   158 S   1     bf  410 -   410         -2.325037908617         -4.117582843814         -0.000000067490
      0.3272304100D+00  0.1000000000D+01
 Atom H19      Shell   159 S   1     bf  411 -   411         -2.325037908617         -4.117582843814         -0.000000067490
      0.1030724100D+00  0.1000000000D+01
 Atom H19      Shell   160 P   1     bf  412 -   414         -2.325037908617         -4.117582843814         -0.000000067490
      0.8000000000D+00  0.1000000000D+01
 Atom H20      Shell   161 S   3     bf  415 -   415         -2.355209331822          5.240061286588         -0.000000067490
      0.3406134100D+02  0.2543930721D-01
      0.5123574600D+01  0.1900859489D+00
      0.1164662600D+01  0.8524411301D+00
 Atom H20      Shell   162 S   1     bf  416 -   416         -2.355209331822          5.240061286588         -0.000000067490
      0.3272304100D+00  0.1000000000D+01
 Atom H20      Shell   163 S   1     bf  417 -   417         -2.355209331822          5.240061286588         -0.000000067490
      0.1030724100D+00  0.1000000000D+01
 Atom H20      Shell   164 P   1     bf  418 -   420         -2.355209331822          5.240061286588         -0.000000067490
      0.8000000000D+00  0.1000000000D+01
 Atom H21      Shell   165 S   3     bf  421 -   421         -6.354587910942          2.891398130962         -0.000000067490
      0.3406134100D+02  0.2543930721D-01
      0.5123574600D+01  0.1900859489D+00
      0.1164662600D+01  0.8524411301D+00
 Atom H21      Shell   166 S   1     bf  422 -   422         -6.354587910942          2.891398130962         -0.000000067490
      0.3272304100D+00  0.1000000000D+01
 Atom H21      Shell   167 S   1     bf  423 -   423         -6.354587910942          2.891398130962         -0.000000067490
      0.1030724100D+00  0.1000000000D+01
 Atom H21      Shell   168 P   1     bf  424 -   426         -6.354587910942          2.891398130962         -0.000000067490
      0.8000000000D+00  0.1000000000D+01
 Atom H22      Shell   169 S   3     bf  427 -   427         -8.213012592905         -1.682351392964          1.660953930022
      0.3406134100D+02  0.2543930721D-01
      0.5123574600D+01  0.1900859489D+00
      0.1164662600D+01  0.8524411301D+00
 Atom H22      Shell   170 S   1     bf  428 -   428         -8.213012592905         -1.682351392964          1.660953930022
      0.3272304100D+00  0.1000000000D+01
 Atom H22      Shell   171 S   1     bf  429 -   429         -8.213012592905         -1.682351392964          1.660953930022
      0.1030724100D+00  0.1000000000D+01
 Atom H22      Shell   172 P   1     bf  430 -   432         -8.213012592905         -1.682351392964          1.660953930022
      0.8000000000D+00  0.1000000000D+01
 Atom H23      Shell   173 S   3     bf  433 -   433         -8.213027710714         -1.682330605977         -1.660935167741
      0.3406134100D+02  0.2543930721D-01
      0.5123574600D+01  0.1900859489D+00
      0.1164662600D+01  0.8524411301D+00
 Atom H23      Shell   174 S   1     bf  434 -   434         -8.213027710714         -1.682330605977         -1.660935167741
      0.3272304100D+00  0.1000000000D+01
 Atom H23      Shell   175 S   1     bf  435 -   435         -8.213027710714         -1.682330605977         -1.660935167741
      0.1030724100D+00  0.1000000000D+01
 Atom H23      Shell   176 P   1     bf  436 -   438         -8.213027710714         -1.682330605977         -1.660935167741
      0.8000000000D+00  0.1000000000D+01
 Atom H24      Shell   177 S   3     bf  439 -   439         -6.815660258009         -4.218035042622         -0.000013295573
      0.3406134100D+02  0.2543930721D-01
      0.5123574600D+01  0.1900859489D+00
      0.1164662600D+01  0.8524411301D+00
 Atom H24      Shell   178 S   1     bf  440 -   440         -6.815660258009         -4.218035042622         -0.000013295573
      0.3272304100D+00  0.1000000000D+01
 Atom H24      Shell   179 S   1     bf  441 -   441         -6.815660258009         -4.218035042622         -0.000013295573
      0.1030724100D+00  0.1000000000D+01
 Atom H24      Shell   180 P   1     bf  442 -   444         -6.815660258009         -4.218035042622         -0.000013295573
      0.8000000000D+00  0.1000000000D+01
 There are   504 symmetry adapted cartesian basis functions of A   symmetry.
 There are   444 symmetry adapted basis functions of A   symmetry.
   444 basis functions,   708 primitive gaussians,   504 cartesian basis functions
    42 alpha electrons       42 beta electrons
       nuclear repulsion energy       630.5608514386 Hartrees.
 IExCor= 4639 DFT=T Ex+Corr=wB97XD ExCW=0 ScaHFX=  1.000000
 ScaDFX=  1.000000  1.000000  1.000000  1.000000 ScalE2=  1.000000  1.000000
 IRadAn=      5 IRanWt=     -1 IRanGd=            0 ICorTp=0 IEmpDi=121
  HFx wShort=  0.000000 wLong=  0.200000 cFull=  0.222036 cShort=  0.000000 cLong=  0.777964
  DFx wShort=  0.000000 wLong=  0.200000 cFull=  0.000000 cShort=  0.000000 cLong=  1.000000
 NAtoms=   24 NActive=   24 NUniq=   24 SFac= 1.00D+00 NAtFMM=   60 NAOKFM=F Big=F
 Integral buffers will be    131072 words long.
 Raffenetti 2 integral format.
 Two-electron integral symmetry is turned on.
 R6Disp:  Grimme-D2 Dispersion energy=       -0.0137650615 Hartrees.
 Nuclear repulsion after empirical dispersion term =      630.5470863771 Hartrees.
 Leave Link  301 at Fri Jul  9 19:19:36 2021, MaxMem=  4194304000 cpu:         1.1
 (Enter /home/minenky/programs//g09/l302.exe)
 NPDir=0 NMtPBC=     1 NCelOv=     1 NCel=       1 NClECP=     1 NCelD=      1
         NCelK=      1 NCelE2=     1 NClLst=     1 CellRange=     0.0.
 One-electron integrals computed using PRISM.
   1 Symmetry operations used in ECPInt.
 ECPInt:  NShTT=   16290 NPrTT=   49128 LenC2=   15303 LenP2D=   35323.
 LDataN:  DoStor=T MaxTD1= 6 Len=  172
 NBasis=   444 RedAO= T EigKep=  5.59D-06  NBF=   444
 NBsUse=   444 1.00D-06 EigRej= -1.00D+00 NBFU=   444
 Precomputing XC quadrature grid using
 IXCGrd= 4 IRadAn=           5 IRanWt=          -1 IRanGd=           0 AccXCQ= 0.00D+00.
 Generated NRdTot=       0 NPtTot=           0 NUsed=           0 NTot=          32
 NSgBfM=   501   501   501   501   501 MxSgAt=    24 MxSgA2=    24.
 Leave Link  302 at Fri Jul  9 19:19:37 2021, MaxMem=  4194304000 cpu:        11.4
 (Enter /home/minenky/programs//g09/l303.exe)
 DipDrv:  MaxL=1.
 Leave Link  303 at Fri Jul  9 19:19:37 2021, MaxMem=  4194304000 cpu:         0.8
 (Enter /home/minenky/programs//g09/l401.exe)
 ExpMin= 9.52D-02 ExpMax= 1.36D+04 ExpMxC= 4.63D+02 IAcc=3 IRadAn=         5 AccDes= 0.00D+00
 Harris functional with IExCor= 4639 and IRadAn=       5 diagonalized for initial guess.
 HarFok:  IExCor= 4639 AccDes= 0.00D+00 IRadAn=         5 IDoV= 1 UseB2=F ITyADJ=14
 ICtDFT=  3500011 ScaDFX=  1.000000  1.000000  1.000000  1.000000
 FoFCou: FMM=F IPFlag=           0 FMFlag=      100000 FMFlg1=           0
         NFxFlg=           0 DoJE=T BraDBF=F KetDBF=T FulRan=T
         wScrn=  0.000000 ICntrl=     500 IOpCl=  0 I1Cent=   200000004 NGrid=           0
         NMat0=    1 NMatS0=      1 NMatT0=    0 NMatD0=    1 NMtDS0=    0 NMtDT0=    0
 Petite list used in FoFCou.
 Harris En= -442.920635497502    
 JPrj=0 DoOrth=F DoCkMO=F.
 Leave Link  401 at Fri Jul  9 19:19:42 2021, MaxMem=  4194304000 cpu:        75.6
 (Enter /home/minenky/programs//g09/l502.exe)
 Closed shell SCF:
 Using DIIS extrapolation, IDIIS=  1040.
 Integral symmetry usage will be decided dynamically.
 IVT=      921634 IEndB=      921634 NGot=  4194304000 MDV=  4193782047
 LenX=  4193782047 LenY=  4193527527
 Requested convergence on RMS density matrix=1.00D-08 within 380 cycles.
 Requested convergence on MAX density matrix=1.00D-06.
 Requested convergence on             energy=1.00D-06.
 No special actions if energy rises.
 Fock matrices will be formed incrementally for  20 cycles.
 Integral accuracy reduced to 1.0D-05 until final iterations.

 Cycle   1  Pass 0  IDiag  1:
 FoFJK:  IHMeth= 1 ICntrl=       0 DoSepK=T KAlg= 0 I1Cent=   0 FoldK=F
 IRaf=         1 NMat=   1 IRICut=       1 DoRegI=T DoRafI=F ISym2E= 0.
 FoFCou: FMM=F IPFlag=           0 FMFlag=      100000 FMFlg1=           0
         NFxFlg=           0 DoJE=T BraDBF=F KetDBF=F FulRan=T
         wScrn=  0.000000 ICntrl=     500 IOpCl=  0 I1Cent=           0 NGrid=           0
         NMat0=    1 NMatS0=      1 NMatT0=    0 NMatD0=    1 NMtDS0=    0 NMtDT0=    0
 Symmetry not used in FoFCou.
 E= -464.402773096203    
 DIIS: error= 4.83D-02 at cycle   1 NSaved=   1.
 NSaved= 1 IEnMin= 1 EnMin= -464.402773096203     IErMin= 1 ErrMin= 4.83D-02
 ErrMax= 4.83D-02  0.00D+00 EMaxC= 1.00D-01 BMatC= 9.92D-01 BMatP= 9.92D-01
 IDIUse=3 WtCom= 5.17D-01 WtEn= 4.83D-01
 Coeff-Com:  0.100D+01
 Coeff-En:   0.100D+01
 Coeff:      0.100D+01
 Gap=     0.307 Goal=   None    Shift=    0.000
 GapD=    0.307 DampG=1.000 DampE=0.500 DampFc=0.5000 IDamp=-1.
 Damping current iteration by 5.00D-01
 RMSDP=1.82D-03 MaxDP=9.12D-02              OVMax= 4.66D-02

 Cycle   2  Pass 0  IDiag  1:
 RMSU=  8.40D-04    CP:  9.54D-01
 E= -464.466248202452     Delta-E=       -0.063475106248 Rises=F Damp=T
 DIIS: error= 2.36D-02 at cycle   2 NSaved=   2.
 NSaved= 2 IEnMin= 2 EnMin= -464.466248202452     IErMin= 2 ErrMin= 2.36D-02
 ErrMax= 2.36D-02  0.00D+00 EMaxC= 1.00D-01 BMatC= 2.23D-01 BMatP= 9.92D-01
 IDIUse=3 WtCom= 7.64D-01 WtEn= 2.36D-01
 Coeff-Com: -0.867D+00 0.187D+01
 Coeff-En:   0.000D+00 0.100D+01
 Coeff:     -0.662D+00 0.166D+01
 Gap=     0.311 Goal=   None    Shift=    0.000
 RMSDP=1.08D-03 MaxDP=5.01D-02 DE=-6.35D-02 OVMax= 2.35D-02

 Cycle   3  Pass 0  IDiag  1:
 RMSU=  6.71D-04    CP:  9.17D-01  1.94D+00
 E= -464.524179513511     Delta-E=       -0.057931311059 Rises=F Damp=F
 DIIS: error= 2.91D-03 at cycle   3 NSaved=   3.
 NSaved= 3 IEnMin= 3 EnMin= -464.524179513511     IErMin= 3 ErrMin= 2.91D-03
 ErrMax= 2.91D-03  0.00D+00 EMaxC= 1.00D-01 BMatC= 2.58D-03 BMatP= 2.23D-01
 IDIUse=3 WtCom= 9.71D-01 WtEn= 2.91D-02
 Coeff-Com: -0.278D+00 0.600D+00 0.679D+00
 Coeff-En:   0.000D+00 0.000D+00 0.100D+01
 Coeff:     -0.270D+00 0.582D+00 0.688D+00
 Gap=     0.310 Goal=   None    Shift=    0.000
 RMSDP=1.53D-04 MaxDP=4.33D-03 DE=-5.79D-02 OVMax= 7.60D-03

 Cycle   4  Pass 0  IDiag  1:
 RMSU=  1.39D-04    CP:  9.16D-01  1.99D+00  1.07D+00
 E= -464.526389340825     Delta-E=       -0.002209827314 Rises=F Damp=F
 DIIS: error= 3.74D-04 at cycle   4 NSaved=   4.
 NSaved= 4 IEnMin= 4 EnMin= -464.526389340825     IErMin= 4 ErrMin= 3.74D-04
 ErrMax= 3.74D-04  0.00D+00 EMaxC= 1.00D-01 BMatC= 2.72D-05 BMatP= 2.58D-03
 IDIUse=3 WtCom= 9.96D-01 WtEn= 3.74D-03
 Coeff-Com: -0.304D-02 0.694D-02 0.618D-01 0.934D+00
 Coeff-En:   0.000D+00 0.000D+00 0.000D+00 0.100D+01
 Coeff:     -0.302D-02 0.691D-02 0.616D-01 0.935D+00
 Gap=     0.311 Goal=   None    Shift=    0.000
 RMSDP=9.98D-05 MaxDP=3.70D-03 DE=-2.21D-03 OVMax= 2.38D-03

 Cycle   5  Pass 0  IDiag  1:
 RMSU=  8.26D-05    CP:  9.15D-01  2.01D+00  1.07D+00  1.37D+00
 E= -464.526413028207     Delta-E=       -0.000023687382 Rises=F Damp=F
 DIIS: error= 3.21D-04 at cycle   5 NSaved=   5.
 NSaved= 5 IEnMin= 5 EnMin= -464.526413028207     IErMin= 5 ErrMin= 3.21D-04
 ErrMax= 3.21D-04  0.00D+00 EMaxC= 1.00D-01 BMatC= 1.29D-05 BMatP= 2.72D-05
 IDIUse=3 WtCom= 9.97D-01 WtEn= 3.21D-03
 Coeff-Com:  0.283D-01-0.608D-01-0.413D-01 0.466D+00 0.608D+00
 Coeff-En:   0.000D+00 0.000D+00 0.000D+00 0.386D-01 0.961D+00
 Coeff:      0.282D-01-0.606D-01-0.411D-01 0.465D+00 0.609D+00
 Gap=     0.311 Goal=   None    Shift=    0.000
 RMSDP=5.99D-05 MaxDP=1.96D-03 DE=-2.37D-05 OVMax= 1.66D-03

 Cycle   6  Pass 0  IDiag  1:
 RMSU=  2.78D-05    CP:  9.16D-01  2.02D+00  1.11D+00  1.66D+00  1.27D+00
 E= -464.526427016408     Delta-E=       -0.000013988201 Rises=F Damp=F
 DIIS: error= 8.83D-05 at cycle   6 NSaved=   6.
 NSaved= 6 IEnMin= 6 EnMin= -464.526427016408     IErMin= 6 ErrMin= 8.83D-05
 ErrMax= 8.83D-05  0.00D+00 EMaxC= 1.00D-01 BMatC= 5.30D-07 BMatP= 1.29D-05
 IDIUse=1 WtCom= 1.00D+00 WtEn= 0.00D+00
 Coeff-Com:  0.799D-02-0.172D-01-0.146D-01 0.695D-01 0.185D+00 0.769D+00
 Coeff:      0.799D-02-0.172D-01-0.146D-01 0.695D-01 0.185D+00 0.769D+00
 Gap=     0.311 Goal=   None    Shift=    0.000
 RMSDP=3.51D-05 MaxDP=1.02D-03 DE=-1.40D-05 OVMax= 5.78D-04

 Cycle   7  Pass 0  IDiag  1:
 RMSU=  1.07D-05    CP:  9.16D-01  2.03D+00  1.11D+00  1.80D+00  1.55D+00
                    CP:  1.52D+00
 E= -464.526426521654     Delta-E=        0.000000494754 Rises=F Damp=F
 DIIS: error= 3.15D-05 at cycle   7 NSaved=   7.
 NSaved= 7 IEnMin= 6 EnMin= -464.526427016408     IErMin= 7 ErrMin= 3.15D-05
 ErrMax= 3.15D-05  0.00D+00 EMaxC= 1.00D-01 BMatC= 1.16D-07 BMatP= 5.30D-07
 IDIUse=1 WtCom= 1.00D+00 WtEn= 0.00D+00
 Coeff-Com: -0.346D-02 0.747D-02 0.406D-02-0.878D-01-0.674D-01 0.279D+00
 Coeff-Com:  0.868D+00
 Coeff:     -0.346D-02 0.747D-02 0.406D-02-0.878D-01-0.674D-01 0.279D+00
 Coeff:      0.868D+00
 Gap=     0.311 Goal=   None    Shift=    0.000
 RMSDP=2.82D-05 MaxDP=7.23D-04 DE= 4.95D-07 OVMax= 3.10D-04

 Cycle   8  Pass 0  IDiag  1:
 RMSU=  7.27D-06    CP:  9.15D-01  2.03D+00  1.10D+00  1.86D+00  1.78D+00
                    CP:  1.81D+00  2.24D+00
 E= -464.526425595499     Delta-E=        0.000000926155 Rises=F Damp=F
 DIIS: error= 1.05D-05 at cycle   8 NSaved=   8.
 NSaved= 8 IEnMin= 6 EnMin= -464.526427016408     IErMin= 8 ErrMin= 1.05D-05
 ErrMax= 1.05D-05  0.00D+00 EMaxC= 1.00D-01 BMatC= 8.32D-09 BMatP= 1.16D-07
 IDIUse=1 WtCom= 1.00D+00 WtEn= 0.00D+00
 Coeff-Com: -0.753D-03 0.162D-02 0.148D-02-0.810D-02-0.965D-02-0.494D-01
 Coeff-Com:  0.506D-02 0.106D+01
 Coeff:     -0.753D-03 0.162D-02 0.148D-02-0.810D-02-0.965D-02-0.494D-01
 Coeff:      0.506D-02 0.106D+01
 Gap=     0.311 Goal=   None    Shift=    0.000
 RMSDP=1.88D-05 MaxDP=5.91D-04 DE= 9.26D-07 OVMax= 1.27D-04

 Cycle   9  Pass 0  IDiag  1:
 RMSU=  8.19D-06    CP:  9.15D-01  2.03D+00  1.10D+00  1.82D+00  1.80D+00
                    CP:  1.79D+00  3.00D+00  2.68D+00
 E= -464.526425419973     Delta-E=        0.000000175526 Rises=F Damp=F
 DIIS: error= 6.47D-06 at cycle   9 NSaved=   9.
 NSaved= 9 IEnMin= 6 EnMin= -464.526427016408     IErMin= 9 ErrMin= 6.47D-06
 ErrMax= 6.47D-06  0.00D+00 EMaxC= 1.00D-01 BMatC= 5.19D-09 BMatP= 8.32D-09
 IDIUse=1 WtCom= 1.00D+00 WtEn= 0.00D+00
 Coeff-Com: -0.118D-03 0.252D-03 0.379D-03 0.764D-03 0.707D-03-0.333D-01
 Coeff-Com: -0.492D-01 0.477D+00 0.604D+00
 Coeff:     -0.118D-03 0.252D-03 0.379D-03 0.764D-03 0.707D-03-0.333D-01
 Coeff:     -0.492D-01 0.477D+00 0.604D+00
 Gap=     0.311 Goal=   None    Shift=    0.000
 RMSDP=1.35D-05 MaxDP=3.58D-04 DE= 1.76D-07 OVMax= 1.91D-05

 Cycle  10  Pass 0  IDiag  1:
 RMSU=  5.96D-06    CP:  9.15D-01  2.03D+00  1.10D+00  1.79D+00  1.75D+00
                    CP:  1.71D+00  3.00D+00  3.00D+00  2.01D+00
 E= -464.526425041611     Delta-E=        0.000000378362 Rises=F Damp=F
 DIIS: error= 9.05D-06 at cycle  10 NSaved=  10.
 NSaved=10 IEnMin= 6 EnMin= -464.526427016408     IErMin= 9 ErrMin= 6.47D-06
 ErrMax= 9.05D-06  0.00D+00 EMaxC= 1.00D-01 BMatC= 4.78D-09 BMatP= 5.19D-09
 IDIUse=1 WtCom= 1.00D+00 WtEn= 0.00D+00
 Coeff-Com: -0.189D-03 0.406D-03 0.417D-03-0.182D-02-0.113D-02-0.193D-01
 Coeff-Com: -0.166D-01 0.388D+00 0.416D+00 0.234D+00
 Coeff:     -0.189D-03 0.406D-03 0.417D-03-0.182D-02-0.113D-02-0.193D-01
 Coeff:     -0.166D-01 0.388D+00 0.416D+00 0.234D+00
 Gap=     0.311 Goal=   None    Shift=    0.000
 RMSDP=5.03D-06 MaxDP=1.44D-04 DE= 3.78D-07 OVMax= 2.81D-06

 Initial convergence to 1.0D-05 achieved.  Increase integral accuracy.
 Cycle  11  Pass 1  IDiag  1:
 E= -464.526547683502     Delta-E=       -0.000122641890 Rises=F Damp=F
 DIIS: error= 3.16D-04 at cycle   1 NSaved=   1.
 NSaved= 1 IEnMin= 1 EnMin= -464.526547683502     IErMin= 1 ErrMin= 3.16D-04
 ErrMax= 3.16D-04  0.00D+00 EMaxC= 1.00D-01 BMatC= 1.83D-05 BMatP= 1.83D-05
 IDIUse=3 WtCom= 9.97D-01 WtEn= 3.16D-03
 Coeff-Com:  0.100D+01
 Coeff-En:   0.100D+01
 Coeff:      0.100D+01
 Gap=     0.311 Goal=   None    Shift=    0.000
 RMSDP=5.03D-06 MaxDP=1.44D-04 DE=-1.23D-04 OVMax= 6.32D-04

 Cycle  12  Pass 1  IDiag  1:
 RMSU=  1.03D-03    CP:  9.71D-01
 E= -464.526556359228     Delta-E=       -0.000008675727 Rises=F Damp=F
 DIIS: error= 2.65D-05 at cycle   2 NSaved=   2.
 NSaved= 2 IEnMin= 2 EnMin= -464.526556359228     IErMin= 2 ErrMin= 2.65D-05
 ErrMax= 2.65D-05  0.00D+00 EMaxC= 1.00D-01 BMatC= 2.40D-08 BMatP= 1.83D-05
 IDIUse=1 WtCom= 1.00D+00 WtEn= 0.00D+00
 Coeff-Com: -0.253D-01 0.103D+01
 Coeff:     -0.253D-01 0.103D+01
 Gap=     0.311 Goal=   None    Shift=    0.000
 RMSDP=6.61D-05 MaxDP=2.22D-03 DE=-8.68D-06 OVMax= 6.05D-05

 Cycle  13  Pass 1  IDiag  1:
 RMSU=  2.36D-05    CP:  9.70D-01  1.06D+00
 E= -464.526556391845     Delta-E=       -0.000000032616 Rises=F Damp=F
 DIIS: error= 1.90D-06 at cycle   3 NSaved=   3.
 NSaved= 3 IEnMin= 3 EnMin= -464.526556391845     IErMin= 3 ErrMin= 1.90D-06
 ErrMax= 1.90D-06  0.00D+00 EMaxC= 1.00D-01 BMatC= 6.02D-10 BMatP= 2.40D-08
[...]
 5990,-0.00000001,0.,0.00304802,0.00000016,0.00000008,0.54435262,-0.018
 83988,-0.00717069,0.02299052,-0.11880315,-0.03512849,0.11582458,-0.002
 18912,0.00301942,0.00006040,0.00114294,-0.00178928,-0.00070277,-0.0004
 0495,-0.00053915,-0.00187678,-0.00084632,0.00008801,-0.00075579,0.0003
 0037,0.00015018,0.00015042,-0.00026387,0.00026282,-0.00004772,-0.00018
 665,-0.00000624,0.00013546,0.00006143,-0.00010398,0.00014201,-0.000032
 18,0.00019611,-0.00003195,-0.00000310,0.00002464,0.00000651,0.13260870
 ,0.00885124,0.00468317,-0.01410685,-0.03452433,-0.06470109,0.05345023,
 -0.00025732,-0.00100352,-0.00006664,0.00119726,-0.00018913,0.00013585,
 0.00062349,0.00006062,0.00056010,-0.00100226,0.00034810,0.00016048,0.0
 0081674,0.00028981,-0.00014303,-0.00026670,-0.00013539,0.00006269,-0.0
 0043127,0.00011345,0.00007622,0.00012651,-0.00035741,-0.00006086,0.000
 31469,0.00020156,0.00001371,-0.00000138,0.00000272,-0.00001325,0.03610
 889,0.06529190,-0.00161640,-0.00098511,0.00287518,0.11517536,0.0540393
 6,-0.21976615,-0.00032546,-0.00029948,-0.00010966,0.00003061,0.0006054
 7,0.00084504,-0.00033263,0.00011719,-0.00027420,0.00038827,-0.00030163
 ,0.00015293,-0.00034024,-0.00011574,-0.00002509,0.00013426,-0.00002255
 ,0.00000493,0.00016728,-0.00001399,-0.00003506,-0.00009166,0.00010159,
 0.00001347,-0.00005028,-0.00013836,0.00000029,-0.00000457,-0.00000535,
 0.00000151,-0.12583926,-0.05948966,0.23682399,-0.01883990,-0.00717071,
 -0.02299050,-0.11880334,-0.03512864,-0.11582463,-0.00218912,0.00301942
 ,-0.00006040,0.00114294,-0.00178929,0.00070277,-0.00040495,-0.00053915
 ,0.00187678,-0.00084632,0.00008801,0.00075579,0.00030037,0.00015018,-0
 .00015042,-0.00026387,0.00026282,0.00004772,-0.00018665,-0.00000624,-0
 .00013546,0.00006143,-0.00010398,-0.00014201,-0.00003218,0.00019611,0.
 00003195,-0.00000310,0.00002464,-0.00000651,0.00988940,0.00510439,0.01
 434776,0.13260891,0.00885124,0.00468318,0.01410684,-0.03452448,-0.0647
 0119,-0.05345034,-0.00025731,-0.00100352,0.00006664,0.00119726,-0.0001
 8913,-0.00013585,0.00062349,0.00006063,-0.00056010,-0.00100226,0.00034
 810,-0.00016048,0.00081674,0.00028981,0.00014303,-0.00026670,-0.000135
 39,-0.00006269,-0.00043127,0.00011345,-0.00007622,0.00012651,-0.000357
 41,0.00006086,0.00031469,0.00020156,-0.00001371,-0.00000138,0.00000272
 ,0.00001325,0.00510438,0.00174127,0.00742679,0.03610906,0.06529201,0.0
 0161641,0.00098511,0.00287518,-0.11517542,-0.05403947,-0.21976588,0.00
 032546,0.00029947,-0.00010966,-0.00003060,-0.00060547,0.00084504,0.000
 33264,-0.00011719,-0.00027420,-0.00038827,0.00030163,0.00015293,0.0003
 4024,0.00011574,-0.00002509,-0.00013426,0.00002255,0.00000493,-0.00016
 728,0.00001399,-0.00003506,0.00009166,-0.00010159,0.00001347,0.0000502
 8,0.00013836,0.00000029,0.00000457,0.00000535,0.00000151,-0.01434779,-
 0.00742681,-0.02138911,0.12583932,0.05948979,0.23682369,0.00470967,0.0
 3039959,-0.00000002,-0.05369391,-0.04070524,0.00000002,0.00174908,0.00
 153882,0.,-0.00562920,0.00163642,0.,-0.00006814,-0.00008804,0.,0.00062
 280,0.00143065,0.,0.00001057,-0.00004879,0.,0.00018087,-0.00003340,0.,
 0.00009481,-0.00009376,0.,-0.00004637,0.00015381,0.,-0.00009894,-0.000
 09096,0.,0.00000928,-0.00001060,0.,-0.00274755,-0.01650711,-0.00171800
 ,-0.00274755,-0.01650713,0.00171802,0.05866181,-0.00362166,-0.01530652
 ,0.,-0.03623848,-0.31342066,0.00000013,-0.00245183,0.00111669,0.,0.003
 60127,-0.00051769,0.,0.00040384,0.00024283,0.,-0.00077615,-0.00061648,
 0.,0.00014713,0.00018519,0.,-0.00010787,-0.00009877,0.,-0.00011880,0.0
 0016878,0.,0.00005891,-0.00015216,0.,0.00014710,0.00011968,0.,0.000007
 90,-0.00001438,0.,-0.00071688,-0.00623452,-0.00046495,-0.00071688,-0.0
 0623454,0.00046495,0.03934740,0.33972927,0.,0.,-0.00157389,0.00000002,
 0.00000014,-0.04737540,0.,0.,-0.00013362,0.,0.,0.00149139,0.,0.,-0.000
 17551,0.,0.,0.00041084,0.,0.,-0.00000745,0.,0.,-0.00007192,0.,0.,0.000
 00322,0.,0.,0.00000487,0.,0.,0.00000470,0.,0.,0.00000984,0.00289802,0.
 02672538,0.00110594,-0.00289802,-0.02672535,0.00110597,-0.00000002,-0.
 00000015,0.04530009,0.00316780,-0.02733379,0.,0.00126932,-0.00208550,0
 .,-0.05882382,-0.00129844,0.,-0.00469564,-0.00235086,0.,0.00388038,0.0
 2742834,0.,-0.00112653,0.00004910,0.,-0.00452267,0.00156376,0.,0.00127
 220,0.00170052,0.,0.00026599,0.00135785,0.,0.00016829,-0.00051107,0.,0
 .00018081,0.00022804,0.,0.00000450,-0.00001319,0.,0.00002246,0.0001769
 6,-0.00005781,0.00002246,0.00017697,0.00005781,-0.00064330,0.00075674,
 0.,0.06021276,0.00286169,-0.01382761,0.,0.00140548,0.00083631,0.,-0.00
 258896,-0.33340683,-0.00000003,-0.00314638,0.00058151,0.,-0.00253373,-
 0.01311190,0.,-0.00002342,0.00061666,0.,0.00309776,0.00076246,0.,-0.00
 177200,0.00095983,0.,-0.00082975,-0.00068951,0.,0.00035520,-0.00008184
 ,0.,0.00017768,0.00035811,0.,0.00002375,-0.00004478,0.,0.00006158,0.00
 022733,-0.00002806,0.00006158,0.00022733,0.00002806,-0.00077078,0.0007
 3254,0.,0.00234288,0.35635486,0.,0.,0.00489159,0.,0.,-0.00558372,0.,-0
 .00000003,-0.03645734,0.,0.,0.00761164,0.,0.,0.00303020,0.,0.,-0.00068
 769,0.,0.,0.00510042,0.,0.,-0.00295442,0.,0.,0.00008607,0.,0.,-0.00017
 878,0.,0.,-0.00011280,0.,0.,0.00017392,0.00088920,0.00006785,0.0001075
 0,-0.00088920,-0.00006785,0.00010750,0.,0.,0.00032018,0.,0.00000003,0.
 02493099,0.00206249,0.00189516,0.,0.00077474,0.00072468,0.,0.00147505,
 0.00064703,0.,-0.26828902,-0.11907428,-0.00000001,0.00004275,0.0005325
 2,0.,-0.01947419,-0.01655611,0.,-0.00263493,0.00428955,0.,0.00020985,-
 0.00006856,0.,-0.00047166,-0.00121550,0.,-0.00001612,0.00024758,0.,-0.
 00050100,0.00019326,0.,0.00000521,-0.00000546,0.,0.00033706,-0.0002946
 8,0.00008248,0.00033706,-0.00029468,-0.00008248,-0.00000351,-0.0000080
 0,0.,0.00015319,0.00005512,0.,0.28534425,-0.02886505,-0.01038151,0.,-0
 .00095080,0.00143756,0.,0.00130133,-0.00590579,0.,-0.11981163,-0.12850
 577,0.,0.00114073,-0.00050522,0.,0.01579646,0.01176401,0.,0.00332634,-
 0.00132450,0.,-0.00044886,0.00009437,0.,0.00011906,0.00062890,0.,0.000
 15702,-0.00032375,0.,0.00029003,0.00018640,0.,0.00000895,0.00001478,0.
 ,0.00039806,-0.00032957,-0.00038574,0.00039806,-0.00032957,0.00038574,
 0.00017359,0.00037123,0.,-0.00146211,-0.00074184,0.,0.12861833,0.13290
 004,0.,0.,0.00262819,0.,0.,-0.00149016,0.,0.,0.00498174,-0.00000001,0.
 ,-0.03665356,0.,0.,-0.00087181,0.,0.,0.00301086,0.,0.,0.00961429,0.,0.
 ,-0.00077292,0.,0.,0.00027701,0.,0.,0.00011502,0.,0.,-0.00060424,0.,0.
 ,0.00001946,0.00048489,0.00004913,-0.00031646,-0.00048489,-0.00004913,
 -0.00031646,0.,0.,-0.00025159,0.,0.,0.00022051,0.00000001,0.00000001,0
 .02538247,-0.00444405,0.00206236,0.,0.00048670,0.00118060,0.,-0.001210
 07,0.00004895,0.,0.00485630,0.02887291,0.,-0.00464907,-0.00171809,0.,-
 0.05988675,-0.00282720,0.,0.00413524,-0.02746336,0.,0.00033342,-0.0013
 3114,0.,0.00144690,-0.00145770,0.,0.00022672,-0.00025484,0.,0.00017763
 ,0.00049422,0.,-0.00004926,0.00007387,0.,0.00000232,-0.00004005,0.0000
 3940,0.00000232,-0.00004005,-0.00003940,-0.00034942,0.00024413,0.,0.00
 011101,0.00002202,0.,0.00082695,-0.00030115,0.,0.05886741,0.00305168,0
 .00086366,0.,-0.00038728,-0.00063449,0.,-0.00007467,0.00072121,0.,-0.0
 0321528,-0.01193211,0.,-0.00299551,0.00061288,0.,-0.00208566,-0.337611
 59,-0.00000003,0.00257210,-0.01248816,0.,0.00072821,-0.00066078,0.,0.0
 0168482,0.00102614,0.,-0.00003927,0.00032724,0.,-0.00040065,-0.0000962
 4,0.,-0.00005580,0.00007627,0.,0.00002952,-0.00000425,-0.00002268,0.00
 002952,-0.00000425,0.00002268,0.00021880,-0.00014356,0.,0.00002029,-0.
 00012904,0.,0.00037938,0.00086000,0.,0.00175269,0.35907561,0.,0.,0.009
 33232,0.,0.,0.00003799,0.,0.,-0.00085895,0.,0.,0.00357715,0.,0.,0.0051
 8050,0.,-0.00000003,-0.03661736,0.,0.,0.00297162,0.,0.,0.00001059,0.,0
 .,-0.00283880,0.,0.,-0.00007409,0.,0.,-0.00014112,0.,0.,0.00003495,0.0
 0005876,-0.00000950,-0.00001386,-0.00005876,0.00000950,-0.00001386,0.,
 0.,-0.00017781,0.,0.,-0.00107624,0.,0.,-0.00516448,0.,0.00000004,0.025
 27930,0.00016829,0.00051107,0.,0.00000450,0.00001319,0.,0.00127220,-0.
 00170052,0.,0.00018081,-0.00022804,0.,0.00388038,-0.02742834,0.,0.0002
 6599,-0.00135785,0.,-0.00452267,-0.00156376,0.,-0.05882382,0.00129844,
 0.,-0.00112653,-0.00004910,0.,0.00316780,0.02733379,0.,-0.00469564,0.0
 0235086,0.,0.00126932,0.00208550,0.,0.00001486,-0.00000103,-0.00000707
 ,0.00001486,-0.00000103,0.00000707,-0.00003390,0.00002775,0.,-0.000516
 45,0.00088079,0.,-0.00002196,0.00006507,0.,-0.00037661,-0.00022507,0.,
 0.06021276,-0.00035520,-0.00008184,0.,-0.00002375,-0.00004478,0.,0.001
 77200,0.00095983,0.,-0.00017768,0.00035812,0.,0.00253373,-0.01311190,0
 .,0.00082975,-0.00068951,0.,-0.00309776,0.00076246,0.,0.00258896,-0.33
 340683,-0.00000005,0.00002342,0.00061666,0.,-0.00286169,-0.01382761,0.
 ,0.00314638,0.00058151,0.,-0.00140548,0.00083631,0.,-0.00002204,0.0000
 0855,-0.00000287,-0.00002204,0.00000855,0.00000287,-0.00001229,0.00003
 618,0.,-0.00088079,0.00043060,0.,-0.00003968,0.00004288,0.,-0.00022343
 ,-0.00015036,0.,-0.00234288,0.35635486,0.,0.,-0.00017878,0.,0.,0.00017
 392,0.,0.,-0.00295442,0.,0.,-0.00011280,0.,0.,0.00303020,0.,0.,0.00008
 607,0.,0.,0.00510042,0.,-0.00000005,-0.03645734,0.,0.,-0.00068769,-0.0
 0000001,0.,0.00489159,0.,0.,0.00761164,0.,0.00000002,-0.00558372,-0.00
 002787,0.00002418,-0.00000611,0.00002787,-0.00002418,-0.00000611,0.,0.
 ,0.00001607,0.,0.,0.00023440,0.,0.,0.00004141,0.,0.,0.00019081,0.,0.00
 000005,0.02493099,0.00022672,0.00025484,0.,-0.00004926,-0.00007387,0.,
 0.00033342,0.00133114,0.,0.00017763,-0.00049422,0.,-0.00464907,0.00171
 809,0.,0.00144690,0.00145770,0.,0.00413524,0.02746336,0.,-0.00121007,-
 0.00004895,0.,-0.05988675,0.00282721,0.,-0.00444405,-0.00206236,0.,0.0
 0485630,-0.02887291,0.,0.00048670,-0.00118061,0.,-0.00002374,0.0000096
 6,0.00000717,-0.00002374,0.00000966,-0.00000717,0.00001671,-0.00002941
 ,0.,-0.00037661,0.00022343,0.,-0.00000391,-0.00001262,0.,-0.00047300,-
 0.00088255,0.,0.00011101,-0.00002202,0.,0.05886741,0.00003927,0.000327
 24,0.,0.00005580,0.00007627,0.,-0.00072821,-0.00066078,0.,0.00040065,-
 0.00009624,0.,0.00299551,0.00061288,0.,-0.00168482,0.00102614,0.,-0.00
 257210,-0.01248816,0.,0.00007467,0.00072121,0.,0.00208566,-0.33761159,
 0.,-0.00305168,0.00086366,0.,0.00321528,-0.01193211,0.,0.00038728,-0.0
 0063449,0.,0.00003307,-0.00002363,-0.00000885,0.00003307,-0.00002363,0
 .00000885,-0.00001932,-0.00000130,0.,0.00022507,-0.00015036,0.,0.00005
 845,-0.00001437,0.,0.00088255,0.00035472,0.,-0.00002029,-0.00012904,0.
 ,-0.00175270,0.35907561,0.,0.,-0.00007409,0.,0.,0.00003495,0.,0.,0.000
 01059,0.,0.,-0.00014112,0.,0.,0.00518050,0.,0.,-0.00283880,0.,0.,0.002
 97162,0.,0.,-0.00085895,0.,0.,-0.03661736,0.,0.,0.00933232,0.,0.,0.003
 57715,0.,0.,0.00003799,0.00000056,0.00000242,-0.00000312,-0.00000056,-
 0.00000242,-0.00000312,0.,0.,-0.00000820,0.,0.,0.00019081,0.,0.,0.0001
 7534,0.,0.,0.00020042,0.,0.,-0.00107624,0.,0.,0.02527930,-0.00001612,-
 0.00024758,0.,0.00000521,0.00000546,0.,0.00020985,0.00006856,0.,-0.000
 50100,-0.00019326,0.,0.00004275,-0.00053252,0.,-0.00047166,0.00121551,
 0.,-0.00263493,-0.00428955,0.,0.00147505,-0.00064703,0.,-0.01947419,0.
 01655611,0.,0.00206249,-0.00189516,0.,-0.26828902,0.11907428,0.,0.0007
 7474,-0.00072468,0.,-0.00000946,-0.00000059,0.00000298,-0.00000946,-0.
 00000059,-0.00000298,-0.00000122,0.00001698,0.,-0.00002196,0.00003968,
 0.,-0.00013216,0.00006831,0.,-0.00000391,-0.00005845,0.,0.00015319,-0.
 00005512,0.,0.00082695,-0.00037938,0.,0.28534425,-0.00015702,-0.000323
 75,0.,-0.00000895,0.00001478,0.,0.00044886,0.00009437,0.,-0.00029003,0
 .00018640,0.,-0.00114073,-0.00050522,0.,-0.00011906,0.00062890,0.,-0.0
 0332634,-0.00132450,0.,-0.00130133,-0.00590579,0.,-0.01579646,0.011764
 01,0.,0.02886505,-0.01038151,0.,0.11981163,-0.12850577,0.,0.00095080,0
 .00143756,0.,0.00000897,0.00000529,-0.00000526,0.00000897,0.00000529,0
 .00000526,-0.00000885,0.00000526,0.,-0.00006507,0.00004288,0.,-0.00006
 831,0.00004588,0.,0.00001262,-0.00001437,0.,0.00146211,-0.00074184,0.,
 0.00030115,0.00086000,0.,-0.12861833,0.13290004,0.,0.,0.00011502,0.,0.
 ,0.00001946,0.,0.,-0.00077292,0.,0.,-0.00060424,0.,0.,-0.00087181,0.,0
 .,0.00027701,0.,0.,0.00961429,0.,0.,0.00498174,0.,0.,0.00301086,0.,0.,
 0.00262819,0.,0.,-0.03665356,0.,0.,-0.00149016,-0.00001010,-0.00001496
 ,0.00000893,0.00001010,0.00001496,0.00000893,0.,0.,0.00000136,0.,0.,0.
 00004141,0.,0.,-0.00004383,0.,0.,0.00017534,0.,0.,0.00022051,0.,0.,-0.
 00516448,0.,0.,0.02538247,0.00006143,0.00010398,0.00014201,-0.00000310
 ,-0.00002464,0.00000651,-0.00026387,-0.00026282,-0.00004772,-0.0000321
 8,-0.00019611,-0.00003195,-0.00040494,0.00053914,-0.00187678,-0.000186
 65,0.00000624,0.00013546,0.00030037,-0.00015018,0.00015042,-0.00218911
 ,-0.00301941,0.00006039,-0.00084633,-0.00008801,-0.00075579,-0.0188398
 4,0.00717059,0.02299059,0.00114293,0.00178928,-0.00070277,-0.11880257,
 0.03512794,0.11582446,-0.00001748,0.00000219,0.00000443,-0.00001847,-0
 .00000487,-0.00000602,0.00000640,0.00001158,0.00000029,0.00001486,0.00
 002204,-0.00002787,-0.00000946,-0.00000897,-0.00001010,-0.00002374,-0.
 00003307,0.00000056,0.00002245,-0.00006158,0.00088921,0.00000232,-0.00
 002952,0.00005876,0.00033706,-0.00039805,0.00048489,0.13260807,-0.0001
 2651,-0.00035741,0.00006086,0.00000138,0.00000272,0.00001325,0.0002667
 0,-0.00013539,-0.00006269,-0.00031470,0.00020156,-0.00001371,-0.000623
 49,0.00006062,-0.00056010,0.00043128,0.00011345,-0.00007622,-0.0008167
 5,0.00028981,0.00014303,0.00025733,-0.00100351,0.00006665,0.00100226,0
 .00034809,-0.00016048,-0.00885121,0.00468312,0.01410688,-0.00119726,-0
 .00018914,-0.00013586,0.03452376,-0.06470067,-0.05344971,-0.00000219,-
 0.00000057,-0.00000121,0.00000487,-0.00000243,0.00000128,0.00000043,0.
 00000774,-0.00000340,0.00000103,0.00000855,-0.00002418,0.00000059,0.00
 000529,0.00001496,-0.00000966,-0.00002363,-0.00000242,-0.00017696,0.00
 022733,-0.00006785,0.00004005,-0.00000425,0.00000950,0.00029468,-0.000
 32957,-0.00004913,-0.03610827,0.06529144,-0.00009166,-0.00010159,0.000
 01347,-0.00000457,0.00000535,0.00000151,0.00013426,0.00002255,0.000004
 93,-0.00005028,0.00013836,0.00000029,-0.00033263,-0.00011719,-0.000274
 20,0.00016728,0.00001399,-0.00003506,-0.00034025,0.00011574,-0.0000250
 9,-0.00032546,0.00029948,-0.00010966,0.00038827,0.00030163,0.00015293,
 -0.00161637,0.00098510,0.00287519,0.00003061,-0.00060547,0.00084504,0.
 11517521,-0.05403886,-0.21976708,0.00000443,0.00000121,-0.00000400,0.0
 0000602,0.00000128,0.00000429,-0.00000264,-0.00000235,-0.00000117,-0.0
 0000707,0.00000287,-0.00000611,0.00000298,0.00000526,0.00000893,0.0000
 0717,0.00000885,-0.00000312,-0.00005781,0.00002807,0.00010750,0.000039
 40,0.00002268,-0.00001386,0.00008248,0.00038573,-0.00031647,-0.1258391
 3,0.05948909,0.23682502,0.00006142,0.00010398,-0.00014201,-0.00000310,
 -0.00002464,-0.00000651,-0.00026387,-0.00026282,0.00004772,-0.00003218
 ,-0.00019611,0.00003195,-0.00040495,0.00053915,0.00187677,-0.00018665,
 0.00000624,-0.00013546,0.00030037,-0.00015018,-0.00015042,-0.00218914,
 -0.00301943,-0.00006041,-0.00084632,-0.00008802,0.00075579,-0.01883994
 ,0.00717081,-0.02299043,0.00114294,0.00178929,0.00070278,-0.11880393,0
 .03512919,-0.11582476,-0.00001847,-0.00000487,0.00000602,-0.00001748,0
 .00000219,-0.00000443,0.00000640,0.00001158,-0.00000029,0.00001486,0.0
 0002204,0.00002787,-0.00000946,-0.00000897,0.00001010,-0.00002374,-0.0
 0003307,-0.00000056,0.00002246,-0.00006159,-0.00088920,0.00000232,-0.0
 0002952,-0.00005876,0.00033707,-0.00039806,-0.00048489,0.00988940,-0.0
 0510442,0.01434767,0.13260955,-0.00012651,-0.00035740,-0.00006086,0.00
 000138,0.00000272,-0.00001325,0.00026670,-0.00013539,0.00006269,-0.000
 31469,0.00020156,0.00001371,-0.00062349,0.00006063,0.00056010,0.000431
 27,0.00011345,0.00007622,-0.00081674,0.00028981,-0.00014303,0.00025730
 ,-0.00100353,-0.00006664,0.00100226,0.00034810,0.00016047,-0.00885127,
 0.00468323,-0.01410682,-0.00119726,-0.00018912,0.00013584,0.03452505,-
 0.06470161,0.05345085,0.00000487,-0.00000243,-0.00000128,-0.00000219,-
 0.00000057,0.00000121,0.00000043,0.00000774,0.00000340,0.00000103,0.00
 000855,0.00002418,0.00000059,0.00000529,-0.00001496,-0.00000966,-0.000
 02363,0.00000242,-0.00017697,0.00022733,0.00006785,0.00004005,-0.00000
 425,-0.00000950,0.00029468,-0.00032957,0.00004914,-0.00510434,0.001741
 27,-0.00742669,-0.03610967,0.06529246,0.00009166,0.00010159,0.00001347
 ,0.00000457,-0.00000535,0.00000151,-0.00013427,-0.00002255,0.00000493,
 0.00005028,-0.00013836,0.00000029,0.00033264,0.00011720,-0.00027420,-0
 .00016727,-0.00001399,-0.00003506,0.00034024,-0.00011574,-0.00002509,0
 .00032545,-0.00029947,-0.00010966,-0.00038826,-0.00030163,0.00015292,0
 .00161644,-0.00098511,0.00287517,-0.00003060,0.00060547,0.00084504,-0.
 11517557,0.05403996,-0.21976494,-0.00000602,-0.00000128,0.00000429,-0.
 00000443,-0.00000121,-0.00000400,0.00000264,0.00000235,-0.00000117,0.0
 0000707,-0.00000287,-0.00000611,-0.00000298,-0.00000526,0.00000893,-0.
 00000717,-0.00000885,-0.00000312,0.00005781,-0.00002806,0.00010751,-0.
 00003940,-0.00002268,-0.00001386,-0.00008248,-0.00038574,-0.00031646,-
 0.01434789,0.00742691,-0.02138911,0.12583946,-0.05949034,0.23682266,-0
 .00004637,-0.00015381,0.,0.00000928,0.00001060,0.,0.00018087,0.0000334
 0,0.,-0.00009894,0.00009096,0.,-0.00006814,0.00008804,0.,0.00009481,0.
 00009376,0.,0.00001057,0.00004879,0.,0.00174908,-0.00153882,0.,0.00062
 280,-0.00143065,0.,0.00470967,-0.03039959,-0.00000014,-0.00562920,-0.0
 0163642,0.,-0.05369391,0.04070525,0.00000016,0.00000640,-0.00000043,-0
 .00000264,0.00000640,-0.00000043,0.00000264,-0.00000538,0.00000365,0.,
 -0.00003390,0.00001229,0.,-0.00000122,0.00000885,0.,0.00001671,0.00001
 932,0.,-0.00064330,0.00077078,0.,-0.00034942,-0.00021880,0.,-0.0000035
 1,-0.00017359,0.,-0.00274755,0.01650705,-0.00171793,-0.00274756,0.0165
 0719,0.00171810,0.05866182,-0.00005891,-0.00015216,0.,-0.00000790,-0.0
 0001438,0.,0.00010787,-0.00009877,0.,-0.00014710,0.00011968,0.,-0.0004
 0384,0.00024283,0.,0.00011880,0.00016878,0.,-0.00014714,0.00018519,0.,
 0.00245183,0.00111669,0.,0.00077615,-0.00061648,0.,0.00362166,-0.01530
 652,-0.00000005,-0.00360127,-0.00051769,0.,0.03623849,-0.31342066,-0.0
 0000120,-0.00001158,0.00000774,0.00000235,-0.00001158,0.00000774,-0.00
 000235,-0.00000365,0.00001744,0.,-0.00002775,0.00003618,0.,-0.00001698
 ,0.00000526,0.,0.00002941,-0.00000130,0.,-0.00075674,0.00073254,0.,-0.
 00024413,-0.00014356,0.,0.00000800,0.00037123,0.,0.00071687,-0.0062344
 2,0.00046491,0.00071689,-0.00623463,-0.00046498,-0.03934741,0.33972927
 ,0.,0.,0.00000487,0.,0.,0.00000984,0.,0.,-0.00007192,0.,0.,0.00000470,
 0.,0.,-0.00017551,0.,0.,0.00000322,0.,0.,-0.00000745,0.,0.,-0.00013362
 ,0.00000001,0.,0.00041084,0.00000001,0.00000005,-0.00157389,0.,0.,0.00
 149139,0.00000014,-0.00000122,-0.04737540,0.00000029,0.00000340,-0.000
 00117,-0.00000029,-0.00000340,-0.00000117,0.,0.,0.00000325,0.,0.,0.000
 01607,0.,0.,0.00000136,0.,0.,-0.00000820,0.,0.,0.00032018,0.,0.,-0.000
 17781,0.,0.,-0.00025159,0.00289804,-0.02672545,0.00110584,-0.00289800,
 0.02672528,0.00110607,-0.00000020,0.00000132,0.04530009\\0.00000031,0.
 00000093,0.,0.00000403,-0.00000237,0.,0.00000139,-0.00000033,0.,0.0000
 0344,-0.00000554,0.,-0.00000001,0.00001195,0.,-0.00000155,0.00000288,0
 .,0.,-0.00001040,0.,-0.00000136,-0.00000033,0.,0.00000156,0.00000288,0
 .,-0.00000032,0.00000095,0.,-0.00000345,-0.00000555,0.,-0.00000402,-0.
 00000237,0.,-0.00000009,0.00000009,0.00000027,-0.00000009,0.00000009,-
 0.00000027,-0.00000099,0.00000092,0.,0.00000034,0.00000083,0.,-0.00000
 135,0.00000269,0.,0.00000178,-0.00000097,0.,-0.00000034,0.00000083,0.,
 -0.00000178,-0.00000097,0.,0.00000135,0.00000269,0.,0.00000009,0.00000
 009,-0.00000027,0.00000009,0.00000009,0.00000027,0.00000099,0.00000092
 ,0.\\\@


 QUANTUM MECHANICS IS BOHRING -- M.S. GORDON
 Job cpu time:       0 days  9 hours 55 minutes  3.6 seconds.
 File lengths (MBytes):  RWF=    423 Int=      0 D2E=      0 Chk=     15 Scr=      1
 Normal termination of Gaussian 09 at Fri Jul  9 20:16:17 2021.
