 Entering Gaussian System, Link 0=g09
 Initial command:
 /home/minenky/programs//g09/l1.exe "/local/scratch/minenky/m1_00_117440-50-3-C32H18_wB97XD/Gau-185856.inp" -scrdir="/local/scratch/minenky/m1_00_117440-50-3-C32H18_wB97XD/"
 Entering Link 1 = /home/minenky/programs//g09/l1.exe PID=    185857.
  
 Copyright (c) 1988,1990,1992,1993,1995,1998,2003,2009,2013,
            Gaussian, Inc.  All Rights Reserved.
  
 This is part of the Gaussian(R) 09 program.  It is based on
 the Gaussian(R) 03 system (copyright 2003, Gaussian, Inc.),
 the Gaussian(R) 98 system (copyright 1998, Gaussian, Inc.),
 the Gaussian(R) 94 system (copyright 1995, Gaussian, Inc.),
 the Gaussian 92(TM) system (copyright 1992, Gaussian, Inc.),
 the Gaussian 90(TM) system (copyright 1990, Gaussian, Inc.),
 the Gaussian 88(TM) system (copyright 1988, Gaussian, Inc.),
 the Gaussian 86(TM) system (copyright 1986, Carnegie Mellon
 University), and the Gaussian 82(TM) system (copyright 1983,
 Carnegie Mellon University). Gaussian is a federally registered
 trademark of Gaussian, Inc.
  
 This software contains proprietary and confidential information,
 including trade secrets, belonging to Gaussian, Inc.
  
 This software is provided under written license and may be
 used, copied, transmitted, or stored only in accord with that
 written license.
  
 The following legend is applicable only to US Government
 contracts under FAR:
  
                    RESTRICTED RIGHTS LEGEND
  
 Use, reproduction and disclosure by the US Government is
 subject to restrictions as set forth in subparagraphs (a)
 and (c) of the Commercial Computer Software - Restricted
 Rights clause in FAR 52.227-19.
  
 Gaussian, Inc.
 340 Quinnipiac St., Bldg. 40, Wallingford CT 06492
  
  
 ---------------------------------------------------------------
 Warning -- This program may not be used in any manner that
 competes with the business of Gaussian, Inc. or will provide
 assistance to any competitor of Gaussian, Inc.  The licensee
 of this program is prohibited from giving any competitor of
 Gaussian, Inc. access to this program.  By using this program,
 the user acknowledges that Gaussian, Inc. is engaged in the
 business of creating and licensing software in the field of
 computational chemistry and represents and warrants to the
 licensee that it is not a competitor of Gaussian, Inc. and that
 it will not use this program in any manner prohibited above.
 ---------------------------------------------------------------
  

 Cite this work as:
 Gaussian 09, Revision D.01,
 M. J. Frisch, G. W. Trucks, H. B. Schlegel, G. E. Scuseria, 
 M. A. Robb, J. R. Cheeseman, G. Scalmani, V. Barone, B. Mennucci, 
 G. A. Petersson, H. Nakatsuji, M. Caricato, X. Li, H. P. Hratchian, 
 A. F. Izmaylov, J. Bloino, G. Zheng, J. L. Sonnenberg, M. Hada, 
 M. Ehara, K. Toyota, R. Fukuda, J. Hasegawa, M. Ishida, T. Nakajima, 
 Y. Honda, O. Kitao, H. Nakai, T. Vreven, J. A. Montgomery, Jr., 
 J. E. Peralta, F. Ogliaro, M. Bearpark, J. J. Heyd, E. Brothers, 
 K. N. Kudin, V. N. Staroverov, T. Keith, R. Kobayashi, J. Normand, 
 K. Raghavachari, A. Rendell, J. C. Burant, S. S. Iyengar, J. Tomasi, 
 M. Cossi, N. Rega, J. M. Millam, M. Klene, J. E. Knox, J. B. Cross, 
 V. Bakken, C. Adamo, J. Jaramillo, R. Gomperts, R. E. Stratmann, 
 O. Yazyev, A. J. Austin, R. Cammi, C. Pomelli, J. W. Ochterski, 
 R. L. Martin, K. Morokuma, V. G. Zakrzewski, G. A. Voth, 
 P. Salvador, J. J. Dannenberg, S. Dapprich, A. D. Daniels, 
 O. Farkas, J. B. Foresman, J. V. Ortiz, J. Cioslowski, 
 and D. J. Fox, Gaussian, Inc., Wallingford CT, 2013.
 
 ******************************************
 Gaussian 09:  AM64L-G09RevD.01 24-Apr-2013
                31-Jul-2019 
 ******************************************
 %Mem=32000MB
 %NProcShared=16
 Will use up to   16 processors via shared memory.
 %Chk=m1_00_117440-50-3-C32H18_wB97XD
 ----------------------------------------------------------------------
 #P wB97XD/def2tzvp opt=(tight) freq integral(Grid=ultrafine) # SCF(Max
 Cycle=380) 5d 7f GFPrint
 ----------------------------------------------------------------------
 1/7=10,14=-1,18=20,19=15,26=4,38=1/1,3;
 2/9=110,12=2,17=6,18=5,40=1/2;
 3/5=44,7=101,8=11,11=2,16=1,24=100,25=1,30=1,71=1,74=-58,75=-5/1,2,3;
 4//1;
 5/5=2,7=380,38=5/2;
 6/7=2,8=2,9=2,10=2,28=1/1;
 7//1,2,3,16;
 1/7=10,14=-1,18=20,19=15,26=4/3(2);
 2/9=110/2;
 99//99;
 2/9=110/2;
 3/5=44,7=101,8=11,11=2,16=1,25=1,30=1,71=1,74=-58,75=-5/1,2,3;
 4/5=5,16=3,69=1/1;
 5/5=2,7=380,38=5/2;
 7//1,2,3,16;
 1/7=10,14=-1,18=20,19=15,26=4/3(-5);
 2/9=110/2;
 6/7=2,8=2,9=2,10=2,19=2,28=1/1;
 99/9=1/99;
 Leave Link    1 at Wed Jul 31 17:00:28 2019, MaxMem=  4194304000 cpu:         2.0
 (Enter /home/minenky/programs//g09/l101.exe)
 ---------------------------------------
 The PBEPBE optimization and frequencies
 ---------------------------------------
 Symbolic Z-matrix:
 Charge =  0 Multiplicity = 1
 C                     1.2374   -1.43417  -0.64548 
 C                     0.15099  -3.92832  -1.41858 
 C                     1.44091  -3.61164  -1.71483 
 C                     1.99649  -2.37288  -1.29852 
 C                    -0.17214  -1.67963  -0.48332 
 C                    -1.03772  -0.65925  -0.04669 
 C                    -1.99939  -3.28377  -0.40231 
 C                    -0.68719  -2.97382  -0.76016 
 C                     1.77419  -0.18675  -0.09675 
 C                     2.71367   2.39853   0.55262 
 C                     0.86158   0.90181   0.00143 
 C                     1.35617   2.21536   0.22916 
 C                     0.4892    3.32012   0.10971 
 C                    -0.54155   0.71092  -0.15552 
 C                     3.56572   1.31064   0.6411 
 C                     3.10602  -0.00332   0.30615 
 C                     4.05407  -1.07591   0.44011 
 C                     5.33086  -0.85889   0.84628 
 C                     5.78625   0.45932   1.14615 
 C                     4.93158   1.507     1.04826 
 C                    -1.34897   1.81708  -0.45528 
 C                    -0.82206   3.13715  -0.29522 
 C                    -1.66925   4.27087  -0.5529 
 C                    -2.93347   4.10152  -1.01306 
 C                    -3.43879   2.78783  -1.25252 
 C                    -2.68212   1.69435  -0.97999 
 C                    -2.7771   -2.34731   0.28517 
 C                    -2.29583  -1.02338   0.48484 
 C                    -3.08589  -0.13715   1.28534 
 C                    -4.28652  -0.52847   1.79419 
 C                    -4.79645  -1.8291    1.52708 
 C                    -4.06411  -2.71276   0.79687 
 H                    -0.27087  -4.90489  -1.68093 
 H                     2.08305  -4.31879  -2.2504 
 H                     3.06655  -2.19864  -1.47722 
 H                    -2.41003  -4.2749   -0.63065 
 H                     3.08891   3.41215   0.74181 
 H                     0.87227   4.32883   0.30801 
 H                     3.72381  -2.09904   0.21187 
 H                     6.032    -1.69299   0.95502 
 H                     6.82574   0.60187   1.45819 
 H                     5.25933   2.52675   1.28139 
 H                    -1.259     5.27224  -0.37908 
 H                    -3.58024   4.96027  -1.21955 
 H                    -4.44714   2.68171  -1.66593 
 H                    -2.69144   0.86585   1.49402 
 H                    -3.06914   0.68627  -1.17855 
 H                    -4.87518   0.15127   2.41899 
 H                    -5.77659  -2.10656   1.92815 
 H                    -4.43587  -3.72437   0.59769 
 
 NAtoms=     50 NQM=       50 NQMF=       0 NMMI=      0 NMMIF=      0
                NMic=       0 NMicF=      0.
                    Isotopes and Nuclear Properties:
 (Nuclear quadrupole moments (NQMom) in fm**2, nuclear magnetic moments (NMagM)
  in nuclear magnetons)

  Atom         1           2           3           4           5           6           7           8           9          10
 IAtWgt=          12          12          12          12          12          12          12          12          12          12
 AtmWgt=  12.0000000  12.0000000  12.0000000  12.0000000  12.0000000  12.0000000  12.0000000  12.0000000  12.0000000  12.0000000
 NucSpn=           0           0           0           0           0           0           0           0           0           0
 AtZEff=   0.0000000   0.0000000   0.0000000   0.0000000   0.0000000   0.0000000   0.0000000   0.0000000   0.0000000   0.0000000
 NQMom=    0.0000000   0.0000000   0.0000000   0.0000000   0.0000000   0.0000000   0.0000000   0.0000000   0.0000000   0.0000000
 NMagM=    0.0000000   0.0000000   0.0000000   0.0000000   0.0000000   0.0000000   0.0000000   0.0000000   0.0000000   0.0000000
 AtZNuc=   6.0000000   6.0000000   6.0000000   6.0000000   6.0000000   6.0000000   6.0000000   6.0000000   6.0000000   6.0000000

  Atom        11          12          13          14          15          16          17          18          19          20
 IAtWgt=          12          12          12          12          12          12          12          12          12          12
 AtmWgt=  12.0000000  12.0000000  12.0000000  12.0000000  12.0000000  12.0000000  12.0000000  12.0000000  12.0000000  12.0000000
 NucSpn=           0           0           0           0           0           0           0           0           0           0
 AtZEff=   0.0000000   0.0000000   0.0000000   0.0000000   0.0000000   0.0000000   0.0000000   0.0000000   0.0000000   0.0000000
 NQMom=    0.0000000   0.0000000   0.0000000   0.0000000   0.0000000   0.0000000   0.0000000   0.0000000   0.0000000   0.0000000
 NMagM=    0.0000000   0.0000000   0.0000000   0.0000000   0.0000000   0.0000000   0.0000000   0.0000000   0.0000000   0.0000000
 AtZNuc=   6.0000000   6.0000000   6.0000000   6.0000000   6.0000000   6.0000000   6.0000000   6.0000000   6.0000000   6.0000000

  Atom        21          22          23          24          25          26          27          28          29          30
 IAtWgt=          12          12          12          12          12          12          12          12          12          12
 AtmWgt=  12.0000000  12.0000000  12.0000000  12.0000000  12.0000000  12.0000000  12.0000000  12.0000000  12.0000000  12.0000000
 NucSpn=           0           0           0           0           0           0           0           0           0           0
 AtZEff=   0.0000000   0.0000000   0.0000000   0.0000000   0.0000000   0.0000000   0.0000000   0.0000000   0.0000000   0.0000000
 NQMom=    0.0000000   0.0000000   0.0000000   0.0000000   0.0000000   0.0000000   0.0000000   0.0000000   0.0000000   0.0000000
 NMagM=    0.0000000   0.0000000   0.0000000   0.0000000   0.0000000   0.0000000   0.0000000   0.0000000   0.0000000   0.0000000
 AtZNuc=   6.0000000   6.0000000   6.0000000   6.0000000   6.0000000   6.0000000   6.0000000   6.0000000   6.0000000   6.0000000

  Atom        31          32          33          34          35          36          37          38          39          40
 IAtWgt=          12          12           1           1           1           1           1           1           1           1
 AtmWgt=  12.0000000  12.0000000   1.0078250   1.0078250   1.0078250   1.0078250   1.0078250   1.0078250   1.0078250   1.0078250
 NucSpn=           0           0           1           1           1           1           1           1           1           1
 AtZEff=   0.0000000   0.0000000   0.0000000   0.0000000   0.0000000   0.0000000   0.0000000   0.0000000   0.0000000   0.0000000
 NQMom=    0.0000000   0.0000000   0.0000000   0.0000000   0.0000000   0.0000000   0.0000000   0.0000000   0.0000000   0.0000000
 NMagM=    0.0000000   0.0000000   2.7928460   2.7928460   2.7928460   2.7928460   2.7928460   2.7928460   2.7928460   2.7928460
 AtZNuc=   6.0000000   6.0000000   1.0000000   1.0000000   1.0000000   1.0000000   1.0000000   1.0000000   1.0000000   1.0000000

  Atom        41          42          43          44          45          46          47          48          49          50
 IAtWgt=           1           1           1           1           1           1           1           1           1           1
 AtmWgt=   1.0078250   1.0078250   1.0078250   1.0078250   1.0078250   1.0078250   1.0078250   1.0078250   1.0078250   1.0078250
 NucSpn=           1           1           1           1           1           1           1           1           1           1
 AtZEff=   0.0000000   0.0000000   0.0000000   0.0000000   0.0000000   0.0000000   0.0000000   0.0000000   0.0000000   0.0000000
 NQMom=    0.0000000   0.0000000   0.0000000   0.0000000   0.0000000   0.0000000   0.0000000   0.0000000   0.0000000   0.0000000
 NMagM=    2.7928460   2.7928460   2.7928460   2.7928460   2.7928460   2.7928460   2.7928460   2.7928460   2.7928460   2.7928460
 AtZNuc=   1.0000000   1.0000000   1.0000000   1.0000000   1.0000000   1.0000000   1.0000000   1.0000000   1.0000000   1.0000000
 Leave Link  101 at Wed Jul 31 17:00:29 2019, MaxMem=  4194304000 cpu:         3.9
 (Enter /home/minenky/programs//g09/l103.exe)

 GradGradGradGradGradGradGradGradGradGradGradGradGradGradGradGradGradGrad
 Berny optimization.
 Initialization pass.
                           ----------------------------
                           !    Initial Parameters    !
                           ! (Angstroms and Degrees)  !
 --------------------------                            --------------------------
 ! Name  Definition              Value          Derivative Info.                !
 --------------------------------------------------------------------------------
 ! R1    R(1,4)                  1.3725         estimate D2E/DX2                !
 ! R2    R(1,5)                  1.4399         estimate D2E/DX2                !
 ! R3    R(1,9)                  1.4647         estimate D2E/DX2                !
 ! R4    R(2,3)                  1.3609         estimate D2E/DX2                !
 ! R5    R(2,8)                  1.4308         estimate D2E/DX2                !
 ! R6    R(2,33)                 1.0957         estimate D2E/DX2                !
 ! R7    R(3,4)                  1.42           estimate D2E/DX2                !
 ! R8    R(3,34)                 1.0951         estimate D2E/DX2                !
 ! R9    R(4,35)                 1.0988         estimate D2E/DX2                !
 ! R10   R(5,6)                  1.4075         estimate D2E/DX2                !
 ! R11   R(5,8)                  1.4202         estimate D2E/DX2                !
 ! R12   R(6,14)                 1.4613         estimate D2E/DX2                !
 ! R13   R(6,28)                 1.4135         estimate D2E/DX2                !
 ! R14   R(7,8)                  1.395          estimate D2E/DX2                !
 ! R15   R(7,27)                 1.398          estimate D2E/DX2                !
 ! R16   R(7,36)                 1.0969         estimate D2E/DX2                !
 ! R17   R(9,11)                 1.4239         estimate D2E/DX2                !
 ! R18   R(9,16)                 1.4035         estimate D2E/DX2                !
 ! R19   R(10,12)                1.4075         estimate D2E/DX2                !
 ! R20   R(10,15)                1.3847         estimate D2E/DX2                !
 ! R21   R(10,37)                1.0973         estimate D2E/DX2                !
 ! R22   R(11,12)                1.4219         estimate D2E/DX2                !
 ! R23   R(11,14)                1.4247         estimate D2E/DX2                !
 ! R24   R(12,13)                1.4094         estimate D2E/DX2                !
 ! R25   R(13,22)                1.3845         estimate D2E/DX2                !
 ! R26   R(13,38)                1.0971         estimate D2E/DX2                !
 ! R27   R(14,21)                1.4019         estimate D2E/DX2                !
 ! R28   R(15,16)                1.4318         estimate D2E/DX2                !
 ! R29   R(15,20)                1.4387         estimate D2E/DX2                !
 ! R30   R(16,17)                1.4378         estimate D2E/DX2                !
 ! R31   R(17,18)                1.3573         estimate D2E/DX2                !
 ! R32   R(17,39)                1.0991         estimate D2E/DX2                !
 ! R33   R(18,19)                1.4265         estimate D2E/DX2                !
 ! R34   R(18,40)                1.0951         estimate D2E/DX2                !
 ! R35   R(19,20)                1.3556         estimate D2E/DX2                !
 ! R36   R(19,41)                1.0946         estimate D2E/DX2                !
 ! R37   R(20,42)                1.0962         estimate D2E/DX2                !
 ! R38   R(21,22)                1.4303         estimate D2E/DX2                !
 ! R39   R(21,26)                1.4379         estimate D2E/DX2                !
 ! R40   R(22,23)                1.4386         estimate D2E/DX2                !
 ! R41   R(23,24)                1.356          estimate D2E/DX2                !
 ! R42   R(23,43)                1.096          estimate D2E/DX2                !
 ! R43   R(24,25)                1.4278         estimate D2E/DX2                !
 ! R44   R(24,44)                1.0947         estimate D2E/DX2                !
 ! R45   R(25,26)                1.3574         estimate D2E/DX2                !
 ! R46   R(25,45)                1.095          estimate D2E/DX2                !
 ! R47   R(26,47)                1.0979         estimate D2E/DX2                !
 ! R48   R(27,28)                1.4228         estimate D2E/DX2                !
 ! R49   R(27,32)                1.4324         estimate D2E/DX2                !
 ! R50   R(28,29)                1.4319         estimate D2E/DX2                !
 ! R51   R(29,30)                1.3615         estimate D2E/DX2                !
 ! R52   R(29,46)                1.0978         estimate D2E/DX2                !
 ! R53   R(30,31)                1.4223         estimate D2E/DX2                !
 ! R54   R(30,48)                1.095          estimate D2E/DX2                !
 ! R55   R(31,32)                1.3603         estimate D2E/DX2                !
 ! R56   R(31,49)                1.0948         estimate D2E/DX2                !
 ! R57   R(32,50)                1.096          estimate D2E/DX2                !
 ! A1    A(4,1,5)              118.5805         estimate D2E/DX2                !
 ! A2    A(4,1,9)              123.9198         estimate D2E/DX2                !
 ! A3    A(5,1,9)              117.4998         estimate D2E/DX2                !
 ! A4    A(3,2,8)              120.0143         estimate D2E/DX2                !
 ! A5    A(3,2,33)             121.3489         estimate D2E/DX2                !
 ! A6    A(8,2,33)             118.6351         estimate D2E/DX2                !
 ! A7    A(2,3,4)              120.6655         estimate D2E/DX2                !
 ! A8    A(2,3,34)             120.797          estimate D2E/DX2                !
 ! A9    A(4,3,34)             118.5078         estimate D2E/DX2                !
 ! A10   A(1,4,3)              121.3136         estimate D2E/DX2                !
 ! A11   A(1,4,35)             120.4995         estimate D2E/DX2                !
 ! A12   A(3,4,35)             118.1424         estimate D2E/DX2                !
 ! A13   A(1,5,6)              120.8878         estimate D2E/DX2                !
 ! A14   A(1,5,8)              119.236          estimate D2E/DX2                !
 ! A15   A(6,5,8)              119.8745         estimate D2E/DX2                !
 ! A16   A(5,6,14)             116.6054         estimate D2E/DX2                !
 ! A17   A(5,6,28)             118.507          estimate D2E/DX2                !
 ! A18   A(14,6,28)            124.8735         estimate D2E/DX2                !
 ! A19   A(8,7,27)             120.0401         estimate D2E/DX2                !
 ! A20   A(8,7,36)             119.9684         estimate D2E/DX2                !
 ! A21   A(27,7,36)            119.9595         estimate D2E/DX2                !
 ! A22   A(2,8,5)              119.0253         estimate D2E/DX2                !
 ! A23   A(2,8,7)              121.3912         estimate D2E/DX2                !
 ! A24   A(5,8,7)              119.5784         estimate D2E/DX2                !
 ! A25   A(1,9,11)             116.2337         estimate D2E/DX2                !
 ! A26   A(1,9,16)             124.5159         estimate D2E/DX2                !
 ! A27   A(11,9,16)            119.2422         estimate D2E/DX2                !
 ! A28   A(12,10,15)           120.393          estimate D2E/DX2                !
 ! A29   A(12,10,37)           119.3189         estimate D2E/DX2                !
 ! A30   A(15,10,37)           120.2864         estimate D2E/DX2                !
 ! A31   A(9,11,12)            119.6257         estimate D2E/DX2                !
 ! A32   A(9,11,14)            121.4117         estimate D2E/DX2                !
 ! A33   A(12,11,14)           118.9454         estimate D2E/DX2                !
 ! A34   A(10,12,11)           119.5057         estimate D2E/DX2                !
 ! A35   A(10,12,13)           120.714          estimate D2E/DX2                !
 ! A36   A(11,12,13)           119.7735         estimate D2E/DX2                !
 ! A37   A(12,13,22)           120.2507         estimate D2E/DX2                !
 ! A38   A(12,13,38)           119.3807         estimate D2E/DX2                !
 ! A39   A(22,13,38)           120.3371         estimate D2E/DX2                !
 ! A40   A(6,14,11)            116.8605         estimate D2E/DX2                !
 ! A41   A(6,14,21)            124.0698         estimate D2E/DX2                !
 ! A42   A(11,14,21)           119.015          estimate D2E/DX2                !
 ! A43   A(10,15,16)           120.5635         estimate D2E/DX2                !
 ! A44   A(10,15,20)           119.672          estimate D2E/DX2                !
 ! A45   A(16,15,20)           119.7535         estimate D2E/DX2                !
 ! A46   A(9,16,15)            119.4576         estimate D2E/DX2                !
 ! A47   A(9,16,17)            123.709          estimate D2E/DX2                !
 ! A48   A(15,16,17)           116.8148         estimate D2E/DX2                !
 ! A49   A(16,17,18)           121.93           estimate D2E/DX2                !
 ! A50   A(16,17,39)           118.4883         estimate D2E/DX2                !
 ! A51   A(18,17,39)           119.5801         estimate D2E/DX2                !
 ! A52   A(17,18,19)           120.7265         estimate D2E/DX2                !
 ! A53   A(17,18,40)           120.6797         estimate D2E/DX2                !
 ! A54   A(19,18,40)           118.5932         estimate D2E/DX2                !
 ! A55   A(18,19,20)           119.8497         estimate D2E/DX2                !
 ! A56   A(18,19,41)           118.908          estimate D2E/DX2                !
 ! A57   A(20,19,41)           121.2414         estimate D2E/DX2                !
 ! A58   A(15,20,19)           120.897          estimate D2E/DX2                !
 ! A59   A(15,20,42)           118.099          estimate D2E/DX2                !
 ! A60   A(19,20,42)           121.0034         estimate D2E/DX2                !
 ! A61   A(14,21,22)           119.4799         estimate D2E/DX2                !
 ! A62   A(14,21,26)           123.0003         estimate D2E/DX2                !
 ! A63   A(22,21,26)           117.461          estimate D2E/DX2                !
 ! A64   A(13,22,21)           120.2381         estimate D2E/DX2                !
 ! A65   A(13,22,23)           120.3975         estimate D2E/DX2                !
 ! A66   A(21,22,23)           119.3637         estimate D2E/DX2                !
 ! A67   A(22,23,24)           120.7589         estimate D2E/DX2                !
 ! A68   A(22,23,43)           118.1117         estimate D2E/DX2                !
 ! A69   A(24,23,43)           121.1248         estimate D2E/DX2                !
 ! A70   A(23,24,25)           120.1196         estimate D2E/DX2                !
 ! A71   A(23,24,44)           121.1228         estimate D2E/DX2                !
 ! A72   A(25,24,44)           118.7533         estimate D2E/DX2                !
 ! A73   A(24,25,26)           120.6801         estimate D2E/DX2                !
 ! A74   A(24,25,45)           118.5829         estimate D2E/DX2                !
 ! A75   A(26,25,45)           120.7361         estimate D2E/DX2                !
 ! A76   A(21,26,25)           121.4215         estimate D2E/DX2                !
 ! A77   A(21,26,47)           118.1105         estimate D2E/DX2                !
 ! A78   A(25,26,47)           120.4534         estimate D2E/DX2                !
 ! A79   A(7,27,28)            120.275          estimate D2E/DX2                !
 ! A80   A(7,27,32)            120.3051         estimate D2E/DX2                !
 ! A81   A(28,27,32)           119.4198         estimate D2E/DX2                !
 ! A82   A(6,28,27)            119.2107         estimate D2E/DX2                !
 ! A83   A(6,28,29)            122.8115         estimate D2E/DX2                !
 ! A84   A(27,28,29)           117.8872         estimate D2E/DX2                !
 ! A85   A(28,29,30)           121.1727         estimate D2E/DX2                !
 ! A86   A(28,29,46)           118.261          estimate D2E/DX2                !
 ! A87   A(30,29,46)           120.5592         estimate D2E/DX2                !
 ! A88   A(29,30,31)           120.5847         estimate D2E/DX2                !
 ! A89   A(29,30,48)           120.5929         estimate D2E/DX2                !
 ! A90   A(31,30,48)           118.8221         estimate D2E/DX2                !
 ! A91   A(30,31,32)           120.121          estimate D2E/DX2                !
 ! A92   A(30,31,49)           118.943          estimate D2E/DX2                !
 ! A93   A(32,31,49)           120.9317         estimate D2E/DX2                !
 ! A94   A(27,32,31)           120.6469         estimate D2E/DX2                !
 ! A95   A(27,32,50)           118.3811         estimate D2E/DX2                !
 ! A96   A(31,32,50)           120.9662         estimate D2E/DX2                !
 ! D1    D(5,1,4,3)             -5.0616         estimate D2E/DX2                !
 ! D2    D(5,1,4,35)           177.4091         estimate D2E/DX2                !
 ! D3    D(9,1,4,3)            174.9019         estimate D2E/DX2                !
 ! D4    D(9,1,4,35)            -2.6273         estimate D2E/DX2                !
 ! D5    D(4,1,5,6)           -168.3005         estimate D2E/DX2                !
 ! D6    D(4,1,5,8)             12.1633         estimate D2E/DX2                !
 ! D7    D(9,1,5,6)             11.7337         estimate D2E/DX2                !
 ! D8    D(9,1,5,8)           -167.8025         estimate D2E/DX2                !
 ! D9    D(4,1,9,11)           153.0414         estimate D2E/DX2                !
 ! D10   D(4,1,9,16)           -25.9025         estimate D2E/DX2                !
 ! D11   D(5,1,9,11)           -26.9947         estimate D2E/DX2                !
 ! D12   D(5,1,9,16)           154.0614         estimate D2E/DX2                !
 ! D13   D(8,2,3,4)              4.2199         estimate D2E/DX2                !
 ! D14   D(8,2,3,34)          -177.7922         estimate D2E/DX2                !
 ! D15   D(33,2,3,4)          -176.2525         estimate D2E/DX2                !
 ! D16   D(33,2,3,34)            1.7354         estimate D2E/DX2                !
 ! D17   D(3,2,8,5)              3.0235         estimate D2E/DX2                !
 ! D18   D(3,2,8,7)           -177.7968         estimate D2E/DX2                !
 ! D19   D(33,2,8,5)          -176.5169         estimate D2E/DX2                !
 ! D20   D(33,2,8,7)             2.6629         estimate D2E/DX2                !
 ! D21   D(2,3,4,1)             -3.1953         estimate D2E/DX2                !
 ! D22   D(2,3,4,35)           174.3904         estimate D2E/DX2                !
 ! D23   D(34,3,4,1)           178.7715         estimate D2E/DX2                !
 ! D24   D(34,3,4,35)           -3.6428         estimate D2E/DX2                !
 ! D25   D(1,5,6,14)            17.8172         estimate D2E/DX2                !
 ! D26   D(1,5,6,28)          -160.8861         estimate D2E/DX2                !
 ! D27   D(8,5,6,14)          -162.6496         estimate D2E/DX2                !
 ! D28   D(8,5,6,28)            18.6472         estimate D2E/DX2                !
 ! D29   D(1,5,8,2)            -11.1792         estimate D2E/DX2                !
 ! D30   D(1,5,8,7)            169.6259         estimate D2E/DX2                !
 ! D31   D(6,5,8,2)            169.2798         estimate D2E/DX2                !
 ! D32   D(6,5,8,7)             -9.9151         estimate D2E/DX2                !
 ! D33   D(5,6,14,11)          -31.9666         estimate D2E/DX2                !
 ! D34   D(5,6,14,21)          145.3108         estimate D2E/DX2                !
 ! D35   D(28,6,14,11)         146.6444         estimate D2E/DX2                !
 ! D36   D(28,6,14,21)         -36.0782         estimate D2E/DX2                !
 ! D37   D(5,6,28,27)          -14.3649         estimate D2E/DX2                !
 ! D38   D(5,6,28,29)          162.098          estimate D2E/DX2                !
 ! D39   D(14,6,28,27)         167.0483         estimate D2E/DX2                !
 ! D40   D(14,6,28,29)         -16.4887         estimate D2E/DX2                !
 ! D41   D(27,7,8,2)           177.5784         estimate D2E/DX2                !
 ! D42   D(27,7,8,5)            -3.2463         estimate D2E/DX2                !
 ! D43   D(36,7,8,2)            -0.3662         estimate D2E/DX2                !
 ! D44   D(36,7,8,5)           178.8091         estimate D2E/DX2                !
 ! D45   D(8,7,27,28)            7.4389         estimate D2E/DX2                !
 ! D46   D(8,7,27,32)         -172.4425         estimate D2E/DX2                !
 ! D47   D(36,7,27,28)        -174.6162         estimate D2E/DX2                !
 ! D48   D(36,7,27,32)           5.5023         estimate D2E/DX2                !
 ! D49   D(1,9,11,12)         -165.7404         estimate D2E/DX2                !
 ! D50   D(1,9,11,14)           12.7384         estimate D2E/DX2                !
 ! D51   D(16,9,11,12)          13.2623         estimate D2E/DX2                !
 ! D52   D(16,9,11,14)        -168.2589         estimate D2E/DX2                !
 ! D53   D(1,9,16,15)          170.8068         estimate D2E/DX2                !
 ! D54   D(1,9,16,17)          -10.8175         estimate D2E/DX2                !
 ! D55   D(11,9,16,15)          -8.1076         estimate D2E/DX2                !
 ! D56   D(11,9,16,17)         170.2682         estimate D2E/DX2                !
 ! D57   D(15,10,12,11)          0.3984         estimate D2E/DX2                !
 ! D58   D(15,10,12,13)       -178.6583         estimate D2E/DX2                !
 ! D59   D(37,10,12,11)       -179.1325         estimate D2E/DX2                !
 ! D60   D(37,10,12,13)          1.8109         estimate D2E/DX2                !
 ! D61   D(12,10,15,16)          4.7993         estimate D2E/DX2                !
 ! D62   D(12,10,15,20)       -176.4114         estimate D2E/DX2                !
 ! D63   D(37,10,15,16)       -175.6745         estimate D2E/DX2                !
 ! D64   D(37,10,15,20)          3.1149         estimate D2E/DX2                !
 ! D65   D(9,11,12,10)          -9.437          estimate D2E/DX2                !
 ! D66   D(9,11,12,13)         169.6286         estimate D2E/DX2                !
 ! D67   D(14,11,12,10)        172.0466         estimate D2E/DX2                !
 ! D68   D(14,11,12,13)         -8.8878         estimate D2E/DX2                !
 ! D69   D(9,11,14,6)           16.6221         estimate D2E/DX2                !
 ! D70   D(9,11,14,21)        -160.799          estimate D2E/DX2                !
 ! D71   D(12,11,14,6)        -164.889          estimate D2E/DX2                !
 ! D72   D(12,11,14,21)         17.6899         estimate D2E/DX2                !
 ! D73   D(10,12,13,22)        175.707          estimate D2E/DX2                !
 ! D74   D(10,12,13,38)         -2.2595         estimate D2E/DX2                !
 ! D75   D(11,12,13,22)         -3.3472         estimate D2E/DX2                !
 ! D76   D(11,12,13,38)        178.6864         estimate D2E/DX2                !
 ! D77   D(12,13,22,21)          6.8011         estimate D2E/DX2                !
 ! D78   D(12,13,22,23)       -173.491          estimate D2E/DX2                !
 ! D79   D(38,13,22,21)       -175.2521         estimate D2E/DX2                !
 ! D80   D(38,13,22,23)          4.4559         estimate D2E/DX2                !
 ! D81   D(6,14,21,22)         168.417          estimate D2E/DX2                !
 ! D82   D(6,14,21,26)         -14.443          estimate D2E/DX2                !
 ! D83   D(11,14,21,22)        -14.3605         estimate D2E/DX2                !
 ! D84   D(11,14,21,26)        162.7795         estimate D2E/DX2                !
 ! D85   D(10,15,16,9)          -0.892          estimate D2E/DX2                !
 ! D86   D(10,15,16,17)       -179.378          estimate D2E/DX2                !
 ! D87   D(20,15,16,9)        -179.6804         estimate D2E/DX2                !
 ! D88   D(20,15,16,17)          1.8336         estimate D2E/DX2                !
 ! D89   D(10,15,20,19)        179.8503         estimate D2E/DX2                !
 ! D90   D(10,15,20,42)          0.1371         estimate D2E/DX2                !
 ! D91   D(16,15,20,19)         -1.3504         estimate D2E/DX2                !
 ! D92   D(16,15,20,42)        178.9364         estimate D2E/DX2                !
 ! D93   D(9,16,17,18)        -179.3021         estimate D2E/DX2                !
 ! D94   D(9,16,17,39)           0.2345         estimate D2E/DX2                !
 ! D95   D(15,16,17,18)         -0.8867         estimate D2E/DX2                !
 ! D96   D(15,16,17,39)        178.6498         estimate D2E/DX2                !
 ! D97   D(16,17,18,19)         -0.6042         estimate D2E/DX2                !
 ! D98   D(16,17,18,40)        179.1191         estimate D2E/DX2                !
 ! D99   D(39,17,18,19)        179.8642         estimate D2E/DX2                !
 ! D100  D(39,17,18,40)         -0.4125         estimate D2E/DX2                !
 ! D101  D(17,18,19,20)          1.1587         estimate D2E/DX2                !
 ! D102  D(17,18,19,41)       -179.1818         estimate D2E/DX2                !
 ! D103  D(40,18,19,20)       -178.5703         estimate D2E/DX2                !
 ! D104  D(40,18,19,41)          1.0892         estimate D2E/DX2                !
 ! D105  D(18,19,20,15)         -0.1675         estimate D2E/DX2                !
 ! D106  D(18,19,20,42)        179.5373         estimate D2E/DX2                !
 ! D107  D(41,19,20,15)       -179.8189         estimate D2E/DX2                !
 ! D108  D(41,19,20,42)         -0.114          estimate D2E/DX2                !
 ! D109  D(14,21,22,13)          2.1452         estimate D2E/DX2                !
 ! D110  D(14,21,22,23)       -177.5657         estimate D2E/DX2                !
 ! D111  D(26,21,22,13)       -175.1517         estimate D2E/DX2                !
 ! D112  D(26,21,22,23)          5.1374         estimate D2E/DX2                !
 ! D113  D(14,21,26,25)        179.6537         estimate D2E/DX2                !
 ! D114  D(14,21,26,47)         -1.7294         estimate D2E/DX2                !
 ! D115  D(22,21,26,25)         -3.1522         estimate D2E/DX2                !
 ! D116  D(22,21,26,47)        175.4647         estimate D2E/DX2                !
 ! D117  D(13,22,23,24)        176.7199         estimate D2E/DX2                !
 ! D118  D(13,22,23,43)         -2.5017         estimate D2E/DX2                !
 ! D119  D(21,22,23,24)         -3.5697         estimate D2E/DX2                !
 ! D120  D(21,22,23,43)        177.2088         estimate D2E/DX2                !
 ! D121  D(22,23,24,25)         -0.2133         estimate D2E/DX2                !
 ! D122  D(22,23,24,44)       -179.4542         estimate D2E/DX2                !
 ! D123  D(43,23,24,25)        178.9846         estimate D2E/DX2                !
 ! D124  D(43,23,24,44)         -0.2563         estimate D2E/DX2                !
 ! D125  D(23,24,25,26)          2.3256         estimate D2E/DX2                !
 ! D126  D(23,24,25,45)       -177.3264         estimate D2E/DX2                !
 ! D127  D(44,24,25,26)       -178.4156         estimate D2E/DX2                !
 ! D128  D(44,24,25,45)          1.9323         estimate D2E/DX2                !
 ! D129  D(24,25,26,21)         -0.5659         estimate D2E/DX2                !
 ! D130  D(24,25,26,47)       -179.1508         estimate D2E/DX2                !
 ! D131  D(45,25,26,21)        179.0786         estimate D2E/DX2                !
 ! D132  D(45,25,26,47)          0.4938         estimate D2E/DX2                !
 ! D133  D(7,27,28,6)            1.46           estimate D2E/DX2                !
 ! D134  D(7,27,28,29)        -175.1769         estimate D2E/DX2                !
 ! D135  D(32,27,28,6)        -178.6575         estimate D2E/DX2                !
 ! D136  D(32,27,28,29)          4.7056         estimate D2E/DX2                !
 ! D137  D(7,27,32,31)         176.5291         estimate D2E/DX2                !
 ! D138  D(7,27,32,50)          -2.604          estimate D2E/DX2                !
 ! D139  D(28,27,32,31)         -3.3534         estimate D2E/DX2                !
 ! D140  D(28,27,32,50)        177.5135         estimate D2E/DX2                !
 ! D141  D(6,28,29,30)        -179.1905         estimate D2E/DX2                !
 ! D142  D(6,28,29,46)          -0.1586         estimate D2E/DX2                !
 ! D143  D(27,28,29,30)         -2.6833         estimate D2E/DX2                !
 ! D144  D(27,28,29,46)        176.3486         estimate D2E/DX2                !
 ! D145  D(28,29,30,31)         -0.8229         estimate D2E/DX2                !
 ! D146  D(28,29,30,48)        178.9768         estimate D2E/DX2                !
 ! D147  D(46,29,30,31)       -179.8327         estimate D2E/DX2                !
 ! D148  D(46,29,30,48)         -0.033          estimate D2E/DX2                !
 ! D149  D(29,30,31,32)          2.3183         estimate D2E/DX2                !
 ! D150  D(29,30,31,49)       -178.4249         estimate D2E/DX2                !
 ! D151  D(48,30,31,32)       -177.485          estimate D2E/DX2                !
 ! D152  D(48,30,31,49)          1.7718         estimate D2E/DX2                !
 ! D153  D(30,31,32,27)         -0.1944         estimate D2E/DX2                !
 ! D154  D(30,31,32,50)        178.9161         estimate D2E/DX2                !
 ! D155  D(49,31,32,27)       -179.4362         estimate D2E/DX2                !
 ! D156  D(49,31,32,50)         -0.3257         estimate D2E/DX2                !
 --------------------------------------------------------------------------------
 Trust Radius=3.00D-01 FncErr=1.00D-07 GrdErr=1.00D-06
 Number of steps in this run=    300 maximum allowed number of steps=    300.
 GradGradGradGradGradGradGradGradGradGradGradGradGradGradGradGradGradGrad

 Leave Link  103 at Wed Jul 31 17:00:29 2019, MaxMem=  4194304000 cpu:         0.1
 (Enter /home/minenky/programs//g09/l202.exe)
                          Input orientation:                          
 ---------------------------------------------------------------------
 Center     Atomic      Atomic             Coordinates (Angstroms)
 Number     Number       Type             X           Y           Z
 ---------------------------------------------------------------------
      1          6           0        1.237395   -1.434174   -0.645477
      2          6           0        0.150994   -3.928323   -1.418576
      3          6           0        1.440915   -3.611638   -1.714831
      4          6           0        1.996489   -2.372878   -1.298523
      5          6           0       -0.172143   -1.679628   -0.483319
      6          6           0       -1.037716   -0.659248   -0.046692
      7          6           0       -1.999388   -3.283766   -0.402310
      8          6           0       -0.687186   -2.973823   -0.760158
      9          6           0        1.774187   -0.186746   -0.096746
     10          6           0        2.713674    2.398532    0.552624
     11          6           0        0.861576    0.901812    0.001428
     12          6           0        1.356166    2.215357    0.229157
     13          6           0        0.489199    3.320123    0.109714
     14          6           0       -0.541553    0.710916   -0.155519
     15          6           0        3.565722    1.310641    0.641100
     16          6           0        3.106016   -0.003319    0.306147
     17          6           0        4.054066   -1.075906    0.440106
     18          6           0        5.330861   -0.858894    0.846279
     19          6           0        5.786246    0.459317    1.146145
     20          6           0        4.931577    1.507000    1.048259
     21          6           0       -1.348972    1.817084   -0.455281
     22          6           0       -0.822063    3.137149   -0.295225
     23          6           0       -1.669250    4.270865   -0.552902
     24          6           0       -2.933466    4.101518   -1.013060
     25          6           0       -3.438790    2.787828   -1.252518
     26          6           0       -2.682117    1.694354   -0.979985
     27          6           0       -2.777103   -2.347308    0.285172
     28          6           0       -2.295834   -1.023383    0.484838
     29          6           0       -3.085893   -0.137151    1.285339
     30          6           0       -4.286518   -0.528474    1.794191
     31          6           0       -4.796445   -1.829102    1.527084
     32          6           0       -4.064110   -2.712764    0.796874
     33          1           0       -0.270873   -4.904885   -1.680928
     34          1           0        2.083047   -4.318792   -2.250395
     35          1           0        3.066553   -2.198639   -1.477223
     36          1           0       -2.410028   -4.274896   -0.630654
     37          1           0        3.088905    3.412149    0.741806
     38          1           0        0.872274    4.328826    0.308006
     39          1           0        3.723814   -2.099038    0.211869
     40          1           0        6.032004   -1.692988    0.955023
     41          1           0        6.825738    0.601867    1.458189
     42          1           0        5.259330    2.526753    1.281389
     43          1           0       -1.258999    5.272238   -0.379076
     44          1           0       -3.580245    4.960274   -1.219548
     45          1           0       -4.447141    2.681708   -1.665934
     46          1           0       -2.691443    0.865854    1.494020
     47          1           0       -3.069136    0.686271   -1.178554
     48          1           0       -4.875180    0.151270    2.418985
     49          1           0       -5.776586   -2.106565    1.928149
     50          1           0       -4.435874   -3.724367    0.597689
 ---------------------------------------------------------------------
                    Distance matrix (angstroms):
                    1          2          3          4          5
     1  C    0.000000
     2  C    2.828202   0.000000
     3  C    2.434397   1.360864   0.000000
     4  C    1.372537   2.416542   1.420036   0.000000
     5  C    1.439910   2.456777   2.802006   2.418288   0.000000
     6  C    2.476931   3.739245   4.200346   3.702704   1.407493
     7  C    3.735891   2.464223   3.696741   4.195229   2.432827
     8  C    2.467323   1.430780   2.418062   2.802336   1.420158
     9  C    1.464695   4.287353   3.802520   2.504568   2.483211
    10  C    4.278374   7.105072   6.548543   5.167926   5.102206
    11  C    2.452868   5.084442   4.863375   3.701554   2.822656
    12  C    3.754753   6.473969   6.143301   4.878086   4.244321
    13  C    4.871699   7.415526   7.230770   6.055189   5.078048
    14  C    2.829510   4.857723   5.004609   4.154263   2.441028
    15  C    3.822355   6.584025   5.856112   4.448926   4.917079
    16  C    2.538637   5.206965   4.458350   3.069336   3.765580
    17  C    3.039816   5.179280   4.231105   2.989747   4.367840
    18  C    4.394627   6.432883   5.410043   4.243861   5.720532
    19  C    5.242830   7.588495   6.606040   5.325410   6.537021
    20  C    5.016595   7.647351   6.783792   5.401442   6.208726
    21  C    4.158865   6.015609   6.232252   5.427611   3.689541
    22  C    5.026037   7.220088   7.258270   6.269869   4.864064
    23  C    6.403486   8.443303   8.553190   7.624495   6.136329
    24  C    6.940828   8.611428   8.894969   8.142712   6.428623
    25  C    6.329337   7.617140   8.060919   7.495150   5.587559
    26  C    5.026148   6.311370   6.759656   6.207512   4.234431
    27  C    4.220914   3.738465   4.836344   5.029506   2.796819
    28  C    3.732301   4.248368   5.049842   4.839995   2.424469
    29  C    4.909292   5.671119   6.447098   6.124168   3.741301
    30  C    6.106217   6.447663   7.390712   7.241746   4.841517
    31  C    6.425202   6.128687   7.252042   7.377243   5.044625
    32  C    5.641022   4.914561   6.117347   6.421610   4.225361
    33  H    3.923374   1.095661   2.145659   3.420267   3.441845
    34  H    3.407625   2.139443   1.095093   2.167979   3.895334
    35  H    2.149890   3.390535   2.166961   1.098785   3.427297
    36  H    4.623161   2.701809   4.055258   4.845732   3.430052
    37  H    5.370241   8.196408   7.621320   6.230798   6.169405
    38  H    5.852744   8.466513   8.213780   6.982666   6.149676
    39  H    2.712815   4.332398   3.348397   2.310827   3.979657
    40  H    5.061310   6.724356   5.646896   4.671841   6.368708
    41  H    6.308760   8.564497   7.537772   6.306363   7.612162
    42  H    5.964706   8.663309   7.825438   6.427166   7.092865
    43  H    7.160930   9.365840   9.380673   8.360107   7.037085
    44  H    8.026716   9.642039   9.946609   9.213106   7.499699
    45  H    7.091951   8.055840   8.618457   8.197817   6.220566
    46  H    5.030244   6.288625   6.886294   6.345423   4.090993
    47  H    4.829770   5.632170   6.253014   5.918898   3.804393
    48  H    7.019127   7.525449   8.434511   8.210422   5.821865
    49  H    7.501439   7.046671   8.223677   8.420394   6.116145
    50  H    6.243111   5.014607   6.316416   6.840866   4.850664
                    6          7          8          9         10
     6  C    0.000000
     7  C    2.817689   0.000000
     8  C    2.447277   1.394989   0.000000
     9  C    2.851765   4.891296   3.777072   0.000000
    10  C    4.876692   7.444015   6.492414   2.826301   0.000000
    11  C    2.458970   5.085979   4.242549   1.423888   2.444228
    12  C    3.751016   6.472932   5.664064   2.459888   1.407484
    13  C    4.265128   7.075774   6.461757   3.740581   2.448221
    14  C    1.461290   4.259539   3.736856   2.484331   3.734436
    15  C    5.054223   7.291621   6.197369   2.448710   1.384674
    16  C    4.210137   6.109697   4.934499   1.403473   2.446134
    17  C    5.131941   6.498354   5.246159   2.505327   3.725726
    18  C    6.433975   7.821223   6.578028   3.740456   4.188882
    19  C    7.017158   8.776360   7.571378   4.249564   3.681511
    20  C    6.443912   8.549495   7.410711   3.761505   2.441225
    21  C    2.529040   5.142424   4.845998   3.728003   4.225996
    22  C    3.810630   6.528837   6.130117   4.222344   3.710234
    23  C    4.996108   7.563341   7.313885   5.651162   4.892630
    24  C    5.214655   7.469133   7.427664   6.433571   6.102599
    25  C    4.370526   6.297538   6.403933   6.112203   6.423620
    26  C    3.019028   5.057817   5.081334   4.917041   5.653257
    27  C    2.446456   1.398008   2.419295   5.052537   7.262449
    28  C    1.413499   2.446271   2.818151   4.195625   6.067064
    29  C    2.498384   3.732270   4.240821   5.053019   6.371933
    30  C    3.736397   4.200859   5.045753   6.358031   7.688402
    31  C    4.239502   3.696233   4.840235   6.964723   8.673197
    32  C    3.753344   2.455028   3.727749   6.423787   8.492547
    33  H    4.613482   2.692704   2.179481   5.380775   8.199767
    34  H    5.290343   4.599236   3.421102   4.669840   7.305960
    35  H    4.610984   5.291190   3.899442   2.761095   5.037737
    36  H    3.911160   1.096862   2.162811   5.874155   8.496300
    37  H    5.850385   8.487344   7.569372   3.922205   1.097272
    38  H    5.353013   8.167163   7.543313   4.622516   2.678922
    39  H    4.981166   5.876720   4.600761   2.748300   4.622190
    40  H    7.214776   8.299168   7.051943   4.637239   5.283349
    41  H    8.104875   9.820512   8.611077   5.343959   4.577896
    42  H    7.181030   9.449125   8.353760   4.626938   2.651020
    43  H    5.944911   8.588010   8.274642   6.251434   4.990829
    44  H    6.278460   8.433930   8.457583   7.511487   7.022572
    45  H    5.040645   6.570778   6.851476   7.028179   7.501963
    46  H    2.726636   4.614581   4.882774   4.855960   5.696544
    47  H    2.686671   4.184270   4.386916   5.038874   6.274528
    48  H    4.632778   5.294276   6.116571   7.117390   8.131678
    49  H    5.334005   4.591739   5.820749   8.049849   9.709401
    50  H    4.621435   2.670317   4.057059   7.180659   9.413180
                   11         12         13         14         15
    11  C    0.000000
    12  C    1.421928   0.000000
    13  C    2.449207   1.409399   0.000000
    14  C    1.424726   2.452072   2.817935   0.000000
    15  C    2.808688   2.422880   3.712868   4.226580   0.000000
    16  C    2.439186   2.826734   4.234570   3.745400   1.431787
    17  C    3.780979   4.260936   5.669436   4.966610   2.444276
    18  C    4.877332   5.062614   6.438043   6.160612   2.804406
    19  C    5.075289   4.852850   6.108773   6.465189   2.431162
    20  C    4.245823   3.735808   4.889070   5.660210   1.438712
    21  C    2.435740   2.818661   2.440741   1.401924   5.060905
    22  C    2.814138   2.422676   1.384508   2.446388   4.844120
    23  C    4.250044   3.740304   2.449872   3.755376   6.131354
    24  C    5.066522   4.847851   3.685897   4.237076   7.263931
    25  C    4.860306   5.051206   4.191433   3.729739   7.404800
    26  C    3.761523   4.247493   3.726635   2.495779   6.466116
    27  C    4.886438   6.156701   6.543645   3.813742   7.330669
    28  C    3.729517   4.887936   5.173313   2.548598   6.311096
    29  C    4.279063   5.136313   5.110393   3.044496   6.837773
    30  C    5.635830   6.466670   6.360552   4.400252   8.146756
    31  C    6.465193   7.476423   7.514086   5.233255   8.976013
    32  C    6.161191   7.347658   7.589501   5.003703   8.627074
    33  H    6.150651   7.549406   8.451915   5.825578   7.664466
    34  H    5.815274   7.026495   8.152514   6.047726   6.499968
    35  H    4.081806   5.031950   6.294272   4.819838   4.129348
    36  H    6.156398   7.552939   8.163209   5.345585   8.277994
    37  H    3.436705   2.167372   2.677028   4.613250   2.157274
    38  H    3.440716   2.169590   1.097063   3.911909   4.058948
    39  H    4.152324   4.921388   6.311931   5.120954   3.440224
    40  H    5.863076   6.137222   7.521204   7.086868   3.899086
    41  H    6.146816   5.833531   7.025598   7.542740   3.434777
    42  H    4.859936   4.054485   4.975581   6.245976   2.181102
    43  H    4.872601   4.068607   2.665683   4.622809   6.325579
    44  H    6.139353   5.831078   4.584474   5.331308   8.236910
    45  H    5.842140   6.122682   5.284690   4.628066   8.450338
    46  H    3.853967   4.450188   4.249261   2.714224   6.330673
    47  H    4.109661   4.889075   4.610700   2.726882   6.908135
    48  H    6.270428   6.919934   6.644616   5.071647   8.703669
    49  H    7.538420   8.511271   8.486206   6.299638  10.030579
    50  H    7.058331   8.304449   8.609257   5.950193   9.454033
                   16         17         18         19         20
    16  C    0.000000
    17  C    1.437772   0.000000
    18  C    2.444113   1.357305   0.000000
    19  C    2.846623   2.419887   1.426526   0.000000
    20  C    2.482834   2.794867   2.407836   1.355610   0.000000
    21  C    4.872428   6.193862   7.312666   7.437704   6.465453
    22  C    5.064977   6.485922   7.424949   7.274482   6.129169
    23  C    6.466048   7.894958   8.790545   8.543950   7.333047
    24  C    7.420602   8.817200   9.816412   9.693358   8.534604
    25  C    7.283846   8.598622   9.726783   9.812076   8.774801
    26  C    6.167553   7.420725   8.605936   8.818102   7.881447
    27  C    6.332915   6.950204   8.262524   9.052589   8.652268
    28  C    5.500222   6.350274   7.637026   8.243527   7.678264
    29  C    6.270284   7.250841   8.459045   8.893256   8.187751
    30  C    7.559075   8.467500   9.669627  10.141808   9.469574
    31  C    8.202016   8.948764  10.196428  10.833990  10.295303
    32  C    7.680665   8.289232   9.576260  10.354400   9.939416
    33  H    6.275125   6.153451   7.357733   8.570630   8.696333
    34  H    5.119149   4.651883   5.666443   6.934011   7.275650
    35  H    2.828675   2.431432   3.510081   4.619906   4.856762
    36  H    7.039227   7.291404   8.589049   9.630613   9.494643
    37  H    3.443183   4.600565   4.824841   4.019745   2.668135
    38  H    4.874124   6.273147   6.861572   6.310522   4.998862
    39  H    2.186916   1.099071   2.126742   3.416385   3.893809
    40  H    3.440556   2.134987   1.095052   2.174705   3.385196
    41  H    3.940785   3.396113   2.177823   1.094639   2.138961
    42  H    3.462532   3.890961   3.414242   2.137808   1.096207
    43  H    6.881452   8.318573   9.083971   8.667525   7.384954
    44  H    8.465877   9.872822  10.841502  10.657686   9.461456
    45  H    8.255220   9.530246  10.698430  10.842925   9.833979
    46  H    5.981390   7.098102   8.231141   8.494557   7.662911
    47  H    6.388457   7.514342   8.777667   9.158250   8.345280
    48  H    8.257570   9.227858  10.375794  10.741556   9.994468
    49  H    9.271199   9.995911  11.229537  11.869893  11.335643
    50  H    8.414945   8.894844  10.181446  11.058742  10.738685
                   21         22         23         24         25
    21  C    0.000000
    22  C    1.430323   0.000000
    23  C    2.476519   1.438553   0.000000
    24  C    2.835556   2.429674   1.355975   0.000000
    25  C    2.438292   2.808148   2.412495   1.427752   0.000000
    26  C    1.437933   2.451602   2.801198   2.420477   1.357392
    27  C    4.464302   5.851351   6.762390   6.580062   5.401105
    28  C    3.138252   4.482246   5.431259   5.377257   4.341668
    29  C    3.140969   4.283007   4.981627   4.824126   3.888541
    30  C    4.380746   5.459386   5.949167   5.581060   4.582459
    31  C    5.395324   6.616659   7.163470   6.715303   5.557469
    32  C    5.427651   6.776801   7.505220   7.140635   5.903181
    33  H    6.917325   8.179139   9.349989   9.415453   8.330491
    34  H    7.256043   8.237319   9.525934   9.879171   9.054860
    35  H    6.055350   6.707391   8.070730   8.712500   8.199685
    36  H    6.186180   7.587659   8.578161   8.401461   7.164296
    37  H    4.865388   4.055457   5.005367   6.310605   6.854043
    38  H    3.438806   2.157489   2.684002   4.034915   4.836856
    39  H    6.443156   6.952683   8.381269   9.179691   8.793678
    40  H    8.293876   8.477711   9.856504  10.854921  10.707328
    41  H    8.483161   8.245665   9.469469  10.658175  10.839137
    42  H    6.869448   6.312023   7.376433   8.652531   9.063450
    43  H    3.457165   2.180951   1.096024   2.139242   3.418578
    44  H    3.929672   3.433034   2.138131   1.094724   2.177296
    45  H    3.436845   3.902238   3.388354   2.175619   1.094964
    46  H    2.550851   3.443074   4.102300   4.100433   3.434528
    47  H    2.181932   3.440409   3.898774   3.421945   2.135101
    48  H    4.844635   5.719280   6.006760   5.581545   4.742846
    49  H    6.378050   7.548988   7.981067   7.434671   6.287846
    50  H    6.430038   7.806237   8.538256   8.129958   6.842962
                   26         27         28         29         30
    26  C    0.000000
    27  C    4.236116   0.000000
    28  C    3.111434   1.422766   0.000000
    29  C    2.940942   2.445502   1.431923   0.000000
    30  C    3.900144   2.804216   2.433550   1.361456   0.000000
    31  C    4.813578   2.426649   2.826397   2.418084   1.422325
    32  C    4.948720   1.432405   2.465396   2.798087   2.411479
    33  H    7.060835   4.085088   4.884370   6.281272   6.881485
    34  H    7.776802   5.825539   6.125015   7.530304   8.443728
    35  H    6.960593   6.105445   5.829760   7.052239   8.219444
    36  H    5.985651   2.165428   3.439433   4.609638   4.841154
    37  H    6.262594   8.233463   6.981073   7.142905   8.428101
    38  H    4.607934   7.608498   6.222083   6.047083   7.239837
    39  H    7.539648   6.506069   6.121086   7.167527   8.314795
    40  H    9.547473   8.858736   8.367934   9.255581  10.417878
    41  H    9.876109  10.113761   9.316218   9.940647  11.174650
    42  H    8.298993   9.451623   8.385610   8.760089  10.035965
    43  H    3.897128   7.797650   6.438650   5.947209   6.894723
    44  H    3.395622   7.503997   6.352857   5.701103   6.301412
    45  H    2.135580   5.646843   4.793918   4.302205   4.722661
    46  H    2.609062   3.434103   2.178113   1.097797   2.139747
    47  H    1.097928   3.380884   2.507546   2.597898   3.434361
    48  H    4.329392   3.898458   3.431292   2.137729   1.094962
    49  H    5.699120   3.428444   3.920722   3.395824   2.174539
    50  H    5.909929   2.178412   3.447872   3.894025   3.415796
                   31         32         33         34         35
    31  C    0.000000
    32  C    1.360287   0.000000
    33  H    6.342917   5.033244   0.000000
    34  H    8.233791   7.046468   2.491733   0.000000
    35  H    8.425507   7.502146   4.301589   2.461732   0.000000
    36  H    4.041377   2.685904   2.464944   4.776318   5.917809
    37  H    9.500849   9.417177   9.291437   8.350596   6.033700
    38  H    8.458168   8.613412   9.514413   9.099048   7.114050
    39  H    8.625397   7.833942   5.235740   3.698942   1.815199
    40  H   10.844404  10.148718   7.549224   5.723969   3.868515
    41  H   11.873900  11.402320   9.515265   7.775577   5.530909
    42  H   10.961408  10.705785   9.725622   8.332093   5.894706
    43  H    8.159412   8.544692  10.307524  10.327582   8.702318
    44  H    7.424201   7.948307  10.415670  10.919550   9.772223
    45  H    5.537580   5.942429   8.660130   9.591243   8.961529
    46  H    3.419784   3.895733   7.017186   7.981037   7.167561
    47  H    4.078134   4.055334   6.272455   7.262540   6.786648
    48  H    2.173375   3.389951   7.973308   9.497446   9.152794
    49  H    1.094766   2.140054   7.153245   9.172132   9.476610
    50  H    2.141452   1.096004   4.892132   7.138715   7.932182
                   36         37         38         39         40
    36  H    0.000000
    37  H    9.550528   0.000000
    38  H    9.256275   2.437608   0.000000
    39  H    6.562638   5.572892   7.032635   0.000000
    40  H    8.969311   5.896584   7.956361   2.458637   0.000000
    41  H   10.651078   4.730202   7.117365   4.297690   2.479828
    42  H   10.427723   2.405373   4.841611   4.989953   4.302296
    43  H    9.619560   4.860101   2.429904   8.917026  10.171180
    44  H    9.327624   7.121879   4.749428  10.258270  11.890751
    45  H    7.322293   7.944983   5.908097   9.651227  11.654178
    46  H    5.569628   6.360964   5.108706   7.182619   9.106960
    47  H    5.034660   7.002833   5.568912   7.472309   9.645920
    48  H    5.913393   8.767720   7.412249   9.158490  11.158456
    49  H    4.752141  10.510021   9.393958   9.654183  11.855834
    50  H    2.432275  10.371737   9.649574   8.328929  10.669146
                   41         42         43         44         45
    41  H    0.000000
    42  H    2.487987   0.000000
    43  H    9.515823   7.265222   0.000000
    44  H   11.595278   9.503409   2.488352   0.000000
    45  H   11.881233  10.145260   4.304776   2.478433   0.000000
    46  H    9.520909   8.125182   4.997659   4.991762   4.045382
    47  H   10.240512   8.877052   4.994682   4.304650   2.473500
    48  H   11.748943  10.471167   6.865145   6.167844   4.824199
    49  H   12.898644  11.986549   8.954250   8.041897   6.132896
    50  H   12.094655  11.555992   9.590907   8.913890   6.794256
                   46         47         48         49         50
    46  H    0.000000
    47  H    2.705098   0.000000
    48  H    2.476873   4.060826   0.000000
    49  H    4.306025   4.978134   2.480175   0.000000
    50  H    4.991652   4.947397   4.304727   2.486949   0.000000
 Stoichiometry    C32H18
 Framework group  C1[X(C32H18)]
 Deg. of freedom   144
 Full point group                 C1      NOp   1
 Largest Abelian subgroup         C1      NOp   1
 Largest concise Abelian subgroup C1      NOp   1
                         Standard orientation:                         
 ---------------------------------------------------------------------
 Center     Atomic      Atomic             Coordinates (Angstroms)
 Number     Number       Type             X           Y           Z
 ---------------------------------------------------------------------
      1          6           0        1.137902   -1.525068   -0.631527
      2          6           0       -0.113453   -3.971554   -1.300516
      3          6           0        1.185022   -3.741709   -1.636798
      4          6           0        1.823310   -2.526617   -1.272599
      5          6           0       -0.279126   -1.680669   -0.428650
      6          6           0       -1.071446   -0.597694   -0.003878
      7          6           0       -2.195462   -3.169292   -0.254567
      8          6           0       -0.876712   -2.949344   -0.652708
      9          6           0        1.761317   -0.296256   -0.134834
     10          6           0        2.868319    2.246272    0.411130
     11          6           0        0.917511    0.847478   -0.049279
     12          6           0        1.494586    2.135223    0.125582
     13          6           0        0.691771    3.285909   -0.007893
     14          6           0       -0.497983    0.736421   -0.167120
     15          6           0        3.656460    1.112394    0.513488
     16          6           0        3.111453   -0.181050    0.230675
     17          6           0        3.997455   -1.304057    0.375742
     18          6           0        5.294742   -1.151945    0.744774
     19          6           0        5.834799    0.144955    0.992496
     20          6           0        5.041425    1.238591    0.882054
     21          6           0       -1.245863    1.879565   -0.482222
     22          6           0       -0.637866    3.169862   -0.375945
     23          6           0       -1.422733    4.344129   -0.648920
     24          6           0       -2.706015    4.237214   -1.073682
     25          6           0       -3.294108    2.949617   -1.260007
     26          6           0       -2.596808    1.821369   -0.971316
     27          6           0       -2.898712   -2.167842    0.421424
     28          6           0       -2.335027   -0.869779    0.568234
     29          6           0       -3.050704    0.085665    1.359017
     30          6           0       -4.259095   -0.217667    1.907965
     31          6           0       -4.851710   -1.492779    1.693712
     32          6           0       -4.191704   -2.440104    0.974444
     33          1           0       -0.598890   -4.928461   -1.522218
     34          1           0        1.770393   -4.501716   -2.164963
     35          1           0        2.896935   -2.422220   -1.481790
     36          1           0       -2.669696   -4.140395   -0.442096
     37          1           0        3.307555    3.240766    0.559658
     38          1           0        1.138775    4.275301    0.149706
     39          1           0        3.601551   -2.311903    0.187429
     40          1           0        5.947825   -2.022947    0.863003
     41          1           0        6.888482    0.234188    1.275383
     42          1           0        5.434759    2.243363    1.075422
     43          1           0       -0.949664    5.323850   -0.516178
     44          1           0       -3.305865    5.126651   -1.291630
     45          1           0       -4.317129    2.891846   -1.646060
     46          1           0       -2.592421    1.069001    1.526909
     47          1           0       -3.047719    0.832823   -1.129118
     48          1           0       -4.790467    0.514446    2.524890
     49          1           0       -5.836068   -1.698931    2.126208
     50          1           0       -4.627615   -3.433095    0.815776
 ---------------------------------------------------------------------
 Rotational constants (GHZ):      0.2031866      0.1330227      0.0896824
 Leave Link  202 at Wed Jul 31 17:00:29 2019, MaxMem=  4194304000 cpu:         0.6
 (Enter /home/minenky/programs//g09/l301.exe)
 Standard basis: def2TZVP (5D, 7F)
 ======================================================================================================
                                       Pseudopotential Parameters
 ======================================================================================================
  Center     Atomic      Valence      Angular      Power
  Number     Number     Electrons     Momentum     of R      Exponent        Coefficient   SO-Coeffient
 ======================================================================================================
    1          6
                                   No pseudopotential on this center.
    2          6
                                   No pseudopotential on this center.
    3          6
                                   No pseudopotential on this center.
    4          6
                                   No pseudopotential on this center.
    5          6
                                   No pseudopotential on this center.
    6          6
                                   No pseudopotential on this center.
    7          6
                                   No pseudopotential on this center.
    8          6
                                   No pseudopotential on this center.
    9          6
                                   No pseudopotential on this center.
   10          6
                                   No pseudopotential on this center.
   11          6
                                   No pseudopotential on this center.
   12          6
                                   No pseudopotential on this center.
   13          6
                                   No pseudopotential on this center.
   14          6
                                   No pseudopotential on this center.
   15          6
                                   No pseudopotential on this center.
   16          6
                                   No pseudopotential on this center.
   17          6
                                   No pseudopotential on this center.
   18          6
                                   No pseudopotential on this center.
   19          6
                                   No pseudopotential on this center.
   20          6
                                   No pseudopotential on this center.
   21          6
                                   No pseudopotential on this center.
   22          6
                                   No pseudopotential on this center.
   23          6
                                   No pseudopotential on this center.
   24          6
                                   No pseudopotential on this center.
   25          6
                                   No pseudopotential on this center.
   26          6
                                   No pseudopotential on this center.
   27          6
                                   No pseudopotential on this center.
   28          6
                                   No pseudopotential on this center.
   29          6
                                   No pseudopotential on this center.
   30          6
                                   No pseudopotential on this center.
   31          6
                                   No pseudopotential on this center.
   32          6
                                   No pseudopotential on this center.
   33          1
                                   No pseudopotential on this center.
   34          1
                                   No pseudopotential on this center.
   35          1
                                   No pseudopotential on this center.
   36          1
                                   No pseudopotential on this center.
   37          1
                                   No pseudopotential on this center.
   38          1
                                   No pseudopotential on this center.
   39          1
                                   No pseudopotential on this center.
   40          1
                                   No pseudopotential on this center.
   41          1
                                   No pseudopotential on this center.
   42          1
                                   No pseudopotential on this center.
   43          1
                                   No pseudopotential on this center.
   44          1
                                   No pseudopotential on this center.
   45          1
                                   No pseudopotential on this center.
   46          1
                                   No pseudopotential on this center.
   47          1
                                   No pseudopotential on this center.
   48          1
                                   No pseudopotential on this center.
   49          1
                                   No pseudopotential on this center.
   50          1
                                   No pseudopotential on this center.
 ======================================================================================================
 Ernie: Thresh=  0.10000D-02 Tol=  0.10000D-05 Strict=F.
 AO basis set (Overlap normalization):
 Atom C1       Shell     1 S   6     bf    1 -     1          2.150323136986         -2.881961542260         -1.193412131010
      0.1357534968D+05  0.6064550360D-03
      0.2035233368D+04  0.4697908888D-02
      0.4632256236D+03  0.2433247765D-01
      0.1312001960D+03  0.9739996831D-01
      0.4285301589D+02  0.3019558425D+00
      0.1558418577D+02  0.6623360914D+00
 Atom C1       Shell     2 S   2     bf    2 -     2          2.150323136986         -2.881961542260         -1.193412131010
      0.6206713851D+01  0.6559530854D+00
      0.2576489653D+01  0.3758563329D+00
 Atom C1       Shell     3 S   1     bf    3 -     3          2.150323136986         -2.881961542260         -1.193412131010
      0.5769633942D+00  0.1000000000D+01
 Atom C1       Shell     4 S   1     bf    4 -     4          2.150323136986         -2.881961542260         -1.193412131010
      0.2297283136D+00  0.1000000000D+01
 Atom C1       Shell     5 S   1     bf    5 -     5          2.150323136986         -2.881961542260         -1.193412131010
      0.9516444003D-01  0.1000000000D+01
 Atom C1       Shell     6 P   4     bf    6 -     8          2.150323136986         -2.881961542260         -1.193412131010
      0.3469723224D+02  0.1132722000D-01
      0.7958262283D+01  0.7616965920D-01
      0.2378082688D+01  0.3019225220D+00
      0.8143320818D+00  0.7278502735D+00
 Atom C1       Shell     7 P   1     bf    9 -    11          2.150323136986         -2.881961542260         -1.193412131010
      0.2888754725D+00  0.1000000000D+01
 Atom C1       Shell     8 P   1     bf   12 -    14          2.150323136986         -2.881961542260         -1.193412131010
      0.1005682367D+00  0.1000000000D+01
 Atom C1       Shell     9 D   1     bf   15 -    19          2.150323136986         -2.881961542260         -1.193412131010
      0.1097000000D+01  0.1000000000D+01
 Atom C1       Shell    10 D   1     bf   20 -    24          2.150323136986         -2.881961542260         -1.193412131010
      0.3180000000D+00  0.1000000000D+01
 Atom C1       Shell    11 F   1     bf   25 -    31          2.150323136986         -2.881961542260         -1.193412131010
      0.7610000000D+00  0.1000000000D+01
 Atom C2       Shell    12 S   6     bf   32 -    32         -0.214394676797         -7.505149177566         -2.457618936592
      0.1357534968D+05  0.6064550360D-03
      0.2035233368D+04  0.4697908888D-02
      0.4632256236D+03  0.2433247765D-01
      0.1312001960D+03  0.9739996831D-01
      0.4285301589D+02  0.3019558425D+00
      0.1558418577D+02  0.6623360914D+00
 Atom C2       Shell    13 S   2     bf   33 -    33         -0.214394676797         -7.505149177566         -2.457618936592
      0.6206713851D+01  0.6559530854D+00
      0.2576489653D+01  0.3758563329D+00
 Atom C2       Shell    14 S   1     bf   34 -    34         -0.214394676797         -7.505149177566         -2.457618936592
      0.5769633942D+00  0.1000000000D+01
 Atom C2       Shell    15 S   1     bf   35 -    35         -0.214394676797         -7.505149177566         -2.457618936592
      0.2297283136D+00  0.1000000000D+01
 Atom C2       Shell    16 S   1     bf   36 -    36         -0.214394676797         -7.505149177566         -2.457618936592
      0.9516444003D-01  0.1000000000D+01
 Atom C2       Shell    17 P   4     bf   37 -    39         -0.214394676797         -7.505149177566         -2.457618936592
      0.3469723224D+02  0.1132722000D-01
      0.7958262283D+01  0.7616965920D-01
      0.2378082688D+01  0.3019225220D+00
      0.8143320818D+00  0.7278502735D+00
 Atom C2       Shell    18 P   1     bf   40 -    42         -0.214394676797         -7.505149177566         -2.457618936592
      0.2888754725D+00  0.1000000000D+01
 Atom C2       Shell    19 P   1     bf   43 -    45         -0.214394676797         -7.505149177566         -2.457618936592
      0.1005682367D+00  0.1000000000D+01
 Atom C2       Shell    20 D   1     bf   46 -    50         -0.214394676797         -7.505149177566         -2.457618936592
      0.1097000000D+01  0.1000000000D+01
 Atom C2       Shell    21 D   1     bf   51 -    55         -0.214394676797         -7.505149177566         -2.457618936592
      0.3180000000D+00  0.1000000000D+01
 Atom C2       Shell    22 F   1     bf   56 -    62         -0.214394676797         -7.505149177566         -2.457618936592
      0.7610000000D+00  0.1000000000D+01
 Atom C3       Shell    23 S   6     bf   63 -    63          2.239367305143         -7.070804978775         -3.093100579424
      0.1357534968D+05  0.6064550360D-03
      0.2035233368D+04  0.4697908888D-02
      0.4632256236D+03  0.2433247765D-01
      0.1312001960D+03  0.9739996831D-01
      0.4285301589D+02  0.3019558425D+00
      0.1558418577D+02  0.6623360914D+00
 Atom C3       Shell    24 S   2     bf   64 -    64          2.239367305143         -7.070804978775         -3.093100579424
      0.6206713851D+01  0.6559530854D+00
      0.2576489653D+01  0.3758563329D+00
 Atom C3       Shell    25 S   1     bf   65 -    65          2.239367305143         -7.070804978775         -3.093100579424
      0.5769633942D+00  0.1000000000D+01
 Atom C3       Shell    26 S   1     bf   66 -    66          2.239367305143         -7.070804978775         -3.093100579424
      0.2297283136D+00  0.1000000000D+01
 Atom C3       Shell    27 S   1     bf   67 -    67          2.239367305143         -7.070804978775         -3.093100579424
      0.9516444003D-01  0.1000000000D+01
 Atom C3       Shell    28 P   4     bf   68 -    70          2.239367305143         -7.070804978775         -3.093100579424
      0.3469723224D+02  0.1132722000D-01
      0.7958262283D+01  0.7616965920D-01
      0.2378082688D+01  0.3019225220D+00
      0.8143320818D+00  0.7278502735D+00
 Atom C3       Shell    29 P   1     bf   71 -    73          2.239367305143         -7.070804978775         -3.093100579424
      0.2888754725D+00  0.1000000000D+01
 Atom C3       Shell    30 P   1     bf   74 -    76          2.239367305143         -7.070804978775         -3.093100579424
      0.1005682367D+00  0.1000000000D+01
 Atom C3       Shell    31 D   1     bf   77 -    81          2.239367305143         -7.070804978775         -3.093100579424
      0.1097000000D+01  0.1000000000D+01
 Atom C3       Shell    32 D   1     bf   82 -    86          2.239367305143         -7.070804978775         -3.093100579424
      0.3180000000D+00  0.1000000000D+01
 Atom C3       Shell    33 F   1     bf   87 -    93          2.239367305143         -7.070804978775         -3.093100579424
      0.7610000000D+00  0.1000000000D+01
 Atom C4       Shell    34 S   6     bf   94 -    94          3.445557433010         -4.774613961471         -2.404862773780
      0.1357534968D+05  0.6064550360D-03
      0.2035233368D+04  0.4697908888D-02
      0.4632256236D+03  0.2433247765D-01
      0.1312001960D+03  0.9739996831D-01
      0.4285301589D+02  0.3019558425D+00
      0.1558418577D+02  0.6623360914D+00
 Atom C4       Shell    35 S   2     bf   95 -    95          3.445557433010         -4.774613961471         -2.404862773780
      0.6206713851D+01  0.6559530854D+00
      0.2576489653D+01  0.3758563329D+00
 Atom C4       Shell    36 S   1     bf   96 -    96          3.445557433010         -4.774613961471         -2.404862773780
      0.5769633942D+00  0.1000000000D+01
 Atom C4       Shell    37 S   1     bf   97 -    97          3.445557433010         -4.774613961471         -2.404862773780
      0.2297283136D+00  0.1000000000D+01
 Atom C4       Shell    38 S   1     bf   98 -    98          3.445557433010         -4.774613961471         -2.404862773780
      0.9516444003D-01  0.1000000000D+01
 Atom C4       Shell    39 P   4     bf   99 -   101          3.445557433010         -4.774613961471         -2.404862773780
      0.3469723224D+02  0.1132722000D-01
      0.7958262283D+01  0.7616965920D-01
      0.2378082688D+01  0.3019225220D+00
      0.8143320818D+00  0.7278502735D+00
 Atom C4       Shell    40 P   1     bf  102 -   104          3.445557433010         -4.774613961471         -2.404862773780
      0.2888754725D+00  0.1000000000D+01
 Atom C4       Shell    41 P   1     bf  105 -   107          3.445557433010         -4.774613961471         -2.404862773780
      0.1005682367D+00  0.1000000000D+01
 Atom C4       Shell    42 D   1     bf  108 -   112          3.445557433010         -4.774613961471         -2.404862773780
      0.1097000000D+01  0.1000000000D+01
 Atom C4       Shell    43 D   1     bf  113 -   117          3.445557433010         -4.774613961471         -2.404862773780
      0.3180000000D+00  0.1000000000D+01
 Atom C4       Shell    44 F   1     bf  118 -   124          3.445557433010         -4.774613961471         -2.404862773780
      0.7610000000D+00  0.1000000000D+01
 Atom C5       Shell    45 S   6     bf  125 -   125         -0.527472288069         -3.176003300829         -0.810030886364
      0.1357534968D+05  0.6064550360D-03
      0.2035233368D+04  0.4697908888D-02
      0.4632256236D+03  0.2433247765D-01
      0.1312001960D+03  0.9739996831D-01
      0.4285301589D+02  0.3019558425D+00
      0.1558418577D+02  0.6623360914D+00
 Atom C5       Shell    46 S   2     bf  126 -   126         -0.527472288069         -3.176003300829         -0.810030886364
      0.6206713851D+01  0.6559530854D+00
      0.2576489653D+01  0.3758563329D+00
[...]
 0950,0.00238215,-0.00033337,-0.00076246,0.00216132,0.00095813,0.000420
 24,0.00005779,0.00002712,-0.00048669,-0.00030486,-0.00063268,0.0000302
 6,0.00013191,-0.00000056,0.00000490,0.00000028,-0.00000531,0.00000738,
 -0.00000220,-0.00000738,0.00000550,-0.00001106,-0.00000186,0.00000371,
 0.00000965,-0.00000233,-0.00000523,0.00000354,-0.00003349,0.00000185,0
 .00009743,0.00000276,-0.00000223,0.00000391,-0.00000193,0.00000163,0.0
 0000035,-0.00000316,-0.00000036,-0.00000052,-0.00000084,-0.00000284,-0
 .00000041,-0.00006119,-0.00004823,-0.00003591,-0.00051858,-0.00089849,
 -0.00023030,0.00024550,0.00086985,0.00009038,-0.00011115,-0.00006826,-
 0.00029279,0.10078700,0.31650268,0.00000159,-0.00013216,-0.00012375,0.
 00005705,0.00006692,-0.00001097,0.00000297,-0.00011512,-0.00007600,-0.
 00000757,0.00012114,0.00004317,0.00005599,0.00029564,0.00009847,-0.000
 80909,-0.00007549,-0.00023189,0.00022648,-0.00002905,-0.00010918,-0.00
 012667,-0.00011599,0.00005401,-0.00020572,0.00014032,0.00008259,-0.000
 12021,0.00007552,-0.00002485,0.00081727,0.00012841,0.00008583,0.000265
 32,-0.00022402,-0.00012580,-0.00040997,-0.00063816,0.00003657,-0.00013
 484,0.00074088,-0.00197941,-0.00000499,-0.00012664,-0.00001928,0.00022
 520,0.00005995,0.00006081,-0.00007082,0.00003643,-0.00001496,0.0000784
 4,0.00001306,0.00001602,-0.00004123,-0.00008001,-0.00001487,-0.0000337
 8,0.00002435,-0.00001094,-0.00111069,-0.01158980,0.00190777,-0.0027450
 0,0.00045665,0.00318182,-0.00058381,0.00056533,-0.00110841,-0.00327502
 ,0.00112962,0.00810822,0.00141285,0.00559894,0.00630499,-0.03082170,-0
 .05624339,-0.05407641,-0.00007989,0.00038782,0.00013711,-0.00095023,0.
 00153321,-0.00092701,0.00009700,0.00077806,-0.00173737,0.00005782,-0.0
 0016264,-0.00000157,0.00007239,0.00017742,0.00000238,-0.00003086,-0.00
 010397,-0.00009734,0.00000104,-0.00001194,-0.00000284,0.00000668,-0.00
 000154,0.00000726,0.00001900,-0.00000927,0.00001145,0.00000812,-0.0000
 3536,-0.00000909,0.00000020,-0.00000587,0.00000228,-0.00026527,-0.0000
 5106,0.00015728,-0.00000362,-0.00000016,0.00000558,-0.00000148,0.00000
 258,0.00000132,0.00000218,0.00000011,0.00000319,-0.00000256,-0.0000001
 8,-0.00000023,0.00033620,-0.00001883,-0.00097066,0.00010901,0.00033725
 ,0.00008436,0.00245289,0.00026834,-0.00487842,-0.00011128,-0.00018786,
 -0.00002271,0.03567422,0.05709726,0.04614281,0.00019070,0.00018073,-0.
 00009285,0.00021760,-0.00010201,-0.00008769,-0.00018944,-0.00015823,-0
 .00003155,-0.00008007,0.00015730,0.00010182,-0.00081439,0.00020919,-0.
 00010189,0.00051025,0.00114225,0.00029097,0.00055416,-0.00008298,-0.00
 056833,-0.00044618,-0.00027775,0.00017606,-0.00000146,0.00001773,0.000
 03545,0.00002200,-0.00002301,-0.00000435,-0.00002056,-0.00006066,-0.00
 001290,-0.00005623,0.00003608,-0.00001834,0.00005923,-0.00001944,0.000
 00814,0.00009829,0.00013175,0.00012508,-0.00000076,0.00001062,-0.00000
 206,-0.00000221,-0.00002027,0.00000244,-0.00000110,0.00000393,-0.00000
 772,-0.00000872,0.00000435,-0.00000212,0.00000521,0.00000900,-0.000001
 79,0.00000457,-0.00000166,0.00000042,0.00004088,0.00008163,-0.00014177
 ,-0.00007226,-0.00007629,-0.00003045,0.00000935,-0.00002072,-0.0000137
 7,-0.00000104,-0.00001684,-0.00002059,0.00005618,-0.00000121,-0.000012
 48,0.00004980,0.00005288,0.00004382,-0.00096460,-0.00009727,-0.0001150
 6,-0.00256160,-0.00434750,0.00518130,-0.00993615,0.01922099,0.01707910
 ,-0.13303935,0.08703401,0.09381321,0.00970629,-0.00783442,-0.00791758,
 0.00075876,-0.00347834,0.00080367,0.00000130,0.00000901,0.00000643,-0.
 00000726,0.00000040,0.00000157,-0.00000877,0.00000677,0.00003175,-0.00
 001808,0.00003407,0.00003942,-0.00000399,-0.00000275,0.00000325,-0.000
 00356,-0.00000535,0.00000879,0.00000371,-0.00000199,0.00000305,-0.0000
 0182,0.00000077,0.00000268,-0.00000282,-0.00000064,-0.00000013,-0.0000
 0121,-0.00000227,0.00000155,-0.00000296,-0.00000604,0.00000467,0.00000
 034,-0.00000714,0.00000824,-0.00000254,0.00000209,0.00001240,-0.000603
 45,0.00083694,-0.00245853,-0.00002360,0.00001093,-0.00002242,0.1360797
 0,-0.00004129,0.00001746,0.00001902,-0.00000957,0.00002775,-0.00001538
 ,0.00001552,0.00002203,0.00001362,0.00002524,0.00000035,-0.00003403,0.
 00007151,-0.00007487,0.00030941,-0.00023508,0.00046284,0.00015549,0.00
 022002,0.00000252,0.00019089,-0.00002270,0.00001712,-0.00002676,-0.000
 01635,-0.00001586,-0.00002079,-0.00002838,0.00000872,-0.00000468,0.000
 01532,-0.00000757,0.00000451,0.00003087,-0.00002181,0.00001362,-0.0000
 4225,0.00000099,-0.00001750,-0.00002270,-0.00006601,-0.00012079,0.0000
 1344,-0.00001800,0.00000064,0.00002292,0.00001197,0.00000261,-0.000008
 65,0.00000539,0.00000586,0.00001268,0.00000621,0.00000377,0.00000284,-
 0.00001257,0.00000160,-0.00001132,0.00000023,-0.00000178,-0.00006409,-
 0.00001991,0.00009700,0.00002101,0.00004379,0.00002681,-0.00001038,0.0
 0000259,-0.00000555,0.00001553,-0.00001442,-0.00000925,0.00002907,-0.0
 0001168,-0.00000086,-0.00002107,0.00000366,-0.00006961,-0.00062745,-0.
 00020113,0.00054045,-0.00352871,0.00125079,-0.00184921,-0.00698459,0.0
 0928941,0.00641565,0.08881094,-0.16544467,-0.11003737,0.01708891,-0.01
 251492,-0.01634516,-0.00409340,-0.00366050,-0.00175045,-0.00000620,0.0
 0000255,0.00000128,0.00000629,-0.00000274,0.00000018,0.00000105,0.0000
 0068,-0.00000134,-0.00003760,0.00005608,0.00002170,0.00000059,0.000002
 10,0.00000010,0.00000081,0.00000238,-0.00000330,-0.00000296,0.00000128
 ,-0.00000336,0.00000172,-0.00000136,-0.00000107,0.00000252,0.00000041,
 0.00000013,0.00000058,0.00000211,-0.00000053,0.00000098,0.00000030,0.0
 0000269,-0.00000087,0.,0.00000601,0.00000364,0.00000119,0.00000707,0.0
 0136485,0.00007808,0.00192849,0.00000245,0.00001509,-0.00000714,-0.092
 98373,0.17111192,0.00016845,-0.00001733,-0.00013250,0.00018904,-0.0000
 5978,-0.00002862,-0.00013996,-0.00014958,-0.00005216,0.00001085,0.0001
 6225,0.00014232,-0.00034510,0.00061595,-0.00055346,0.00085762,-0.00068
 769,-0.00023720,0.00025632,-0.00002299,-0.00070136,-0.00040120,-0.0002
 0837,0.00020440,0.00002225,-0.00002616,0.00000146,0.00006061,-0.000012
 44,0.00000933,-0.00000812,0.00005276,-0.00002197,-0.00006588,0.0000588
 1,-0.00002313,0.00009074,0.00002177,0.00003961,0.00004393,-0.00001172,
 0.00020522,-0.00003613,0.00004167,-0.00000154,-0.00001880,-0.00001456,
 0.00000399,0.00000769,-0.00000441,0.00000164,-0.00000262,-0.00001967,-
 0.00000612,-0.00001270,0.00001479,-0.00000580,0.00002183,-0.00000219,0
 .00000276,0.00016403,0.00008518,-0.00020547,-0.00004044,-0.00014452,-0
 .00006689,-0.00001071,-0.00001554,-0.00000572,-0.00002505,0.00005634,0
 .00002009,-0.00004131,0.00000839,0.00004281,0.00004246,0.00001167,0.00
 008795,-0.00075601,0.00087336,-0.00010586,0.00385044,-0.00113070,0.006
 77646,0.00603800,-0.00811085,-0.00279856,0.09370968,-0.11024067,-0.140
 86939,0.00406951,-0.00119492,-0.00069198,0.00062059,-0.00231069,0.0033
 8891,-0.00000107,0.00000153,-0.00000095,-0.00000186,0.00000121,-0.0000
 0678,0.00000683,-0.00000481,0.00001494,0.00000192,-0.00003174,0.000027
 92,-0.00000031,-0.00000110,0.00000007,-0.00000074,-0.00000336,0.000007
 20,-0.00000455,0.00000186,0.00000129,-0.00000171,0.00000002,0.00000267
 ,0.00000120,0.00000083,0.00000137,-0.00000040,0.00000041,0.00000006,-0
 .00000597,0.00000129,-0.00000196,0.00000238,0.00001103,-0.00001145,-0.
 00001945,0.00001670,-0.00007452,-0.00247508,0.00191663,-0.00335966,0.0
 0002493,-0.00006992,-0.00000138,-0.10503773,0.12005887,0.14029315,0.00
 006346,0.00000342,0.00000379,-0.00001652,-0.00010096,-0.00008920,-0.00
 008439,0.00000172,0.00007248,0.00000917,0.00006852,0.00001465,0.000021
 54,0.00005814,0.00007184,0.00005319,0.00005947,-0.00029944,-0.00047508
 ,-0.00064467,0.00004144,-0.00034575,0.00042887,-0.00016548,-0.00001254
 ,0.00001082,-0.00000210,-0.00000424,0.00000849,-0.00000158,0.00001371,
 -0.00003042,0.00000524,-0.00000019,-0.00002731,0.00000393,-0.00000191,
 -0.00001818,-0.00000653,0.00003900,0.00001214,0.00000921,0.00001200,-0
 .00001288,-0.00000037,0.00000284,0.00000032,0.00000486,-0.00000296,-0.
 00000882,-0.00000605,-0.00001108,0.00001493,-0.00000190,0.00000183,0.0
 0000233,-0.00000108,0.00000013,0.00000869,0.00000095,-0.00003645,-0.00
 003340,0.00003445,-0.00001265,0.00003124,0.00000221,0.00000968,-0.0000
 0833,-0.00000181,-0.00001047,0.00000908,-0.00000706,0.00000196,0.00001
 868,0.00000768,-0.00000744,-0.00000765,0.00001510,0.00208074,0.0015958
 5,0.00478950,0.00022103,0.00014645,-0.00047472,0.00174176,-0.00265564,
 0.00038200,-0.00586978,0.00012847,0.00425663,-0.28377396,-0.07093228,0
 .09620821,-0.01141525,-0.00687598,0.00498390,0.00000345,0.00001249,-0.
 00000056,-0.00001270,-0.00000543,0.00001128,-0.00000749,0.00000120,-0.
 00000021,0.00004830,-0.00000209,0.00011558,-0.00000134,-0.00000269,0.0
 0000106,-0.00000256,-0.00000189,-0.00000106,0.00000350,0.00000200,0.00
 000277,-0.00000286,0.00000259,-0.00000009,-0.00000507,-0.00000077,-0.0
 0000077,-0.00000060,-0.00000360,0.00000105,-0.00000230,-0.00000422,-0.
 00000126,0.00000259,-0.00000776,0.00000121,0.00000343,-0.00000059,0.00
 000168,-0.00039907,0.00003899,0.00024372,-0.00000732,0.00000332,-0.000
 02056,0.00011360,0.00016029,-0.00109762,0.29836408,-0.00015550,0.00003
 206,0.00001062,-0.00004696,0.00010676,0.00011515,0.00012942,0.00009657
 ,-0.00003465,0.00000974,-0.00014540,-0.00004946,0.00009559,-0.00031328
 ,-0.00016701,-0.00032203,0.00008540,0.00049750,0.00033407,0.00081836,0
 .00005766,0.00056615,-0.00026568,0.00003980,0.00000603,0.00000285,0.00
 000060,0.00000134,0.00000890,0.00000218,0.00003120,0.00001117,0.000007
 82,0.00000802,-0.00001335,0.00000114,-0.00001338,-0.00000267,-0.000004
 17,0.00001850,0.00002165,0.00002786,-0.00000304,-0.00000219,-0.0000012
 8,-0.00000761,0.00001128,0.00000335,0.00000191,-0.00000809,-0.00000010
 ,-0.00000577,0.00000003,0.00000002,-0.00000357,0.00000237,-0.00000010,
 0.00000369,0.00000412,0.00000088,-0.00002225,-0.00001288,0.00002447,0.
 00001912,0.00004279,0.00001385,0.00000056,-0.00000524,-0.00000455,0.00
 000124,0.00000332,-0.00000233,-0.00002424,0.00001195,-0.00000548,-0.00
 003109,0.00000269,0.00001517,0.00076061,-0.00183878,-0.00526874,0.0008
 9854,-0.00051011,-0.00037000,-0.00206125,-0.00441855,-0.00325073,-0.02
 602856,-0.00233560,0.01170783,-0.07195221,-0.07741720,0.01981487,0.020
 01102,0.00974792,-0.00782768,-0.00000298,-0.00000309,0.00000488,0.0000
 1063,0.00000890,-0.00001146,0.00000167,-0.00000385,0.00000278,-0.00004
 876,0.00000790,-0.00007948,-0.00000104,-0.00000122,-0.00000062,-0.0000
 0228,-0.00000124,-0.00000163,0.00000027,0.00000088,-0.00000178,-0.0000
 0053,0.00000072,-0.00000102,-0.00000107,0.00000026,-0.00000058,-0.0000
 0008,-0.00000112,-0.00000024,-0.00000036,-0.00000260,0.00000033,-0.000
 00060,-0.00000822,0.00000249,0.00000603,-0.00000557,0.00000941,-0.0011
 7058,-0.00028621,0.00054197,-0.00001127,-0.00000898,-0.00002774,0.0009
 8525,0.00045184,0.00067599,0.07739072,0.07599504,-0.00001664,-0.000016
 48,0.00007888,0.00002928,0.00007613,-0.00002887,0.00005972,-0.00005317
 ,0.00004462,-0.00001675,-0.00000468,-0.00000840,0.00002709,-0.00007009
 ,0.00002314,-0.00028633,0.00024605,-0.00044970,0.00066517,0.00053209,0
 .00005501,-0.00006428,0.00013948,-0.00079755,0.00000985,-0.00000429,-0
 .00001862,0.00000270,0.00000457,-0.00000050,0.00001633,0.00004093,0.00
 001228,0.00001244,-0.00000606,0.00000503,-0.00001829,0.00001674,-0.000
 00478,0.00005644,-0.00005598,-0.00002237,-0.00000859,0.00000390,0.0000
 0158,0.00000094,0.00000228,-0.00000145,0.00000095,0.00000048,0.0000007
 6,0.00000656,-0.00000586,-0.00000271,-0.00000497,-0.00000326,-0.000001
 74,0.00000053,-0.00000134,-0.00000120,-0.00000902,-0.00004760,0.000032
 87,0.00003153,0.00002344,0.00001070,-0.00000196,-0.00000985,-0.0000014
 2,-0.00000886,0.00000262,-0.00000679,-0.00000254,0.00000122,0.00001196
 ,0.00000028,-0.00000250,0.00000810,0.00441898,-0.00509345,0.00588266,-
 0.00024608,-0.00051543,-0.00087212,0.00080189,-0.00284465,0.00328412,-
 0.00697652,-0.00180424,0.00489828,0.09629728,0.01896661,-0.07884454,0.
 01561243,0.00642625,-0.00158997,-0.00000771,-0.00000055,-0.00000973,0.
 00001032,-0.00000206,0.00000423,0.00000044,0.00000689,-0.00001142,0.00
 005782,-0.00011270,0.00018400,0.00000086,0.00000039,-0.00000147,-0.000
 00090,-0.00000038,0.00000125,-0.00000213,0.00000039,0.00000387,0.00000
 005,-0.00000051,0.00000073,0.00000138,0.00000026,0.00000178,-0.0000003
 5,0.00000105,0.00000042,-0.00000167,0.00000024,0.00000146,-0.00000002,
 0.00000397,-0.00000029,-0.00000525,0.00001054,-0.00000945,-0.00032375,
 -0.00011028,0.00015168,0.00002084,-0.00002655,0.00000710,-0.00081801,0
 .00114477,-0.00120378,-0.10692242,-0.01845054,0.07283610,0.00002633,0.
 00010512,0.00003744,-0.00002385,-0.00004371,0.00005860,0.00001491,-0.0
 0002376,-0.00002504,-0.00008424,-0.00002388,0.00001444,0.00009523,-0.0
 0006513,-0.00008172,0.00007983,-0.00148478,-0.00028465,0.00062429,-0.0
 0109557,-0.00189538,0.00010829,0.00040229,-0.00002555,0.00000223,-0.00
 000177,0.00001046,0.00000091,-0.00000720,-0.00000276,0.00001821,-0.000
 10503,0.00001011,-0.00002255,0.00001446,-0.00001254,-0.00000346,-0.000
 00472,0.00000432,-0.00028702,0.00009217,0.00030272,-0.00000080,-0.0000
 0341,0.00000136,0.00000896,0.00000982,0.00001014,-0.00000552,0.0000008
 3,-0.00000580,0.00000003,-0.00000100,-0.00000076,-0.00000397,-0.000000
 78,-0.00000101,0.00000073,0.00000249,-0.00000105,-0.00002207,0.0000113
 0,-0.00007138,0.00000359,-0.00001483,-0.00001649,-0.00000190,-0.000003
 23,-0.00000368,0.00000186,-0.00000284,-0.00000073,0.00001439,-0.000009
 59,-0.00000631,0.00002112,0.00000991,0.00003362,-0.00537339,-0.0260213
 0,-0.00600544,-0.00359440,-0.00082781,0.00347374,-0.00118900,0.0007410
 3,0.00032517,0.00027752,0.00116882,0.00511313,0.01042492,0.01713883,0.
 00363690,-0.08875137,-0.09106023,-0.00994737,-0.00001962,0.00002209,0.
 00002452,-0.00000280,0.00000653,-0.00000472,0.00000116,0.00000908,0.00
 000238,-0.00035498,0.00086322,0.00065216,-0.00000298,-0.00000154,-0.00
 000730,-0.00000172,-0.00000254,0.00000510,0.00000213,-0.00000279,0.000
 00438,-0.00000186,0.00000071,0.00000022,-0.00000113,-0.00000042,0.0000
 0020,-0.00000022,-0.00000069,-0.00000002,-0.00000010,-0.00000265,0.000
 00127,0.00000048,-0.00000216,0.00000140,0.00000156,-0.00000053,0.00000
 439,-0.00014179,0.00008779,-0.00043773,-0.00001038,-0.00000022,0.00000
 937,0.00039430,0.00085773,0.00028925,-0.00028898,0.00062569,-0.0023990
 7,0.08806711,0.00010231,0.00004661,-0.00000558,0.00006545,-0.00009884,
 -0.00011455,-0.00011543,-0.00008263,0.00000206,-0.00006035,0.00009422,
 0.00003717,0.00000952,0.00022004,0.00010534,0.00042228,-0.00040914,-0.
 00026661,0.00205251,0.00060465,0.00035160,-0.00037284,0.00016544,0.000
 21207,-0.00000385,0.00001599,0.00001085,0.00000041,-0.00000661,-0.0000
 0114,0.00001227,-0.00008155,0.00000356,-0.00001971,0.00000305,-0.00000
 807,0.00000478,-0.00000220,-0.00000064,-0.00015921,0.00005215,-0.00003
 611,0.00000439,-0.00000581,-0.00000156,0.00000821,-0.00000361,0.000005
 33,-0.00000456,0.00000168,-0.00000669,-0.00000542,0.00000397,0.0000009
 3,-0.00000010,0.00000175,-0.00000078,0.00000050,0.00000359,0.00000148,
 -0.00001404,0.00002520,0.00001105,-0.00001123,-0.00000088,0.00001167,0
 .00000896,-0.00000586,0.00000122,-0.00000750,0.00000403,-0.00000112,-0
 .00001027,0.00001436,0.00000915,0.00001537,-0.00002737,0.00002093,-0.0
 0138815,-0.00550941,-0.00247244,-0.00168357,0.00210997,-0.00024372,0.0
 0072084,0.00024989,0.00020589,0.00194823,0.00025887,-0.00456487,-0.009
 65079,-0.01403544,-0.00216030,-0.09077916,-0.29428368,-0.05495999,0.00
 000179,0.00001666,0.00000763,-0.00000882,-0.00000139,0.00001118,-0.000
 00380,0.00000503,0.00000352,-0.00045845,0.00041452,0.00027058,-0.00000
 343,-0.00000285,0.00000074,-0.00000053,-0.00000268,-0.00000193,0.00000
 506,-0.00000288,0.00000309,-0.00000182,0.00000198,-0.00000035,-0.00000
 349,-0.00000100,-0.00000144,-0.00000043,-0.00000272,-0.00000003,-0.000
 00006,-0.00000255,-0.00000286,0.00000174,-0.00000521,-0.00000181,0.000
 00509,-0.00000415,-0.00000449,0.00013154,-0.00018156,0.00026329,-0.000
 01452,0.00001389,-0.00004182,-0.00055016,-0.00081183,-0.00019361,0.001
 16630,0.00013536,0.00159119,0.09864415,0.31110892,0.00003423,-0.000031
 27,-0.00000374,0.00004936,-0.00006698,0.00006943,-0.00004819,-0.000001
 94,0.00000701,0.00002028,0.00003356,0.00002138,-0.00015963,0.00019086,
 -0.00000555,0.00022696,0.00051820,-0.00003641,-0.00079853,0.00155529,-
 0.00143272,-0.00031316,-0.00015356,-0.00010427,-0.00002094,0.00001060,
 0.00000410,-0.00000294,0.00001567,0.00000068,0.00001581,0.00007760,-0.
 00000115,0.00002367,-0.00002059,0.00001118,0.00000491,-0.00001525,0.00
 000308,0.00028070,-0.00002351,0.00021836,0.00000735,-0.00000702,0.0000
 0209,0.00000318,0.00000002,-0.00000060,-0.00000170,-0.00000581,-0.0000
 0349,-0.00000463,0.00000882,-0.00000185,0.00000086,0.00000031,-0.00000
 035,-0.00000041,0.00000518,-0.00000041,-0.00000499,-0.00003933,-0.0000
 4110,-0.00000725,0.00000081,-0.00003138,-0.00000557,0.00000410,-0.0000
 0377,0.00000012,0.00001284,0.00000327,0.00001403,-0.00001049,-0.000004
 11,-0.00001689,0.00004217,-0.00000200,0.00490265,0.01077535,0.00452302
 ,0.00337971,-0.00199164,0.00215716,-0.00066080,0.00056743,-0.00044242,
 0.00586266,-0.00368609,0.00495301,-0.00643462,-0.01712735,0.00087020,-
 0.01063924,-0.05376243,-0.05156268,0.00001423,-0.00000572,0.00000070,-
 0.00000896,0.00000441,-0.00000987,-0.00000186,-0.00000301,0.00000079,0
 .00005640,-0.00048263,0.00004699,0.00000379,0.00000043,-0.00000369,-0.
 00000175,0.00000084,0.00000296,0.00000026,0.00000188,0.00000211,-0.000
 00192,0.00000102,0.00000056,-0.00000203,-0.00000026,0.00000020,-0.0000
 0008,-0.00000116,0.00000062,-0.00000238,-0.00000096,0.00000124,0.00000
 146,-0.00000052,0.00000043,-0.00000262,0.00000534,-0.00000286,-0.00053
 222,0.00032684,-0.00072157,0.00001073,-0.00000939,0.00003291,-0.000265
 19,-0.00064635,-0.00010740,-0.00218456,0.00198276,-0.00365376,0.007209
 73,0.06195094,0.04524368\\0.00000241,-0.00000090,-0.00000087,0.0000020
 7,-0.00000138,-0.00000047,-0.00000164,-0.00000200,0.00000027,-0.000000
 77,0.00000250,0.00000100,-0.00000254,0.00000232,0.00000137,0.00000473,
 -0.00000145,-0.00000185,0.00000364,-0.00000248,-0.00000129,-0.00000344
 ,0.00000071,0.00000210,0.00000047,-0.00000064,0.00000007,0.00000174,0.
 00000139,-0.00000031,-0.00000054,0.00000029,-0.00000054,-0.00000179,-0
 .00000157,-0.00000094,0.00000150,0.00000073,-0.00000038,0.00000118,0.0
 0000113,0.00000071,-0.00000055,0.00000020,-0.00000081,-0.00000118,-0.0
 0000045,0.00000002,0.00000156,0.00000060,0.00000033,-0.00000055,-0.000
 00089,-0.00000094,0.00000036,0.00000036,-0.00000011,-0.00000025,0.0000
 0055,-0.00000101,-0.00000133,-0.00000020,-0.00000076,-0.00000098,-0.00
 000042,-0.00000013,0.00000137,0.00000034,-0.00000005,-0.00000091,-0.00
 000098,-0.00000084,0.,0.00000089,0.00000021,0.00000103,-0.00000023,-0.
 00000050,-0.00000240,0.00000263,0.00000248,-0.00000472,0.00000043,0.00
 000186,0.00000230,-0.00000038,-0.00000046,-0.00000215,-0.00000222,0.00
 000051,0.00000023,0.00000343,0.00000220,0.00000281,-0.00000149,-0.0000
 0110,-0.00000021,0.00000007,0.00000058,-0.00000013,0.,0.00000021,-0.00
 000042,-0.00000097,-0.00000010,-0.00000027,0.00000044,0.00000081,-0.00
 000026,-0.00000025,-0.00000078,-0.00000035,-0.00000023,-0.00000049,-0.
 00000019,0.00000038,-0.00000045,0.00000005,0.00000047,-0.00000008,0.00
 000007,0.00000039,-0.00000094,0.00000042,-0.00000015,-0.00000078,-0.00
 000041,-0.00000020,-0.00000060,-0.00000012,-0.00000020,-0.00000011,-0.
 00000004,-0.00000035,0.00000009,-0.00000012,-0.00000043,-0.00000008,-0
 .00000007,-0.00000054,0.00000065,0.00000048,0.00000026,0.00000051,0.00
 000020,0.00000007,0.00000065,-0.00000028,0.00000040,0.00000115\\\@


 ROSE IS A RED
 TY COBB IS BLUE
 'CAUSE PETE JUST HIT
 NO. 4592.
 Job cpu time:       7 days 20 hours 16 minutes 16.4 seconds.
 File lengths (MBytes):  RWF=   4673 Int=      0 D2E=      0 Chk=     87 Scr=      1
 Normal termination of Gaussian 09 at Thu Aug  1 13:47:34 2019.
