 Entering Gaussian System, Link 0=g09
 Initial command:
 /home/minenky/programs//g09/l1.exe "/local/scratch/minenky/m1_00_120835-90-7-C32H16_wB97XD/Gau-442934.inp" -scrdir="/local/scratch/minenky/m1_00_120835-90-7-C32H16_wB97XD/"
 Entering Link 1 = /home/minenky/programs//g09/l1.exe PID=    442935.
  
 Copyright (c) 1988,1990,1992,1993,1995,1998,2003,2009,2013,
            Gaussian, Inc.  All Rights Reserved.
  
 This is part of the Gaussian(R) 09 program.  It is based on
 the Gaussian(R) 03 system (copyright 2003, Gaussian, Inc.),
 the Gaussian(R) 98 system (copyright 1998, Gaussian, Inc.),
 the Gaussian(R) 94 system (copyright 1995, Gaussian, Inc.),
 the Gaussian 92(TM) system (copyright 1992, Gaussian, Inc.),
 the Gaussian 90(TM) system (copyright 1990, Gaussian, Inc.),
 the Gaussian 88(TM) system (copyright 1988, Gaussian, Inc.),
 the Gaussian 86(TM) system (copyright 1986, Carnegie Mellon
 University), and the Gaussian 82(TM) system (copyright 1983,
 Carnegie Mellon University). Gaussian is a federally registered
 trademark of Gaussian, Inc.
  
 This software contains proprietary and confidential information,
 including trade secrets, belonging to Gaussian, Inc.
  
 This software is provided under written license and may be
 used, copied, transmitted, or stored only in accord with that
 written license.
  
 The following legend is applicable only to US Government
 contracts under FAR:
  
                    RESTRICTED RIGHTS LEGEND
  
 Use, reproduction and disclosure by the US Government is
 subject to restrictions as set forth in subparagraphs (a)
 and (c) of the Commercial Computer Software - Restricted
 Rights clause in FAR 52.227-19.
  
 Gaussian, Inc.
 340 Quinnipiac St., Bldg. 40, Wallingford CT 06492
  
  
 ---------------------------------------------------------------
 Warning -- This program may not be used in any manner that
 competes with the business of Gaussian, Inc. or will provide
 assistance to any competitor of Gaussian, Inc.  The licensee
 of this program is prohibited from giving any competitor of
 Gaussian, Inc. access to this program.  By using this program,
 the user acknowledges that Gaussian, Inc. is engaged in the
 business of creating and licensing software in the field of
 computational chemistry and represents and warrants to the
 licensee that it is not a competitor of Gaussian, Inc. and that
 it will not use this program in any manner prohibited above.
 ---------------------------------------------------------------
  

 Cite this work as:
 Gaussian 09, Revision D.01,
 M. J. Frisch, G. W. Trucks, H. B. Schlegel, G. E. Scuseria, 
 M. A. Robb, J. R. Cheeseman, G. Scalmani, V. Barone, B. Mennucci, 
 G. A. Petersson, H. Nakatsuji, M. Caricato, X. Li, H. P. Hratchian, 
 A. F. Izmaylov, J. Bloino, G. Zheng, J. L. Sonnenberg, M. Hada, 
 M. Ehara, K. Toyota, R. Fukuda, J. Hasegawa, M. Ishida, T. Nakajima, 
 Y. Honda, O. Kitao, H. Nakai, T. Vreven, J. A. Montgomery, Jr., 
 J. E. Peralta, F. Ogliaro, M. Bearpark, J. J. Heyd, E. Brothers, 
 K. N. Kudin, V. N. Staroverov, T. Keith, R. Kobayashi, J. Normand, 
 K. Raghavachari, A. Rendell, J. C. Burant, S. S. Iyengar, J. Tomasi, 
 M. Cossi, N. Rega, J. M. Millam, M. Klene, J. E. Knox, J. B. Cross, 
 V. Bakken, C. Adamo, J. Jaramillo, R. Gomperts, R. E. Stratmann, 
 O. Yazyev, A. J. Austin, R. Cammi, C. Pomelli, J. W. Ochterski, 
 R. L. Martin, K. Morokuma, V. G. Zakrzewski, G. A. Voth, 
 P. Salvador, J. J. Dannenberg, S. Dapprich, A. D. Daniels, 
 O. Farkas, J. B. Foresman, J. V. Ortiz, J. Cioslowski, 
 and D. J. Fox, Gaussian, Inc., Wallingford CT, 2013.
 
 ******************************************
 Gaussian 09:  AM64L-G09RevD.01 24-Apr-2013
                27-Jul-2019 
 ******************************************
 %Mem=32000MB
 %NProcShared=16
 Will use up to   16 processors via shared memory.
 %Chk=m1_00_120835-90-7-C32H16_wB97XD
 ----------------------------------------------------------------------
 #P wB97XD/def2tzvp opt=(tight) freq integral(Grid=ultrafine) # SCF(Max
 Cycle=380) 5d 7f GFPrint
 ----------------------------------------------------------------------
 1/7=10,14=-1,18=20,19=15,26=4,38=1/1,3;
 2/9=110,12=2,17=6,18=5,40=1/2;
 3/5=44,7=101,8=11,11=2,16=1,24=100,25=1,30=1,71=1,74=-58,75=-5/1,2,3;
 4//1;
 5/5=2,7=380,38=5/2;
 6/7=2,8=2,9=2,10=2,28=1/1;
 7//1,2,3,16;
 1/7=10,14=-1,18=20,19=15,26=4/3(2);
 2/9=110/2;
 99//99;
 2/9=110/2;
 3/5=44,7=101,8=11,11=2,16=1,25=1,30=1,71=1,74=-58,75=-5/1,2,3;
 4/5=5,16=3,69=1/1;
 5/5=2,7=380,38=5/2;
 7//1,2,3,16;
 1/7=10,14=-1,18=20,19=15,26=4/3(-5);
 2/9=110/2;
 6/7=2,8=2,9=2,10=2,19=2,28=1/1;
 99/9=1/99;
 Leave Link    1 at Sat Jul 27 10:29:56 2019, MaxMem=  4194304000 cpu:         0.9
 (Enter /home/minenky/programs//g09/l101.exe)
 ---------------------------------------
 The PBEPBE optimization and frequencies
 ---------------------------------------
 Symbolic Z-matrix:
 Charge =  0 Multiplicity = 1
 C                     1.37326  -2.28879   0.43786 
 C                     0.35625  -3.20107   0.47341 
 C                    -0.98681  -2.79245   0.27685 
 C                    -1.25798  -1.42489   0.12823 
 C                    -3.34522  -3.32434   0.08151 
 C                    -2.05728  -3.73621   0.24606 
 C                    -0.19081  -0.47573   0.1226 
 C                     1.14374  -0.90503   0.19674 
 C                    -0.50408   0.92304   0.06897 
 C                     0.51941   1.869     0.16714 
 C                     0.18012   3.25076   0.16188 
 C                    -1.1151    3.66641   0.03137 
 C                    -1.85982   1.35253  -0.04494 
 C                    -2.16762   2.72047  -0.08174 
 C                    -3.52738   3.13182  -0.22248 
 C                    -4.53025   2.21307  -0.30537 
 C                    -2.91626   0.39318  -0.10925 
 C                    -4.24594   0.81595  -0.24048 
 C                    -5.28329  -0.15666  -0.29365 
 C                    -4.99646  -1.48893  -0.19823 
 C                    -3.65408  -1.93678  -0.04643 
 C                    -2.61519  -0.99639  -0.01377 
 C                     1.89072   1.42375   0.22706 
 C                     2.21453   0.06738   0.10205 
 C                     4.23161   2.03919   0.41793 
 C                     2.92299   2.39451   0.41741 
 C                     4.60193   0.69726   0.10369 
 C                     3.60486  -0.27723  -0.11447 
 C                     4.03281  -1.5317   -0.61805 
 C                     5.36295  -1.8229   -0.79393 
 C                     6.34992  -0.87233  -0.47649 
 C                     5.9723    0.3736   -0.04512 
 H                     2.40052  -2.63703   0.61333 
 H                     0.56584  -4.26079   0.65951 
 H                    -4.16681  -4.04904   0.04985 
 H                    -1.81782  -4.8003    0.35396 
 H                     0.98999   3.98937   0.25969 
 H                    -1.35945   4.73472   0.01585 
 H                    -3.74627   4.20508  -0.26154 
 H                    -5.5735    2.53011  -0.41646 
 H                    -6.31844   0.18495  -0.4079 
 H                    -5.79777  -2.23591  -0.23446 
 H                     5.01925   2.77519   0.6156 
 H                     2.62928   3.4423    0.58171 
 H                     3.28476  -2.28815  -0.89164 
 H                     5.66508  -2.79822  -1.18982 
 H                     7.40771  -1.12836  -0.59361 
 H                     6.72511   1.1394    0.17487 
 
 NAtoms=     48 NQM=       48 NQMF=       0 NMMI=      0 NMMIF=      0
                NMic=       0 NMicF=      0.
                    Isotopes and Nuclear Properties:
 (Nuclear quadrupole moments (NQMom) in fm**2, nuclear magnetic moments (NMagM)
  in nuclear magnetons)

  Atom         1           2           3           4           5           6           7           8           9          10
 IAtWgt=          12          12          12          12          12          12          12          12          12          12
 AtmWgt=  12.0000000  12.0000000  12.0000000  12.0000000  12.0000000  12.0000000  12.0000000  12.0000000  12.0000000  12.0000000
 NucSpn=           0           0           0           0           0           0           0           0           0           0
 AtZEff=   0.0000000   0.0000000   0.0000000   0.0000000   0.0000000   0.0000000   0.0000000   0.0000000   0.0000000   0.0000000
 NQMom=    0.0000000   0.0000000   0.0000000   0.0000000   0.0000000   0.0000000   0.0000000   0.0000000   0.0000000   0.0000000
 NMagM=    0.0000000   0.0000000   0.0000000   0.0000000   0.0000000   0.0000000   0.0000000   0.0000000   0.0000000   0.0000000
 AtZNuc=   6.0000000   6.0000000   6.0000000   6.0000000   6.0000000   6.0000000   6.0000000   6.0000000   6.0000000   6.0000000

  Atom        11          12          13          14          15          16          17          18          19          20
 IAtWgt=          12          12          12          12          12          12          12          12          12          12
 AtmWgt=  12.0000000  12.0000000  12.0000000  12.0000000  12.0000000  12.0000000  12.0000000  12.0000000  12.0000000  12.0000000
 NucSpn=           0           0           0           0           0           0           0           0           0           0
 AtZEff=   0.0000000   0.0000000   0.0000000   0.0000000   0.0000000   0.0000000   0.0000000   0.0000000   0.0000000   0.0000000
 NQMom=    0.0000000   0.0000000   0.0000000   0.0000000   0.0000000   0.0000000   0.0000000   0.0000000   0.0000000   0.0000000
 NMagM=    0.0000000   0.0000000   0.0000000   0.0000000   0.0000000   0.0000000   0.0000000   0.0000000   0.0000000   0.0000000
 AtZNuc=   6.0000000   6.0000000   6.0000000   6.0000000   6.0000000   6.0000000   6.0000000   6.0000000   6.0000000   6.0000000

  Atom        21          22          23          24          25          26          27          28          29          30
 IAtWgt=          12          12          12          12          12          12          12          12          12          12
 AtmWgt=  12.0000000  12.0000000  12.0000000  12.0000000  12.0000000  12.0000000  12.0000000  12.0000000  12.0000000  12.0000000
 NucSpn=           0           0           0           0           0           0           0           0           0           0
 AtZEff=   0.0000000   0.0000000   0.0000000   0.0000000   0.0000000   0.0000000   0.0000000   0.0000000   0.0000000   0.0000000
 NQMom=    0.0000000   0.0000000   0.0000000   0.0000000   0.0000000   0.0000000   0.0000000   0.0000000   0.0000000   0.0000000
 NMagM=    0.0000000   0.0000000   0.0000000   0.0000000   0.0000000   0.0000000   0.0000000   0.0000000   0.0000000   0.0000000
 AtZNuc=   6.0000000   6.0000000   6.0000000   6.0000000   6.0000000   6.0000000   6.0000000   6.0000000   6.0000000   6.0000000

  Atom        31          32          33          34          35          36          37          38          39          40
 IAtWgt=          12          12           1           1           1           1           1           1           1           1
 AtmWgt=  12.0000000  12.0000000   1.0078250   1.0078250   1.0078250   1.0078250   1.0078250   1.0078250   1.0078250   1.0078250
 NucSpn=           0           0           1           1           1           1           1           1           1           1
 AtZEff=   0.0000000   0.0000000   0.0000000   0.0000000   0.0000000   0.0000000   0.0000000   0.0000000   0.0000000   0.0000000
 NQMom=    0.0000000   0.0000000   0.0000000   0.0000000   0.0000000   0.0000000   0.0000000   0.0000000   0.0000000   0.0000000
 NMagM=    0.0000000   0.0000000   2.7928460   2.7928460   2.7928460   2.7928460   2.7928460   2.7928460   2.7928460   2.7928460
 AtZNuc=   6.0000000   6.0000000   1.0000000   1.0000000   1.0000000   1.0000000   1.0000000   1.0000000   1.0000000   1.0000000

  Atom        41          42          43          44          45          46          47          48
 IAtWgt=           1           1           1           1           1           1           1           1
 AtmWgt=   1.0078250   1.0078250   1.0078250   1.0078250   1.0078250   1.0078250   1.0078250   1.0078250
 NucSpn=           1           1           1           1           1           1           1           1
 AtZEff=   0.0000000   0.0000000   0.0000000   0.0000000   0.0000000   0.0000000   0.0000000   0.0000000
 NQMom=    0.0000000   0.0000000   0.0000000   0.0000000   0.0000000   0.0000000   0.0000000   0.0000000
 NMagM=    2.7928460   2.7928460   2.7928460   2.7928460   2.7928460   2.7928460   2.7928460   2.7928460
 AtZNuc=   1.0000000   1.0000000   1.0000000   1.0000000   1.0000000   1.0000000   1.0000000   1.0000000
 Leave Link  101 at Sat Jul 27 10:29:56 2019, MaxMem=  4194304000 cpu:         6.0
 (Enter /home/minenky/programs//g09/l103.exe)

 GradGradGradGradGradGradGradGradGradGradGradGradGradGradGradGradGradGrad
 Berny optimization.
 Initialization pass.
                           ----------------------------
                           !    Initial Parameters    !
                           ! (Angstroms and Degrees)  !
 --------------------------                            --------------------------
 ! Name  Definition              Value          Derivative Info.                !
 --------------------------------------------------------------------------------
 ! R1    R(1,2)                  1.3667         estimate D2E/DX2                !
 ! R2    R(1,8)                  1.4232         estimate D2E/DX2                !
 ! R3    R(1,33)                 1.0988         estimate D2E/DX2                !
 ! R4    R(2,3)                  1.4175         estimate D2E/DX2                !
 ! R5    R(2,34)                 1.0962         estimate D2E/DX2                !
 ! R6    R(3,4)                  1.4021         estimate D2E/DX2                !
 ! R7    R(3,6)                  1.4274         estimate D2E/DX2                !
 ! R8    R(4,7)                  1.4282         estimate D2E/DX2                !
 ! R9    R(4,22)                 1.4303         estimate D2E/DX2                !
 ! R10   R(5,6)                  1.3622         estimate D2E/DX2                !
 ! R11   R(5,21)                 1.4273         estimate D2E/DX2                !
 ! R12   R(5,35)                 1.096          estimate D2E/DX2                !
 ! R13   R(6,36)                 1.096          estimate D2E/DX2                !
 ! R14   R(7,8)                  1.4039         estimate D2E/DX2                !
 ! R15   R(7,9)                  1.4344         estimate D2E/DX2                !
 ! R16   R(8,24)                 1.4495         estimate D2E/DX2                !
 ! R17   R(9,10)                 1.3971         estimate D2E/DX2                !
 ! R18   R(9,13)                 1.4267         estimate D2E/DX2                !
 ! R19   R(10,11)                1.4228         estimate D2E/DX2                !
 ! R20   R(10,23)                1.443          estimate D2E/DX2                !
 ! R21   R(11,12)                1.3665         estimate D2E/DX2                !
 ! R22   R(11,37)                1.1005         estimate D2E/DX2                !
 ! R23   R(12,14)                1.4196         estimate D2E/DX2                !
 ! R24   R(12,38)                1.096          estimate D2E/DX2                !
 ! R25   R(13,14)                1.4026         estimate D2E/DX2                !
 ! R26   R(13,17)                1.4285         estimate D2E/DX2                !
 ! R27   R(14,15)                1.4276         estimate D2E/DX2                !
 ! R28   R(15,16)                1.3626         estimate D2E/DX2                !
 ! R29   R(15,39)                1.0961         estimate D2E/DX2                !
 ! R30   R(16,18)                1.4272         estimate D2E/DX2                !
 ! R31   R(16,40)                1.096          estimate D2E/DX2                !
 ! R32   R(17,18)                1.4014         estimate D2E/DX2                !
 ! R33   R(17,22)                1.425          estimate D2E/DX2                !
 ! R34   R(18,19)                1.423          estimate D2E/DX2                !
 ! R35   R(19,20)                1.3661         estimate D2E/DX2                !
 ! R36   R(19,41)                1.096          estimate D2E/DX2                !
 ! R37   R(20,21)                1.4232         estimate D2E/DX2                !
 ! R38   R(20,42)                1.0961         estimate D2E/DX2                !
 ! R39   R(21,22)                1.4017         estimate D2E/DX2                !
 ! R40   R(23,24)                1.4001         estimate D2E/DX2                !
 ! R41   R(23,26)                1.4297         estimate D2E/DX2                !
 ! R42   R(24,28)                1.4487         estimate D2E/DX2                !
 ! R43   R(25,26)                1.356          estimate D2E/DX2                !
 ! R44   R(25,27)                1.4271         estimate D2E/DX2                !
 ! R45   R(25,43)                1.096          estimate D2E/DX2                !
 ! R46   R(26,44)                1.1005         estimate D2E/DX2                !
 ! R47   R(27,28)                1.4112         estimate D2E/DX2                !
 ! R48   R(27,32)                1.4159         estimate D2E/DX2                !
 ! R49   R(28,29)                1.4179         estimate D2E/DX2                !
 ! R50   R(29,30)                1.373          estimate D2E/DX2                !
 ! R51   R(29,45)                1.0985         estimate D2E/DX2                !
 ! R52   R(30,31)                1.4066         estimate D2E/DX2                !
 ! R53   R(30,46)                1.0951         estimate D2E/DX2                !
 ! R54   R(31,32)                1.3715         estimate D2E/DX2                !
 ! R55   R(31,47)                1.0946         estimate D2E/DX2                !
 ! R56   R(32,48)                1.0962         estimate D2E/DX2                !
 ! A1    A(2,1,8)              122.2349         estimate D2E/DX2                !
 ! A2    A(2,1,33)             118.6856         estimate D2E/DX2                !
 ! A3    A(8,1,33)             119.0756         estimate D2E/DX2                !
 ! A4    A(1,2,3)              120.599          estimate D2E/DX2                !
 ! A5    A(1,2,34)             120.4941         estimate D2E/DX2                !
 ! A6    A(3,2,34)             118.9063         estimate D2E/DX2                !
 ! A7    A(2,3,4)              118.6269         estimate D2E/DX2                !
 ! A8    A(2,3,6)              121.5291         estimate D2E/DX2                !
 ! A9    A(4,3,6)              119.8385         estimate D2E/DX2                !
 ! A10   A(3,4,7)              120.2732         estimate D2E/DX2                !
 ! A11   A(3,4,22)             119.0944         estimate D2E/DX2                !
 ! A12   A(7,4,22)             120.6322         estimate D2E/DX2                !
 ! A13   A(6,5,21)             120.6227         estimate D2E/DX2                !
 ! A14   A(6,5,35)             120.82           estimate D2E/DX2                !
 ! A15   A(21,5,35)            118.5565         estimate D2E/DX2                !
 ! A16   A(3,6,5)              120.7814         estimate D2E/DX2                !
 ! A17   A(3,6,36)             118.42           estimate D2E/DX2                !
 ! A18   A(5,6,36)             120.7982         estimate D2E/DX2                !
 ! A19   A(4,7,8)              120.4559         estimate D2E/DX2                !
 ! A20   A(4,7,9)              119.0143         estimate D2E/DX2                !
 ! A21   A(8,7,9)              120.5165         estimate D2E/DX2                !
 ! A22   A(1,8,7)              117.3595         estimate D2E/DX2                !
 ! A23   A(1,8,24)             122.9682         estimate D2E/DX2                !
 ! A24   A(7,8,24)             119.5806         estimate D2E/DX2                !
 ! A25   A(7,9,10)             119.8429         estimate D2E/DX2                !
 ! A26   A(7,9,13)             120.2698         estimate D2E/DX2                !
 ! A27   A(10,9,13)            119.862          estimate D2E/DX2                !
 ! A28   A(9,10,11)            118.8539         estimate D2E/DX2                !
 ! A29   A(9,10,23)            119.351          estimate D2E/DX2                !
 ! A30   A(11,10,23)           121.7638         estimate D2E/DX2                !
 ! A31   A(10,11,12)           121.4508         estimate D2E/DX2                !
 ! A32   A(10,11,37)           118.4242         estimate D2E/DX2                !
 ! A33   A(12,11,37)           120.1239         estimate D2E/DX2                !
 ! A34   A(11,12,14)           120.5069         estimate D2E/DX2                !
 ! A35   A(11,12,38)           120.607          estimate D2E/DX2                !
 ! A36   A(14,12,38)           118.8857         estimate D2E/DX2                !
 ! A37   A(9,13,14)            120.2797         estimate D2E/DX2                !
 ! A38   A(9,13,17)            120.2778         estimate D2E/DX2                !
 ! A39   A(14,13,17)           119.4396         estimate D2E/DX2                !
 ! A40   A(12,14,13)           119.0163         estimate D2E/DX2                !
 ! A41   A(12,14,15)           121.4686         estimate D2E/DX2                !
 ! A42   A(13,14,15)           119.5137         estimate D2E/DX2                !
 ! A43   A(14,15,16)           120.8467         estimate D2E/DX2                !
 ! A44   A(14,15,39)           118.4173         estimate D2E/DX2                !
 ! A45   A(16,15,39)           120.736          estimate D2E/DX2                !
 ! A46   A(15,16,18)           120.7071         estimate D2E/DX2                !
 ! A47   A(15,16,40)           120.7765         estimate D2E/DX2                !
 ! A48   A(18,16,40)           118.5152         estimate D2E/DX2                !
 ! A49   A(13,17,18)           120.2191         estimate D2E/DX2                !
 ! A50   A(13,17,22)           119.7105         estimate D2E/DX2                !
 ! A51   A(18,17,22)           120.0597         estimate D2E/DX2                !
 ! A52   A(16,18,17)           119.2468         estimate D2E/DX2                !
 ! A53   A(16,18,19)           121.4772         estimate D2E/DX2                !
 ! A54   A(17,18,19)           119.2735         estimate D2E/DX2                !
 ! A55   A(18,19,20)           120.7231         estimate D2E/DX2                !
 ! A56   A(18,19,41)           118.6436         estimate D2E/DX2                !
 ! A57   A(20,19,41)           120.6326         estimate D2E/DX2                !
 ! A58   A(19,20,21)           120.8206         estimate D2E/DX2                !
 ! A59   A(19,20,42)           120.5848         estimate D2E/DX2                !
 ! A60   A(21,20,42)           118.5944         estimate D2E/DX2                !
 ! A61   A(5,21,20)            121.3043         estimate D2E/DX2                !
 ! A62   A(5,21,22)            119.3251         estimate D2E/DX2                !
 ! A63   A(20,21,22)           119.3695         estimate D2E/DX2                !
 ! A64   A(4,22,17)            119.9512         estimate D2E/DX2                !
 ! A65   A(4,22,21)            120.3059         estimate D2E/DX2                !
 ! A66   A(17,22,21)           119.74           estimate D2E/DX2                !
 ! A67   A(10,23,24)           120.9974         estimate D2E/DX2                !
 ! A68   A(10,23,26)           118.8252         estimate D2E/DX2                !
 ! A69   A(24,23,26)           120.1774         estimate D2E/DX2                !
 ! A70   A(8,24,23)            118.2435         estimate D2E/DX2                !
 ! A71   A(8,24,28)            123.9969         estimate D2E/DX2                !
 ! A72   A(23,24,28)           117.7596         estimate D2E/DX2                !
 ! A73   A(26,25,27)           119.784          estimate D2E/DX2                !
 ! A74   A(26,25,43)           121.1755         estimate D2E/DX2                !
 ! A75   A(27,25,43)           118.9922         estimate D2E/DX2                !
 ! A76   A(23,26,25)           121.2588         estimate D2E/DX2                !
 ! A77   A(23,26,44)           118.2706         estimate D2E/DX2                !
 ! A78   A(25,26,44)           120.4627         estimate D2E/DX2                !
 ! A79   A(25,27,28)           120.0022         estimate D2E/DX2                !
 ! A80   A(25,27,32)           119.29           estimate D2E/DX2                !
 ! A81   A(28,27,32)           120.6459         estimate D2E/DX2                !
 ! A82   A(24,28,27)           119.3885         estimate D2E/DX2                !
 ! A83   A(24,28,29)           123.5874         estimate D2E/DX2                !
 ! A84   A(27,28,29)           116.9118         estimate D2E/DX2                !
 ! A85   A(28,29,30)           121.7055         estimate D2E/DX2                !
 ! A86   A(28,29,45)           119.4842         estimate D2E/DX2                !
 ! A87   A(30,29,45)           118.8027         estimate D2E/DX2                !
 ! A88   A(29,30,31)           120.5012         estimate D2E/DX2                !
 ! A89   A(29,30,46)           120.1651         estimate D2E/DX2                !
 ! A90   A(31,30,46)           119.3326         estimate D2E/DX2                !
 ! A91   A(30,31,32)           119.4533         estimate D2E/DX2                !
 ! A92   A(30,31,47)           119.7265         estimate D2E/DX2                !
 ! A93   A(32,31,47)           120.8108         estimate D2E/DX2                !
 ! A94   A(27,32,31)           120.4771         estimate D2E/DX2                !
 ! A95   A(27,32,48)           118.9395         estimate D2E/DX2                !
 ! A96   A(31,32,48)           120.5767         estimate D2E/DX2                !
 ! D1    D(8,1,2,3)             -0.4317         estimate D2E/DX2                !
 ! D2    D(8,1,2,34)           179.8732         estimate D2E/DX2                !
 ! D3    D(33,1,2,3)           178.8455         estimate D2E/DX2                !
 ! D4    D(33,1,2,34)           -0.8496         estimate D2E/DX2                !
 ! D5    D(2,1,8,7)              6.0671         estimate D2E/DX2                !
 ! D6    D(2,1,8,24)          -177.4345         estimate D2E/DX2                !
 ! D7    D(33,1,8,7)          -173.2074         estimate D2E/DX2                !
 ! D8    D(33,1,8,24)            3.291          estimate D2E/DX2                !
 ! D9    D(1,2,3,4)             -3.8977         estimate D2E/DX2                !
 ! D10   D(1,2,3,6)            176.9531         estimate D2E/DX2                !
 ! D11   D(34,2,3,4)           175.8022         estimate D2E/DX2                !
 ! D12   D(34,2,3,6)            -3.3469         estimate D2E/DX2                !
 ! D13   D(2,3,4,7)              2.4748         estimate D2E/DX2                !
 ! D14   D(2,3,4,22)          -177.3708         estimate D2E/DX2                !
 ! D15   D(6,3,4,7)           -178.3613         estimate D2E/DX2                !
 ! D16   D(6,3,4,22)             1.7932         estimate D2E/DX2                !
 ! D17   D(2,3,6,5)            178.7447         estimate D2E/DX2                !
 ! D18   D(2,3,6,36)            -1.4943         estimate D2E/DX2                !
 ! D19   D(4,3,6,5)             -0.3943         estimate D2E/DX2                !
 ! D20   D(4,3,6,36)           179.3667         estimate D2E/DX2                !
 ! D21   D(3,4,7,8)              3.2713         estimate D2E/DX2                !
 ! D22   D(3,4,7,9)           -175.4078         estimate D2E/DX2                !
 ! D23   D(22,4,7,8)          -176.8856         estimate D2E/DX2                !
 ! D24   D(22,4,7,9)             4.4354         estimate D2E/DX2                !
 ! D25   D(3,4,22,17)          177.3525         estimate D2E/DX2                !
 ! D26   D(3,4,22,21)           -2.0191         estimate D2E/DX2                !
 ! D27   D(7,4,22,17)           -2.4924         estimate D2E/DX2                !
 ! D28   D(7,4,22,21)          178.1359         estimate D2E/DX2                !
 ! D29   D(21,5,6,3)            -0.819          estimate D2E/DX2                !
 ! D30   D(21,5,6,36)          179.4256         estimate D2E/DX2                !
 ! D31   D(35,5,6,3)           179.5137         estimate D2E/DX2                !
 ! D32   D(35,5,6,36)           -0.2416         estimate D2E/DX2                !
 ! D33   D(6,5,21,20)         -179.0195         estimate D2E/DX2                !
 ! D34   D(6,5,21,22)            0.5904         estimate D2E/DX2                !
 ! D35   D(35,5,21,20)           0.6552         estimate D2E/DX2                !
 ! D36   D(35,5,21,22)        -179.735          estimate D2E/DX2                !
 ! D37   D(4,7,8,1)             -7.3741         estimate D2E/DX2                !
 ! D38   D(4,7,8,24)           176.0038         estimate D2E/DX2                !
 ! D39   D(9,7,8,1)            171.285          estimate D2E/DX2                !
 ! D40   D(9,7,8,24)            -5.3372         estimate D2E/DX2                !
 ! D41   D(4,7,9,10)           175.0454         estimate D2E/DX2                !
 ! D42   D(4,7,9,13)            -3.1222         estimate D2E/DX2                !
 ! D43   D(8,7,9,10)            -3.6328         estimate D2E/DX2                !
 ! D44   D(8,7,9,13)           178.1996         estimate D2E/DX2                !
 ! D45   D(1,8,24,23)         -162.9395         estimate D2E/DX2                !
 ! D46   D(1,8,24,28)           17.0475         estimate D2E/DX2                !
 ! D47   D(7,8,24,23)           13.4844         estimate D2E/DX2                !
 ! D48   D(7,8,24,28)         -166.5286         estimate D2E/DX2                !
 ! D49   D(7,9,10,11)         -177.6699         estimate D2E/DX2                !
 ! D50   D(7,9,10,23)            4.3299         estimate D2E/DX2                !
 ! D51   D(13,9,10,11)           0.5052         estimate D2E/DX2                !
 ! D52   D(13,9,10,23)        -177.4949         estimate D2E/DX2                !
 ! D53   D(7,9,13,14)          179.2569         estimate D2E/DX2                !
 ! D54   D(7,9,13,17)           -0.1271         estimate D2E/DX2                !
 ! D55   D(10,9,13,14)           1.0896         estimate D2E/DX2                !
 ! D56   D(10,9,13,17)        -178.2944         estimate D2E/DX2                !
 ! D57   D(9,10,11,12)          -1.579          estimate D2E/DX2                !
 ! D58   D(9,10,11,37)         178.8032         estimate D2E/DX2                !
 ! D59   D(23,10,11,12)        176.3708         estimate D2E/DX2                !
 ! D60   D(23,10,11,37)         -3.2471         estimate D2E/DX2                !
 ! D61   D(9,10,23,24)           4.1394         estimate D2E/DX2                !
 ! D62   D(9,10,23,26)        -175.8613         estimate D2E/DX2                !
 ! D63   D(11,10,23,24)       -173.8005         estimate D2E/DX2                !
 ! D64   D(11,10,23,26)          6.1989         estimate D2E/DX2                !
 ! D65   D(10,11,12,14)          1.03           estimate D2E/DX2                !
 ! D66   D(10,11,12,38)       -179.1911         estimate D2E/DX2                !
 ! D67   D(37,11,12,14)       -179.3586         estimate D2E/DX2                !
 ! D68   D(37,11,12,38)          0.4204         estimate D2E/DX2                !
 ! D69   D(11,12,14,13)          0.5931         estimate D2E/DX2                !
 ! D70   D(11,12,14,15)       -179.8321         estimate D2E/DX2                !
 ! D71   D(38,12,14,13)       -179.1896         estimate D2E/DX2                !
 ! D72   D(38,12,14,15)          0.3852         estimate D2E/DX2                !
 ! D73   D(9,13,14,12)          -1.6423         estimate D2E/DX2                !
 ! D74   D(9,13,14,15)         178.7744         estimate D2E/DX2                !
 ! D75   D(17,13,14,12)        177.7469         estimate D2E/DX2                !
 ! D76   D(17,13,14,15)         -1.8364         estimate D2E/DX2                !
 ! D77   D(9,13,17,18)        -179.0814         estimate D2E/DX2                !
 ! D78   D(9,13,17,22)           2.111          estimate D2E/DX2                !
 ! D79   D(14,13,17,18)          1.5294         estimate D2E/DX2                !
 ! D80   D(14,13,17,22)       -177.2782         estimate D2E/DX2                !
 ! D81   D(12,14,15,16)       -178.7848         estimate D2E/DX2                !
 ! D82   D(12,14,15,39)          1.1664         estimate D2E/DX2                !
 ! D83   D(13,14,15,16)          0.788          estimate D2E/DX2                !
 ! D84   D(13,14,15,39)       -179.2608         estimate D2E/DX2                !
 ! D85   D(14,15,16,18)          0.6056         estimate D2E/DX2                !
 ! D86   D(14,15,16,40)       -179.8133         estimate D2E/DX2                !
 ! D87   D(39,15,16,18)       -179.3445         estimate D2E/DX2                !
 ! D88   D(39,15,16,40)          0.2366         estimate D2E/DX2                !
 ! D89   D(15,16,18,17)         -0.9158         estimate D2E/DX2                !
 ! D90   D(15,16,18,19)        178.4972         estimate D2E/DX2                !
 ! D91   D(40,16,18,17)        179.4938         estimate D2E/DX2                !
 ! D92   D(40,16,18,19)         -1.0932         estimate D2E/DX2                !
 ! D93   D(13,17,18,16)         -0.1586         estimate D2E/DX2                !
 ! D94   D(13,17,18,19)       -179.5847         estimate D2E/DX2                !
 ! D95   D(22,17,18,16)        178.6448         estimate D2E/DX2                !
 ! D96   D(22,17,18,19)         -0.7813         estimate D2E/DX2                !
 ! D97   D(13,17,22,4)          -0.8126         estimate D2E/DX2                !
 ! D98   D(13,17,22,21)        178.5627         estimate D2E/DX2                !
 ! D99   D(18,17,22,4)        -179.6221         estimate D2E/DX2                !
 ! D100  D(18,17,22,21)         -0.2468         estimate D2E/DX2                !
 ! D101  D(16,18,19,20)       -178.4305         estimate D2E/DX2                !
 ! D102  D(16,18,19,41)          1.2764         estimate D2E/DX2                !
 ! D103  D(17,18,19,20)          0.9823         estimate D2E/DX2                !
 ! D104  D(17,18,19,41)       -179.3108         estimate D2E/DX2                !
 ! D105  D(18,19,20,21)         -0.1409         estimate D2E/DX2                !
 ! D106  D(18,19,20,42)        179.695          estimate D2E/DX2                !
 ! D107  D(41,19,20,21)       -179.842          estimate D2E/DX2                !
 ! D108  D(41,19,20,42)         -0.0061         estimate D2E/DX2                !
 ! D109  D(19,20,21,5)         178.7111         estimate D2E/DX2                !
 ! D110  D(19,20,21,22)         -0.8986         estimate D2E/DX2                !
 ! D111  D(42,20,21,5)          -1.128          estimate D2E/DX2                !
 ! D112  D(42,20,21,22)        179.2623         estimate D2E/DX2                !
 ! D113  D(5,21,22,4)            0.8379         estimate D2E/DX2                !
 ! D114  D(5,21,22,17)        -178.5351         estimate D2E/DX2                !
 ! D115  D(20,21,22,4)        -179.5446         estimate D2E/DX2                !
 ! D116  D(20,21,22,17)          1.0824         estimate D2E/DX2                !
 ! D117  D(10,23,24,8)         -12.9258         estimate D2E/DX2                !
 ! D118  D(10,23,24,28)        167.0864         estimate D2E/DX2                !
 ! D119  D(26,23,24,8)         167.0749         estimate D2E/DX2                !
 ! D120  D(26,23,24,28)        -12.9129         estimate D2E/DX2                !
 ! D121  D(10,23,26,25)       -176.8446         estimate D2E/DX2                !
 ! D122  D(10,23,26,44)          4.1748         estimate D2E/DX2                !
 ! D123  D(24,23,26,25)          3.1548         estimate D2E/DX2                !
 ! D124  D(24,23,26,44)       -175.8258         estimate D2E/DX2                !
 ! D125  D(8,24,28,27)        -165.9335         estimate D2E/DX2                !
 ! D126  D(8,24,28,29)          18.0418         estimate D2E/DX2                !
 ! D127  D(23,24,28,27)         14.0536         estimate D2E/DX2                !
 ! D128  D(23,24,28,29)       -161.9711         estimate D2E/DX2                !
 ! D129  D(27,25,26,23)          5.7642         estimate D2E/DX2                !
 ! D130  D(27,25,26,44)       -175.2774         estimate D2E/DX2                !
 ! D131  D(43,25,26,23)       -176.79           estimate D2E/DX2                !
 ! D132  D(43,25,26,44)          2.1684         estimate D2E/DX2                !
 ! D133  D(26,25,27,28)         -4.4304         estimate D2E/DX2                !
 ! D134  D(26,25,27,32)        172.7276         estimate D2E/DX2                !
 ! D135  D(43,25,27,28)        178.0679         estimate D2E/DX2                !
 ! D136  D(43,25,27,32)         -4.774          estimate D2E/DX2                !
 ! D137  D(25,27,28,24)         -5.5604         estimate D2E/DX2                !
 ! D138  D(25,27,28,29)        170.7262         estimate D2E/DX2                !
 ! D139  D(32,27,28,24)        177.3207         estimate D2E/DX2                !
 ! D140  D(32,27,28,29)         -6.3927         estimate D2E/DX2                !
 ! D141  D(25,27,32,31)       -173.4757         estimate D2E/DX2                !
 ! D142  D(25,27,32,48)          5.5794         estimate D2E/DX2                !
 ! D143  D(28,27,32,31)          3.6635         estimate D2E/DX2                !
 ! D144  D(28,27,32,48)       -177.2814         estimate D2E/DX2                !
 ! D145  D(24,28,29,30)       -179.2389         estimate D2E/DX2                !
 ! D146  D(24,28,29,45)          1.7749         estimate D2E/DX2                !
 ! D147  D(27,28,29,30)          4.6453         estimate D2E/DX2                !
 ! D148  D(27,28,29,45)       -174.3408         estimate D2E/DX2                !
 ! D149  D(28,29,30,31)         -0.0575         estimate D2E/DX2                !
 ! D150  D(28,29,30,46)       -179.6707         estimate D2E/DX2                !
 ! D151  D(45,29,30,31)        178.9353         estimate D2E/DX2                !
 ! D152  D(45,29,30,46)         -0.6779         estimate D2E/DX2                !
 ! D153  D(29,30,31,32)         -2.9187         estimate D2E/DX2                !
 ! D154  D(29,30,31,47)        178.1933         estimate D2E/DX2                !
 ! D155  D(46,30,31,32)        176.6977         estimate D2E/DX2                !
 ! D156  D(46,30,31,47)         -2.1903         estimate D2E/DX2                !
 ! D157  D(30,31,32,27)          1.1147         estimate D2E/DX2                !
 ! D158  D(30,31,32,48)       -177.9248         estimate D2E/DX2                !
 ! D159  D(47,31,32,27)        179.9903         estimate D2E/DX2                !
 ! D160  D(47,31,32,48)          0.9508         estimate D2E/DX2                !
 --------------------------------------------------------------------------------
 Trust Radius=3.00D-01 FncErr=1.00D-07 GrdErr=1.00D-06
 Number of steps in this run=    288 maximum allowed number of steps=    288.
 GradGradGradGradGradGradGradGradGradGradGradGradGradGradGradGradGradGrad

 Leave Link  103 at Sat Jul 27 10:29:56 2019, MaxMem=  4194304000 cpu:         0.3
 (Enter /home/minenky/programs//g09/l202.exe)
                          Input orientation:                          
 ---------------------------------------------------------------------
 Center     Atomic      Atomic             Coordinates (Angstroms)
 Number     Number       Type             X           Y           Z
 ---------------------------------------------------------------------
      1          6           0        1.373260   -2.288794    0.437864
      2          6           0        0.356245   -3.201066    0.473411
      3          6           0       -0.986808   -2.792445    0.276851
      4          6           0       -1.257975   -1.424892    0.128232
      5          6           0       -3.345222   -3.324340    0.081512
      6          6           0       -2.057277   -3.736206    0.246056
      7          6           0       -0.190810   -0.475729    0.122598
      8          6           0        1.143740   -0.905032    0.196744
      9          6           0       -0.504079    0.923044    0.068966
     10          6           0        0.519414    1.869003    0.167139
     11          6           0        0.180122    3.250756    0.161882
     12          6           0       -1.115100    3.666410    0.031371
     13          6           0       -1.859817    1.352534   -0.044941
     14          6           0       -2.167617    2.720465   -0.081742
     15          6           0       -3.527382    3.131817   -0.222483
     16          6           0       -4.530249    2.213074   -0.305372
     17          6           0       -2.916259    0.393181   -0.109253
     18          6           0       -4.245937    0.815953   -0.240476
     19          6           0       -5.283291   -0.156660   -0.293646
     20          6           0       -4.996464   -1.488926   -0.198230
     21          6           0       -3.654077   -1.936782   -0.046429
     22          6           0       -2.615189   -0.996392   -0.013768
     23          6           0        1.890718    1.423753    0.227065
     24          6           0        2.214529    0.067378    0.102053
     25          6           0        4.231609    2.039194    0.417931
     26          6           0        2.922988    2.394512    0.417406
     27          6           0        4.601934    0.697261    0.103688
     28          6           0        3.604862   -0.277231   -0.114473
     29          6           0        4.032812   -1.531702   -0.618053
     30          6           0        5.362953   -1.822899   -0.793931
     31          6           0        6.349923   -0.872331   -0.476491
     32          6           0        5.972302    0.373596   -0.045120
     33          1           0        2.400523   -2.637033    0.613333
     34          1           0        0.565835   -4.260789    0.659511
     35          1           0       -4.166808   -4.049037    0.049851
     36          1           0       -1.817818   -4.800297    0.353960
     37          1           0        0.989989    3.989369    0.259688
     38          1           0       -1.359452    4.734719    0.015849
     39          1           0       -3.746272    4.205080   -0.261545
     40          1           0       -5.573496    2.530113   -0.416461
     41          1           0       -6.318437    0.184953   -0.407896
     42          1           0       -5.797772   -2.235913   -0.234464
     43          1           0        5.019245    2.775189    0.615603
     44          1           0        2.629284    3.442305    0.581710
     45          1           0        3.284759   -2.288149   -0.891645
     46          1           0        5.665085   -2.798219   -1.189822
     47          1           0        7.407711   -1.128357   -0.593612
     48          1           0        6.725106    1.139397    0.174871
 ---------------------------------------------------------------------
                    Distance matrix (angstroms):
                    1          2          3          4          5
     1  C    0.000000
     2  C    1.366683   0.000000
     3  C    2.418576   1.417532   0.000000
     4  C    2.786683   2.424799   1.402077   0.000000
     5  C    4.843906   3.724197   2.425529   2.822532   0.000000
     6  C    3.728321   2.482570   1.427423   2.448456   1.362171
     7  C    2.415143   2.801750   2.454502   1.428210   4.250481
     8  C    1.423241   2.443044   2.847451   2.458289   5.100697
     9  C    3.738501   4.232258   3.752479   2.466714   5.110042
    10  C    4.253190   5.081931   4.899984   3.743044   6.474069
    11  C    5.673303   6.461739   6.155910   4.891927   7.460992
    12  C    6.466964   7.037221   6.464791   5.094227   7.338021
    13  C    4.893379   5.090667   4.248123   2.847156   4.908724
    14  C    6.156337   6.460852   5.649343   4.249180   6.160607
    15  C    7.337260   7.461383   6.465349   5.102628   6.465877
    16  C    7.461276   7.334660   6.160372   4.912289   5.675995
    17  C    5.088448   4.895650   3.744339   2.472184   3.747047
    18  C    6.455616   6.150297   4.889794   3.753031   4.249352
    19  C    7.027858   6.454545   5.072731   4.241410   3.732433
    20  C    6.451185   5.659860   4.242901   3.753262   2.484673
    21  C    5.062863   4.236901   2.819751   2.456388   1.427262
    22  C    4.216871   3.731936   2.441698   1.430316   2.441592
    23  C    3.754358   4.878959   5.104798   4.247213   7.069699
    24  C    2.524292   3.778075   4.296243   3.779662   6.512681
    25  C    5.186717   6.517810   7.113123   6.497642   9.289190
    26  C    4.933096   6.156444   6.496983   5.670267   8.491676
    27  C    4.410502   5.775770   6.591059   6.232389   8.906798
    28  C    3.054752   4.409981   5.250035   5.002322   7.591242
    29  C    2.959960   4.182728   5.252324   5.344229   7.624850
    30  C    4.201432   5.345337   6.511993   6.696678   8.879924
    31  C    5.254482   6.499961   7.621153   7.651871  10.015965
    32  C    5.335990   6.677364   7.652235   7.452619  10.025320
    33  H    1.098785   2.125273   3.407548   3.884484   5.811094
    34  H    2.142388   1.096164   2.170982   3.413335   4.062929
    35  H    5.825922   4.621306   3.426799   3.918365   1.095989
    36  H    4.061732   2.701548   2.174395   3.428955   2.141410
    37  H    6.292374   7.221472   7.064065   5.863859   8.503890
    38  H    7.548215   8.132014   7.540900   6.161472   8.300363
    39  H    8.298746   8.498341   7.541211   6.167668   7.547893
    40  H    8.497598   8.294584   7.060313   5.878986   6.283933
    41  H    8.123850   7.536127   6.144920   5.337350   4.625437
    42  H    7.202675   6.269332   4.869964   4.625911   2.701761
    43  H    6.242493   7.581518   8.196705   7.568468  10.365994
    44  H    5.868882   7.022308   7.213956   6.245481   9.040598
    45  H    2.328394   3.357527   4.457126   4.735166   6.780662
    46  H    4.618293   5.577850   6.811669   7.179976   9.114753
    47  H    6.230983   7.426831   8.602025   8.700753  10.995622
    48  H    6.361125   7.713050   8.656986   8.384948  11.015679
                    6          7          8          9         10
     6  C    0.000000
     7  C    3.758943   0.000000
     8  C    4.273697   1.403860   0.000000
     9  C    4.914508   1.434426   2.464446   0.000000
    10  C    6.169598   2.450341   2.843577   1.397146   0.000000
    11  C    7.336939   3.745107   4.266187   2.427964   1.422810
    12  C    7.465421   4.244990   5.101743   2.810839   2.433257
    13  C    5.100877   2.481168   3.765152   1.426696   2.443862
    14  C    6.465928   3.763665   4.918015   2.453731   2.829676
    15  C    7.039210   4.926071   6.187995   3.755527   4.257119
    16  C    6.466343   5.122845   6.493755   4.244332   5.083380
    17  C    4.232721   2.869988   4.273474   2.476112   3.749440
    18  C    5.074356   4.271336   5.674642   3.756158   4.897309
    19  C    4.848875   5.119417   6.489011   4.913056   6.163362
    20  C    3.726456   4.921769   6.180537   5.105930   6.467928
    21  C    2.423478   3.762641   4.913521   4.256103   5.652225
    22  C    2.808087   2.483404   3.765927   2.854446   4.250759
    23  C    6.497092   2.819877   2.445841   2.451684   1.443022
    24  C    5.721566   2.465978   1.449531   2.850279   2.474572
    25  C    8.540192   5.096062   4.272274   4.877941   3.724547
    26  C    7.900513   4.245107   3.755184   3.745853   2.473047
    27  C    8.001311   4.934233   3.812494   5.111120   4.247819
    28  C    6.644871   3.808245   2.558928   4.284589   3.769033
    29  C    6.534195   4.416178   3.066488   5.203955   4.952301
    30  C    7.733184   5.787848   4.430088   6.535049   6.165523
    31  C    8.910940   6.580075   5.249634   7.106211   6.474874
    32  C    9.024932   6.223620   5.000841   6.500648   5.658205
    33  H    4.605981   3.409848   2.180110   4.626790   4.903266
    34  H    2.706816   3.897110   3.436456   5.325935   6.149710
    35  H    2.141607   5.346249   6.173189   6.175560   7.549678
    36  H    1.096026   4.626291   4.895777   5.879095   7.069450
    37  H    8.304849   4.620625   4.897220   3.416279   2.173926
    38  H    8.502736   5.340962   6.172964   3.906834   3.430066
    39  H    8.134764   5.890572   7.087699   4.625237   4.882326
    40  H    7.215919   6.188617   7.569511   5.340160   6.156396
    41  H    5.827574   6.185930   7.565562   5.880385   7.065614
    42  H    4.058704   5.887594   7.081085   6.172055   7.544433
    43  H    9.623513   6.160860   5.360878   5.851185   4.612024
    44  H    8.579483   4.849196   4.610247   4.053091   2.664338
    45  H    5.650538   4.048844   2.771564   5.058639   5.103927
    46  H    7.910527   6.434898   5.094044   7.313749   7.078293
    47  H    9.853523   7.660052   6.317584   8.200224   7.550599
    48  H   10.045239   7.102202   5.944058   7.233197   6.248440
                   11         12         13         14         15
    11  C    0.000000
    12  C    1.366529   0.000000
    13  C    2.794168   2.431964   0.000000
    14  C    2.419182   1.419647   1.402616   0.000000
    15  C    3.729272   2.483815   2.445024   1.427578   0.000000
    16  C    4.845896   3.726771   2.817723   2.426826   1.362609
    17  C    4.222183   3.738713   1.428484   2.444888   2.808277
    18  C    5.067559   4.242776   2.453512   2.823433   2.424845
    19  C    6.454989   5.665273   3.749627   4.246196   3.728588
    20  C    7.027895   6.457181   4.235085   5.072959   4.848717
    21  C    6.454071   6.152091   3.746862   4.888841   5.073238
    22  C    5.087522   4.898370   2.467592   3.744325   4.232939
    23  C    2.503663   3.755362   3.761060   4.271640   5.698717
    24  C    3.778398   4.903514   4.274755   5.125998   6.516568
    25  C    4.236506   5.602191   6.147456   6.454757   7.861672
    26  C    2.884746   4.251223   4.916778   5.125393   6.523829
    27  C    5.106480   6.442480   6.496591   7.067854   8.492304
    28  C    4.924622   6.152366   5.702954   6.504519   7.905832
    29  C    6.190592   7.344597   6.585617   7.537498   8.891649
    30  C    7.315552   8.531049   7.925451   8.823767  10.193813
    31  C    7.448074   8.751265   8.516812   9.252702  10.661091
    32  C    6.470722   7.815353   7.893061   8.471566   9.893596
    33  H    6.308728   7.240971   5.873709   7.074872   8.313740
    34  H    7.537885   8.127766   6.155439   7.533865   8.496056
    35  H    8.496784   8.297071   5.874365   7.059762   7.214409
    36  H    8.297476   8.501941   6.165891   7.541489   8.134699
    37  H    1.100454   2.141921   3.894494   3.420112   4.623258
    38  H    2.143306   1.096008   3.419537   2.172527   2.706661
    39  H    4.062831   2.701672   3.426755   2.174525   1.096053
    40  H    5.827343   4.622664   3.913584   3.427577   2.141555
    41  H    7.207986   6.276003   4.623232   4.874885   4.063050
    42  H    8.123783   7.538932   5.331075   6.145489   5.828151
    43  H    4.883558   6.226218   7.055619   7.220822   8.595022
    44  H    2.492256   3.791241   4.991178   4.896068   6.216725
    45  H    6.436471   7.461065   6.359099   7.447856   8.730926
    46  H    8.276595   9.447414   8.669697   9.645462  10.981918
    47  H    8.484423   9.798913   9.609523  10.332587  11.741511
    48  H    6.877123   8.238642   8.590381   9.035826  10.451849
                   16         17         18         19         20
    16  C    0.000000
    17  C    2.440376   0.000000
    18  C    1.427232   1.401427   0.000000
    19  C    2.486534   2.437040   1.422993   0.000000
    20  C    3.732779   2.806687   2.424364   1.366128   0.000000
    21  C    4.249239   2.444801   2.822322   2.425755   1.423243
    22  C    3.748754   1.425017   2.448536   2.811094   2.438665
    23  C    6.491173   4.927699   6.184379   7.364459   7.489850
    24  C    7.089573   5.145463   6.512704   7.511597   7.383135
    25  C    8.793381   7.353863   8.590611   9.790886   9.898718
    26  C    7.490398   6.195120   7.370084   8.623056   8.841822
    27  C    9.266163   7.527352   8.855357   9.929991   9.848848
    28  C    8.509882   6.555494   7.927545   8.890777   8.686658
    29  C    9.351317   7.228668   8.613462   9.422620   9.039132
    30  C   10.695944   8.597974   9.980011  10.787454  10.381904
    31  C   11.310488   9.359408  10.732112  11.656641  11.366535
    32  C   10.665598   8.888815  10.229675  11.270818  11.126827
    33  H    8.509004   6.162183   7.538403   8.125015   7.529423
    34  H    8.295298   5.863055   7.052406   7.208652   6.273605
    35  H    6.282699   4.617628   4.874288   4.063880   2.702599
    36  H    7.548468   5.328541   6.147469   5.830288   4.623189
    37  H    5.826451   5.322355   6.142934   7.539879   8.127670
    38  H    4.063967   4.613919   4.873830   6.278367   7.211618
    39  H    2.141174   3.904188   3.425827   4.624742   5.829982
    40  H    1.096002   3.423706   2.175254   2.705190   4.066112
    41  H    2.705809   3.421602   2.172889   1.096029   2.143232
    42  H    4.626568   3.902682   3.423757   2.142775   1.096082
    43  H    9.610255   8.316947   9.508684  10.750104  10.916017
    44  H    7.318254   6.366132   7.405564   8.736570   9.114679
    45  H    9.037647   6.801051   8.171343   8.849426   8.348547
    46  H   11.394742   9.219118  10.592065  11.298137  10.787313
    47  H   12.400126  10.446724  11.820006  12.731681  12.415711
    48  H   11.316644   9.674373  10.983666  12.087220  12.018423
                   21         22         23         24         25
    21  C    0.000000
    22  C    1.401674   0.000000
    23  C    6.489434   5.120381   0.000000
    24  C    6.203165   4.946837   1.400084   0.000000
    25  C    8.843532   7.501985   2.427955   2.838388   0.000000
    26  C    7.888792   6.508114   1.429750   2.452940   1.356001
    27  C    8.667320   7.414116   2.809574   2.469100   1.427121
    28  C    7.446539   6.262297   2.438910   1.448676   2.458066
    29  C    7.718751   6.696838   3.746666   2.526215   3.723451
    30  C    9.048678   8.058693   4.862058   3.780014   4.202894
    31  C   10.069659   8.977902   5.064731   4.280098   3.710017
    32  C    9.899750   8.696140   4.223298   3.773100   2.453293
    33  H    6.130565   5.314351   4.110850   2.758593   5.025749
    34  H    4.868986   4.607441   5.852892   4.664974   7.292876
    35  H    2.175726   3.424940   8.165565   7.594015  10.379569
    36  H    3.425182   3.903936   7.246250   6.325942   9.131172
    37  H    7.535272   6.158725   2.719331   4.111734   3.786334
    38  H    7.055360   5.867144   4.644428   5.879187   6.219926
    39  H    6.146319   5.328794   6.304774   7.265255   8.294536
    40  H    4.875884   4.620604   7.573153   8.184575   9.852781
    41  H    3.425088   3.907039   8.326345   8.548999  10.743540
    42  H    2.172616   3.422565   8.527546   8.343582  10.922025
    43  H    9.892800   8.538473   3.430018   3.932226   1.095962
    44  H    8.295165   6.896457   2.178486   3.433980   2.136114
    45  H    6.998950   6.103170   4.119840   2.771522   4.619244
    46  H    9.428478   8.555268   5.837676   4.667646   5.295309
    47  H   11.104779  10.040525   6.133840   5.374278   4.598285
    48  H   10.827710   9.583230   4.843025   4.636791   2.662000
                   26         27         28         29         30
    26  C    0.000000
    27  C    2.407891   0.000000
    28  C    2.808212   1.411162   0.000000
    29  C    4.209400   2.411034   1.417898   0.000000
    30  C    5.020690   2.781380   2.437548   1.372955   0.000000
    31  C    4.818215   2.419854   2.832059   2.413258   1.406576
    32  C    3.687323   1.415914   2.456249   2.778496   2.399295
    33  H    5.062391   4.027835   2.747508   2.324313   3.379230
    34  H    7.064546   6.417265   5.069859   4.593475   5.573880
    35  H    9.587473   9.971012   8.640161   8.603304   9.822627
    36  H    8.616527   8.455707   7.076936   6.771882   7.857864
    37  H    2.510962   4.889628   5.018110   6.364859   7.349517
    38  H    4.896642   7.200479   7.055567   8.291343   9.425966
    39  H    6.943930   9.062600   8.611150   9.672224  10.936085
    40  H    8.538382  10.352260   9.602845  10.431689  11.776975
    41  H    9.537673  10.944344   9.938389  10.494733  11.858978
    42  H    9.895323  10.810723   9.605225   9.863236  11.182369
    43  H    2.139741   2.180365   3.442493   4.587403   4.821549
    44  H    1.100512   3.413959   3.907859   5.305663   6.089968
    45  H    4.875635   3.411496   2.179508   1.098475   2.131877
    46  H    6.088246   3.875801   3.428743   2.143665   1.095108
    47  H    5.791848   3.419283   3.926277   3.399004   2.168767
    48  H    4.011264   2.169888   3.438965   3.874525   3.401358
                   31         32         33         34         35
    31  C    0.000000
    32  C    1.371501   0.000000
    33  H    4.460901   4.717526   0.000000
    34  H    6.799104   7.155691   2.450469   0.000000
    35  H   10.998642  11.062110   6.741002   4.776446   0.000000
    36  H    9.101129   9.360257   4.747777   2.462973   2.484880
    37  H    7.273718   6.163616   6.784089   8.270723   9.552620
    38  H    9.545463   8.530986   8.296814   9.221724   9.221538
    39  H   11.303072  10.448818   9.239210   9.545342   8.270687
    40  H   12.399522  11.751337   9.557450   9.217671   6.743993
    41  H   12.712588  12.297539   9.220996   8.264211   4.771343
    42  H   12.226382  12.057364   8.251769   6.737567   2.455259
    43  H    4.033333   2.666931   6.012475   8.327050  11.457474
    44  H    5.794741   4.581010   6.083722   7.975056  10.128670
    45  H    3.401782   3.876130   1.780042   3.699991   7.714466
    46  H    2.164922   3.386021   3.732922   5.617961   9.988366
    47  H    1.094615   2.148745   5.367005   7.628480  11.954660
    48  H    2.147576   1.096157   5.758097   8.205699  12.065209
                   36         37         38         39         40
    36  H    0.000000
    37  H    9.227724   0.000000
    38  H    9.552012   2.476868   0.000000
    39  H    9.230091   4.769736   2.460564   0.000000
    40  H    8.272459   6.757658   4.775494   2.483598   0.000000
    41  H    6.759342   8.266337   6.743252   4.774816   2.460647
    42  H    4.770989   9.223449   8.267469   6.759865   4.774770
    43  H   10.207932   4.223247   6.699794   8.924588  10.645722
    44  H    9.368515   1.757916   4.230904   6.476158   8.313486
    45  H    5.822260   6.782239   8.468348   9.591373  10.095055
    46  H    7.898444   8.368330  10.370290  11.767817  12.461738
    47  H    9.974538   8.252660  10.564575  12.367989  13.488051
    48  H   10.406421   6.404772   8.849390  10.919644  12.391101
                   41         42         43         44         45
    41  H    0.000000
    42  H    2.482290   0.000000
    43  H   11.674755  11.951636   0.000000
    44  H    9.573472  10.194291   2.481553   0.000000
    45  H    9.928324   9.106425   5.560363   5.953026   0.000000
    46  H   12.373985  11.516335   5.894026   7.162300   2.452556
    47  H   13.790083  13.256713   4.733354   6.716077   4.293329
    48  H   13.091394  12.976238   2.404168   4.716425   4.972074
                   46         47         48
    46  H    0.000000
    47  H    2.486091   0.000000
    48  H    4.300099   2.489824   0.000000
 Stoichiometry    C32H16
 Framework group  C1[X(C32H16)]
 Deg. of freedom   138
 Full point group                 C1      NOp   1
 Largest Abelian subgroup         C1      NOp   1
 Largest concise Abelian subgroup C1      NOp   1
                         Standard orientation:                         
 ---------------------------------------------------------------------
 Center     Atomic      Atomic             Coordinates (Angstroms)
 Number     Number       Type             X           Y           Z
 ---------------------------------------------------------------------
      1          6           0       -1.362792   -2.283081   -0.443097
      2          6           0       -0.347218   -3.196897   -0.480162
      3          6           0        0.996486   -2.790712   -0.283001
      4          6           0        1.269816   -1.423831   -0.132185
      5          6           0        3.354067   -3.326641   -0.088625
      6          6           0        2.065467   -3.736208   -0.253777
      7          6           0        0.204149   -0.472996   -0.124971
      8          6           0       -1.131079   -0.900074   -0.199752
      9          6           0        0.519625    0.925192   -0.069094
     10          6           0       -0.502379    1.872922   -0.165694
     11          6           0       -0.160908    3.254128   -0.158219
     12          6           0        1.134973    3.667527   -0.027093
     13          6           0        1.876043    1.352360    0.045448
     14          6           0        2.186002    2.719743    0.084446
     15          6           0        3.546419    3.128722    0.225791
     16          6           0        4.547840    2.208266    0.307152
     17          6           0        2.930974    0.391239    0.108164
     18          6           0        4.261322    0.811701    0.240012
     19          6           0        5.297144   -0.162631    0.291565
     20          6           0        5.008212   -1.494287    0.194010
     21          6           0        3.665115   -1.939780    0.041544
     22          6           0        2.627709   -0.997701    0.010447
     23          6           0       -1.874386    1.429932   -0.226279
     24          6           0       -2.200331    0.073869   -0.103444
     25          6           0       -4.214311    2.049371   -0.416049
     26          6           0       -2.905132    2.402624   -0.415007
     27          6           0       -4.586739    0.707518   -0.103957
     28          6           0       -3.591196   -0.268896    0.112586
     29          6           0       -4.021103   -1.523503    0.614157
     30          6           0       -5.351695   -1.812886    0.789623
     31          6           0       -6.337177   -0.860251    0.473762
     32          6           0       -5.957610    0.385775    0.044387
     33          1           0       -2.390610   -2.629415   -0.619083
     34          1           0       -0.558487   -4.255986   -0.667965
     35          1           0        4.174510   -4.052682   -0.058170
     36          1           0        1.824326   -4.799745   -0.363389
     37          1           0       -0.969613    3.994174   -0.254797
     38          1           0        1.381010    4.735423   -0.009857
     39          1           0        3.767003    4.201574    0.266577
     40          1           0        5.591590    2.523480    0.418707
     41          1           0        6.332831    0.177165    0.406322
     42          1           0        5.808342   -2.242594    0.229002
     43          1           0       -5.000794    2.786925   -0.612497
     44          1           0       -2.609783    3.450216   -0.577630
     45          1           0       -3.274232   -2.281570    0.886494
     46          1           0       -5.655347   -2.788366    1.183951
     47          1           0       -7.395362   -1.114798    0.590515
     48          1           0       -6.709214    1.153115   -0.174333
 ---------------------------------------------------------------------
 Rotational constants (GHZ):      0.2851764      0.1096037      0.0801129
 Leave Link  202 at Sat Jul 27 10:29:56 2019, MaxMem=  4194304000 cpu:         0.8
 (Enter /home/minenky/programs//g09/l301.exe)
 Standard basis: def2TZVP (5D, 7F)
 ======================================================================================================
                                       Pseudopotential Parameters
 ======================================================================================================
  Center     Atomic      Valence      Angular      Power
  Number     Number     Electrons     Momentum     of R      Exponent        Coefficient   SO-Coeffient
 ======================================================================================================
    1          6
                                   No pseudopotential on this center.
    2          6
                                   No pseudopotential on this center.
    3          6
                                   No pseudopotential on this center.
    4          6
                                   No pseudopotential on this center.
    5          6
                                   No pseudopotential on this center.
    6          6
                                   No pseudopotential on this center.
    7          6
                                   No pseudopotential on this center.
    8          6
                                   No pseudopotential on this center.
    9          6
                                   No pseudopotential on this center.
   10          6
                                   No pseudopotential on this center.
   11          6
                                   No pseudopotential on this center.
   12          6
                                   No pseudopotential on this center.
   13          6
                                   No pseudopotential on this center.
   14          6
                                   No pseudopotential on this center.
   15          6
                                   No pseudopotential on this center.
   16          6
                                   No pseudopotential on this center.
   17          6
                                   No pseudopotential on this center.
   18          6
                                   No pseudopotential on this center.
   19          6
                                   No pseudopotential on this center.
   20          6
                                   No pseudopotential on this center.
   21          6
                                   No pseudopotential on this center.
   22          6
                                   No pseudopotential on this center.
   23          6
                                   No pseudopotential on this center.
   24          6
                                   No pseudopotential on this center.
   25          6
                                   No pseudopotential on this center.
   26          6
                                   No pseudopotential on this center.
   27          6
                                   No pseudopotential on this center.
   28          6
                                   No pseudopotential on this center.
   29          6
                                   No pseudopotential on this center.
   30          6
                                   No pseudopotential on this center.
   31          6
                                   No pseudopotential on this center.
   32          6
                                   No pseudopotential on this center.
   33          1
                                   No pseudopotential on this center.
   34          1
                                   No pseudopotential on this center.
   35          1
                                   No pseudopotential on this center.
   36          1
                                   No pseudopotential on this center.
   37          1
                                   No pseudopotential on this center.
   38          1
                                   No pseudopotential on this center.
   39          1
                                   No pseudopotential on this center.
   40          1
                                   No pseudopotential on this center.
   41          1
                                   No pseudopotential on this center.
   42          1
                                   No pseudopotential on this center.
   43          1
                                   No pseudopotential on this center.
   44          1
                                   No pseudopotential on this center.
   45          1
                                   No pseudopotential on this center.
   46          1
                                   No pseudopotential on this center.
   47          1
                                   No pseudopotential on this center.
   48          1
                                   No pseudopotential on this center.
 ======================================================================================================
 Ernie: Thresh=  0.10000D-02 Tol=  0.10000D-05 Strict=F.
 AO basis set (Overlap normalization):
 Atom C1       Shell     1 S   6     bf    1 -     1         -2.575303458087         -4.314398051661         -0.837332280522
      0.1357534968D+05  0.6064550360D-03
      0.2035233368D+04  0.4697908888D-02
      0.4632256236D+03  0.2433247765D-01
      0.1312001960D+03  0.9739996831D-01
      0.4285301589D+02  0.3019558425D+00
      0.1558418577D+02  0.6623360914D+00
 Atom C1       Shell     2 S   2     bf    2 -     2         -2.575303458087         -4.314398051661         -0.837332280522
      0.6206713851D+01  0.6559530854D+00
      0.2576489653D+01  0.3758563329D+00
 Atom C1       Shell     3 S   1     bf    3 -     3         -2.575303458087         -4.314398051661         -0.837332280522
      0.5769633942D+00  0.1000000000D+01
 Atom C1       Shell     4 S   1     bf    4 -     4         -2.575303458087         -4.314398051661         -0.837332280522
      0.2297283136D+00  0.1000000000D+01
 Atom C1       Shell     5 S   1     bf    5 -     5         -2.575303458087         -4.314398051661         -0.837332280522
      0.9516444003D-01  0.1000000000D+01
 Atom C1       Shell     6 P   4     bf    6 -     8         -2.575303458087         -4.314398051661         -0.837332280522
      0.3469723224D+02  0.1132722000D-01
      0.7958262283D+01  0.7616965920D-01
      0.2378082688D+01  0.3019225220D+00
      0.8143320818D+00  0.7278502735D+00
 Atom C1       Shell     7 P   1     bf    9 -    11         -2.575303458087         -4.314398051661         -0.837332280522
      0.2888754725D+00  0.1000000000D+01
 Atom C1       Shell     8 P   1     bf   12 -    14         -2.575303458087         -4.314398051661         -0.837332280522
      0.1005682367D+00  0.1000000000D+01
 Atom C1       Shell     9 D   1     bf   15 -    19         -2.575303458087         -4.314398051661         -0.837332280522
      0.1097000000D+01  0.1000000000D+01
 Atom C1       Shell    10 D   1     bf   20 -    24         -2.575303458087         -4.314398051661         -0.837332280522
      0.3180000000D+00  0.1000000000D+01
 Atom C1       Shell    11 F   1     bf   25 -    31         -2.575303458087         -4.314398051661         -0.837332280522
      0.7610000000D+00  0.1000000000D+01
 Atom C2       Shell    12 S   6     bf   32 -    32         -0.656146875916         -6.041259180823         -0.907374141987
      0.1357534968D+05  0.6064550360D-03
      0.2035233368D+04  0.4697908888D-02
      0.4632256236D+03  0.2433247765D-01
      0.1312001960D+03  0.9739996831D-01
      0.4285301589D+02  0.3019558425D+00
      0.1558418577D+02  0.6623360914D+00
 Atom C2       Shell    13 S   2     bf   33 -    33         -0.656146875916         -6.041259180823         -0.907374141987
      0.6206713851D+01  0.6559530854D+00
      0.2576489653D+01  0.3758563329D+00
 Atom C2       Shell    14 S   1     bf   34 -    34         -0.656146875916         -6.041259180823         -0.907374141987
      0.5769633942D+00  0.1000000000D+01
 Atom C2       Shell    15 S   1     bf   35 -    35         -0.656146875916         -6.041259180823         -0.907374141987
      0.2297283136D+00  0.1000000000D+01
 Atom C2       Shell    16 S   1     bf   36 -    36         -0.656146875916         -6.041259180823         -0.907374141987
      0.9516444003D-01  0.1000000000D+01
 Atom C2       Shell    17 P   4     bf   37 -    39         -0.656146875916         -6.041259180823         -0.907374141987
      0.3469723224D+02  0.1132722000D-01
      0.7958262283D+01  0.7616965920D-01
      0.2378082688D+01  0.3019225220D+00
      0.8143320818D+00  0.7278502735D+00
 Atom C2       Shell    18 P   1     bf   40 -    42         -0.656146875916         -6.041259180823         -0.907374141987
      0.2888754725D+00  0.1000000000D+01
 Atom C2       Shell    19 P   1     bf   43 -    45         -0.656146875916         -6.041259180823         -0.907374141987
      0.1005682367D+00  0.1000000000D+01
 Atom C2       Shell    20 D   1     bf   46 -    50         -0.656146875916         -6.041259180823         -0.907374141987
      0.1097000000D+01  0.1000000000D+01
 Atom C2       Shell    21 D   1     bf   51 -    55         -0.656146875916         -6.041259180823         -0.907374141987
      0.3180000000D+00  0.1000000000D+01
 Atom C2       Shell    22 F   1     bf   56 -    62         -0.656146875916         -6.041259180823         -0.907374141987
      0.7610000000D+00  0.1000000000D+01
 Atom C3       Shell    23 S   6     bf   63 -    63          1.883084798464         -5.273682226990         -0.534793492920
      0.1357534968D+05  0.6064550360D-03
      0.2035233368D+04  0.4697908888D-02
      0.4632256236D+03  0.2433247765D-01
      0.1312001960D+03  0.9739996831D-01
      0.4285301589D+02  0.3019558425D+00
      0.1558418577D+02  0.6623360914D+00
 Atom C3       Shell    24 S   2     bf   64 -    64          1.883084798464         -5.273682226990         -0.534793492920
      0.6206713851D+01  0.6559530854D+00
      0.2576489653D+01  0.3758563329D+00
 Atom C3       Shell    25 S   1     bf   65 -    65          1.883084798464         -5.273682226990         -0.534793492920
      0.5769633942D+00  0.1000000000D+01
 Atom C3       Shell    26 S   1     bf   66 -    66          1.883084798464         -5.273682226990         -0.534793492920
      0.2297283136D+00  0.1000000000D+01
 Atom C3       Shell    27 S   1     bf   67 -    67          1.883084798464         -5.273682226990         -0.534793492920
      0.9516444003D-01  0.1000000000D+01
 Atom C3       Shell    28 P   4     bf   68 -    70          1.883084798464         -5.273682226990         -0.534793492920
      0.3469723224D+02  0.1132722000D-01
      0.7958262283D+01  0.7616965920D-01
      0.2378082688D+01  0.3019225220D+00
      0.8143320818D+00  0.7278502735D+00
 Atom C3       Shell    29 P   1     bf   71 -    73          1.883084798464         -5.273682226990         -0.534793492920
      0.2888754725D+00  0.1000000000D+01
 Atom C3       Shell    30 P   1     bf   74 -    76          1.883084798464         -5.273682226990         -0.534793492920
      0.1005682367D+00  0.1000000000D+01
 Atom C3       Shell    31 D   1     bf   77 -    81          1.883084798464         -5.273682226990         -0.534793492920
      0.1097000000D+01  0.1000000000D+01
 Atom C3       Shell    32 D   1     bf   82 -    86          1.883084798464         -5.273682226990         -0.534793492920
      0.3180000000D+00  0.1000000000D+01
 Atom C3       Shell    33 F   1     bf   87 -    93          1.883084798464         -5.273682226990         -0.534793492920
      0.7610000000D+00  0.1000000000D+01
 Atom C4       Shell    34 S   6     bf   94 -    94          2.399603846076         -2.690650401024         -0.249793346637
      0.1357534968D+05  0.6064550360D-03
      0.2035233368D+04  0.4697908888D-02
      0.4632256236D+03  0.2433247765D-01
      0.1312001960D+03  0.9739996831D-01
      0.4285301589D+02  0.3019558425D+00
      0.1558418577D+02  0.6623360914D+00
 Atom C4       Shell    35 S   2     bf   95 -    95          2.399603846076         -2.690650401024         -0.249793346637
      0.6206713851D+01  0.6559530854D+00
      0.2576489653D+01  0.3758563329D+00
 Atom C4       Shell    36 S   1     bf   96 -    96          2.399603846076         -2.690650401024         -0.249793346637
      0.5769633942D+00  0.1000000000D+01
 Atom C4       Shell    37 S   1     bf   97 -    97          2.399603846076         -2.690650401024         -0.249793346637
      0.2297283136D+00  0.1000000000D+01
 Atom C4       Shell    38 S   1     bf   98 -    98          2.399603846076         -2.690650401024         -0.249793346637
      0.9516444003D-01  0.1000000000D+01
 Atom C4       Shell    39 P   4     bf   99 -   101          2.399603846076         -2.690650401024         -0.249793346637
      0.3469723224D+02  0.1132722000D-01
      0.7958262283D+01  0.7616965920D-01
      0.2378082688D+01  0.3019225220D+00
      0.8143320818D+00  0.7278502735D+00
 Atom C4       Shell    40 P   1     bf  102 -   104          2.399603846076         -2.690650401024         -0.249793346637
      0.2888754725D+00  0.1000000000D+01
 Atom C4       Shell    41 P   1     bf  105 -   107          2.399603846076         -2.690650401024         -0.249793346637
      0.1005682367D+00  0.1000000000D+01
 Atom C4       Shell    42 D   1     bf  108 -   112          2.399603846076         -2.690650401024         -0.249793346637
      0.1097000000D+01  0.1000000000D+01
 Atom C4       Shell    43 D   1     bf  113 -   117          2.399603846076         -2.690650401024         -0.249793346637
      0.3180000000D+00  0.1000000000D+01
 Atom C4       Shell    44 F   1     bf  118 -   124          2.399603846076         -2.690650401024         -0.249793346637
      0.7610000000D+00  0.1000000000D+01
 Atom C5       Shell    45 S   6     bf  125 -   125          6.338267231335         -6.286439956374         -0.167476093145
      0.1357534968D+05  0.6064550360D-03
      0.2035233368D+04  0.4697908888D-02
      0.4632256236D+03  0.2433247765D-01
      0.1312001960D+03  0.9739996831D-01
      0.4285301589D+02  0.3019558425D+00
      0.1558418577D+02  0.6623360914D+00
 Atom C5       Shell    46 S   2     bf  126 -   126          6.338267231335         -6.286439956374         -0.167476093145
      0.6206713851D+01  0.6559530854D+00
      0.2576489653D+01  0.3758563329D+00
 Atom C5       Shell    47 S   1     bf  127 -   127          6.338267231335         -6.286439956374         -0.167476093145
      0.5769633942D+00  0.1000000000D+01
 Atom C5       Shell    48 S   1     bf  128 -   128          6.338267231335         -6.286439956374         -0.167476093145
      0.2297283136D+00  0.1000000000D+01
 Atom C5       Shell    49 S   1     bf  129 -   129          6.338267231335         -6.286439956374         -0.167476093145
      0.9516444003D-01  0.1000000000D+01
 Atom C5       Shell    50 P   4     bf  130 -   132          6.338267231335         -6.286439956374         -0.167476093145
      0.3469723224D+02  0.1132722000D-01
      0.7958262283D+01  0.7616965920D-01
      0.2378082688D+01  0.3019225220D+00
      0.8143320818D+00  0.7278502735D+00
 Atom C5       Shell    51 P   1     bf  133 -   135          6.338267231335         -6.286439956374         -0.167476093145
      0.2888754725D+00  0.1000000000D+01
 Atom C5       Shell    52 P   1     bf  136 -   138          6.338267231335         -6.286439956374         -0.167476093145
      0.1005682367D+00  0.1000000000D+01
 Atom C5       Shell    53 D   1     bf  139 -   143          6.338267231335         -6.286439956374         -0.167476093145
      0.1097000000D+01  0.1000000000D+01
 Atom C5       Shell    54 D   1     bf  144 -   148          6.338267231335         -6.286439956374         -0.167476093145
      0.3180000000D+00  0.1000000000D+01
 Atom C5       Shell    55 F   1     bf  149 -   155          6.338267231335         -6.286439956374         -0.167476093145
      0.7610000000D+00  0.1000000000D+01
 Atom C6       Shell    56 S   6     bf  156 -   156          3.903166401652         -7.060410836170         -0.479569775685
      0.1357534968D+05  0.6064550360D-03
      0.2035233368D+04  0.4697908888D-02
      0.4632256236D+03  0.2433247765D-01
[...]
 935,-0.00020736,0.00000524,-0.00023219,-0.00018880,-0.00016474,-0.0000
 0015,-0.00006959,0.00004002,0.00000368,0.00005733,0.00008144,-0.000018
 18,0.00060383,-0.00011000,-0.00005214,0.00018246,0.00035281,-0.0001192
 9,-0.00000383,0.00010054,0.00000493,-0.00014895,0.00003601,-0.00006306
 ,0.00003450,-0.00005592,0.00000499,-0.00002183,0.00002443,-0.00000094,
 0.00004218,0.00001661,0.00001256,0.00002929,0.00000400,0.00000348,-0.0
 0002055,0.00001385,-0.00000266,0.00001590,0.00000404,0.00000326,-0.000
 07437,0.00001624,-0.00001048,0.00006332,-0.00001340,0.00000488,-0.0000
 3138,-0.00003169,-0.00000121,-0.00002429,0.00003667,-0.00000537,0.0000
 0762,-0.00005501,0.00000207,0.00010076,-0.00004353,0.00003423,0.000008
 59,-0.00051032,-0.00002772,-0.00151434,0.00033127,0.00189681,-0.001340
 03,-0.00028617,-0.00003885,0.00019856,0.00000517,0.00007941,0.00300871
 ,-0.00265475,-0.00416640,-0.01969136,-0.01376660,-0.00789192,-0.128201
 04,-0.17481945,-0.07075905,0.00738241,0.00884198,0.00169176,0.00159519
 ,0.00199158,-0.00358133,0.00047456,-0.00010368,0.00038610,-0.00229337,
 0.00069836,0.00157267,-0.00004253,-0.00005060,0.00009047,-0.00000945,0
 .00000039,-0.00000009,-0.00000231,-0.00001182,0.00000157,-0.00000728,0
 .00003013,-0.00000375,0.00000056,0.00000050,0.00000040,-0.00000044,0.0
 0000250,-0.00000119,-0.00000298,0.00000238,-0.00000109,-0.00000313,0.0
 0000109,-0.00000078,-0.00000400,-0.00000131,-0.00000059,0.00009037,-0.
 00038577,-0.00011352,0.00004457,0.00000451,-0.00001978,0.14011231,0.18
 078419,0.00149325,0.00000275,-0.00043032,0.00028993,0.00028245,-0.0000
 0814,-0.00015885,0.00008226,-0.00010747,-0.00022356,-0.00017293,-0.000
 00240,-0.00008539,0.00009807,-0.00001314,0.00005235,0.00010410,-0.0000
 3536,0.00011674,0.00033197,0.00013830,-0.00002459,-0.00092038,-0.00032
 657,0.00001054,-0.00013505,-0.00000987,0.00011094,0.00005630,0.0001293
 4,-0.00004676,0.00006539,-0.00000462,0.00008378,0.00002669,0.00000252,
 -0.00005997,0.00007684,-0.00001869,-0.00005144,-0.00001921,-0.00000927
 ,0.00004945,0.00002501,0.00000360,0.00001745,-0.00004919,0.00000104,-0
 .00002122,-0.00001225,0.00000308,-0.00001148,0.00002468,0.00000029,-0.
 00007509,-0.00003779,-0.00000936,0.00000990,0.00007126,-0.00000532,-0.
 00003518,-0.00008728,0.00000638,0.00011479,-0.00004335,-0.00001174,-0.
 00012070,0.00082096,0.00016922,0.00065509,0.00087104,-0.00229809,-0.00
 066286,-0.00049591,0.00005063,-0.00032715,-0.00016407,-0.00022606,0.00
 120792,-0.00359841,0.00389688,-0.01128940,-0.00527976,0.00055258,-0.06
 561565,-0.07153360,-0.07407261,0.00391538,0.00252122,0.00566679,0.0018
 0283,-0.00224216,0.00718125,0.00119200,-0.00036784,-0.00117150,0.00245
 280,0.00075919,-0.00349757,0.00001440,0.00001817,0.00007322,-0.0000201
 5,-0.00000076,0.00000368,0.00001513,0.00000006,0.00000770,-0.00000589,
 0.00002753,0.00000131,0.00000106,0.00000381,0.00000226,0.00000013,0.00
 000626,0.00000198,-0.00000454,0.00000124,0.00000102,-0.00000244,0.0000
 0487,0.00000105,-0.00000816,-0.00000345,0.00000183,0.00007387,-0.00027
 633,0.00002327,0.00001232,-0.00000342,0.00001225,0.06530659,0.07637837
 ,0.06885206,-0.00002543,0.00004784,-0.00004127,-0.00002182,-0.00003642
 ,-0.00003448,0.00000861,-0.00001996,0.00001181,0.00001163,0.00001959,0
 .00000084,0.00000830,-0.00001453,-0.00000033,-0.00001559,-0.00000142,-
 0.00000169,0.00002460,-0.00009662,0.00000306,0.00001434,0.00002592,-0.
 00001095,0.00000325,0.00008262,0.00000140,-0.00003957,0.00016072,-0.00
 004654,-0.00004487,-0.00003960,-0.00001430,-0.00002819,0.00000782,0.00
 000236,0.00002301,-0.00000668,0.00000537,0.00001416,0.00001664,0.00000
 164,-0.00001311,-0.00001338,-0.00000240,-0.00000624,0.00002020,-0.0000
 0194,-0.00000762,0.00000930,-0.00000157,0.00000135,-0.00000982,0.00000
 057,0.00000733,0.00000574,-0.00000023,0.00000254,-0.00001006,0.0000007
 3,-0.00000673,0.00001365,-0.00000241,-0.00001789,-0.00001267,-0.000000
 80,-0.00028736,0.00022084,0.00008242,0.00067191,0.00118186,0.00045603,
 0.00039220,-0.00024897,-0.00009292,-0.00034953,-0.00015852,-0.00000117
 ,-0.00131687,-0.00004554,-0.00017033,-0.00561214,0.00031187,0.00109700
 ,-0.00323833,0.02767969,0.01417095,-0.07713155,0.05890992,0.03031281,0
 .01026994,-0.02034862,-0.01043175,-0.00296615,-0.00336602,-0.00104049,
 0.00002194,0.00006253,0.00004591,-0.00001930,-0.00001966,0.00001668,-0
 .00000122,-0.00000086,0.00000074,-0.00000329,-0.00000552,0.00000438,0.
 00000478,-0.00000149,-0.00000059,-0.00000717,0.00000353,0.00000028,-0.
 00000091,0.00000119,0.00000015,-0.00000102,-0.00000034,0.00000042,-0.0
 0000098,0.00000013,0.00000034,-0.00000133,-0.00000094,0.00000060,-0.00
 000552,0.00007701,0.00002628,0.00000752,0.00001220,-0.00000008,0.00082
 882,-0.00004825,-0.00028974,0.07777510,-0.00004947,-0.00005509,0.00009
 419,0.00005240,0.00003435,0.00000463,-0.00005248,0.00002050,-0.0000179
 0,-0.00002698,-0.00003956,0.00000403,-0.00001201,0.00001593,-0.0000016
 4,0.00002451,0.00000074,0.00000059,0.00003320,0.00004141,0.00000468,-0
 .00003108,-0.00003329,-0.00007729,0.00002061,-0.00004093,-0.00000782,-
 0.00000702,-0.00003779,0.00001585,0.00002607,0.00001897,0.00002472,0.0
 0002103,0.00000327,0.00000071,-0.00002040,0.00000272,-0.00000101,-0.00
 000219,-0.00001926,-0.00000026,0.00000432,0.00001489,0.00000153,0.0000
 0870,-0.00001346,0.00000242,0.00000529,-0.00000427,-0.00000001,0.00001
 090,0.00000414,0.00000108,-0.00000459,-0.00000983,0.00000078,-0.000010
 44,0.00000781,-0.00000103,0.00001225,-0.00001320,0.00000320,0.00001751
 ,0.00000629,0.00000179,0.00007697,-0.00019556,0.00010132,-0.00049662,-
 0.00007736,-0.00009869,-0.00008980,0.00007096,0.00042535,0.00025882,0.
 00012843,-0.00003258,-0.00005143,0.00019872,0.00055994,0.00107192,0.00
 242383,-0.00319904,-0.00154951,-0.00180716,-0.00246609,0.06065394,-0.2
 6571992,-0.11608379,0.00746828,-0.01326451,-0.00798737,-0.00397885,0.0
 0027566,-0.00283331,-0.00004188,-0.00002847,-0.00002953,0.00000248,0.0
 0000739,0.00000742,0.00000334,0.00000181,-0.00000017,-0.00000081,0.000
 00316,-0.00000165,-0.00000538,0.00000526,-0.00000219,0.00000571,-0.000
 00482,-0.00000348,0.00000105,-0.00000362,-0.00000059,0.00000319,0.0000
 0037,-0.00000047,0.00000266,-0.00000166,-0.00000032,0.00000237,0.00000
 274,-0.00000067,-0.00001006,0.00003258,-0.00000441,0.00001562,-0.00001
 218,-0.00002272,0.00038592,-0.00030289,0.00232388,-0.06384080,0.279046
 55,0.00024731,0.00017617,-0.00024833,-0.00016857,-0.00008303,-0.000004
 93,0.00015470,-0.00000921,0.00004597,0.00005952,0.00008095,-0.00000019
 ,0.00005281,-0.00004584,0.00000700,-0.00007383,-0.00003461,0.00000129,
 -0.00002271,-0.00008429,-0.00004223,-0.00007511,-0.00017610,0.00013602
 ,0.00000807,0.00010008,0.00001203,-0.00014612,0.00008057,-0.00003617,0
 .00003163,-0.00005540,-0.00002771,-0.00005340,-0.00000755,-0.00000244,
 0.00001561,-0.00000523,0.00000423,0.00004108,0.00002090,0.00000363,-0.
 00003594,0.00000002,-0.00000618,0.00001356,0.00003210,-0.00000035,-0.0
 0000280,-0.00001372,0.,-0.00000853,-0.00003557,0.00000036,0.00000779,0
 .00003424,-0.00000153,0.00002602,-0.00002365,0.00000376,-0.00001377,0.
 00005937,-0.00000713,-0.00003289,0.00001170,-0.00000323,0.00038431,0.0
 0058769,-0.00025470,0.00071443,-0.00060757,0.00005780,0.00040031,-0.00
 029287,-0.00087521,-0.00064873,-0.00022613,0.00005984,-0.00094517,0.00
 105016,-0.00056448,0.00025367,-0.00134969,0.00783486,0.00179653,-0.005
 13612,0.00092091,0.02882028,-0.11693892,-0.09591471,0.00437817,-0.0052
 7029,-0.00043491,-0.00123831,-0.00319276,0.00470974,0.00010848,-0.0000
 5845,0.00005855,0.00001991,0.00001068,-0.00002798,0.00000222,-0.000000
 69,0.00000010,0.00000138,0.00000538,0.00000073,-0.00000219,0.00000262,
 0.00000099,-0.00000127,-0.00000078,0.00000601,-0.00000041,-0.00000099,
 0.00000087,0.00000107,0.00000065,0.00000078,0.00000073,0.00000008,0.00
 000079,0.00000084,0.00000049,0.00000057,-0.00001388,-0.00000103,0.0000
 3598,-0.00001101,-0.00001265,0.00003681,-0.00016577,0.00249351,-0.0037
 6604,-0.03390009,0.12802516,0.09057416,-0.00001997,-0.00005191,0.00009
 404,0.00000976,0.00004576,0.00000788,-0.00001467,-0.00001060,-0.000008
 55,-0.00000896,-0.00000487,-0.00000054,-0.00001630,0.00000016,-0.00000
 074,0.00000531,0.00002574,-0.00000442,0.00000302,-0.00001496,0.0000063
 1,0.00001525,0.00002859,-0.00000886,-0.00000513,-0.00001990,0.00000220
 ,0.00004053,-0.00001732,-0.00000452,-0.00002040,0.00001285,-0.00000621
 ,0.00000695,0.00000553,0.00000090,0.00000430,0.00000324,0.00000026,-0.
 00000901,0.00000716,-0.00000058,0.00000850,-0.00000539,0.00000074,-0.0
 0000326,-0.00000691,-0.00000039,-0.00000861,0.00000435,-0.00000048,-0.
 00000709,0.00000630,-0.00000145,-0.00000396,-0.00000346,-0.00000030,0.
 00000102,0.00000767,-0.00000070,-0.00000616,-0.00001541,0.00000025,0.0
 0000991,-0.00001422,0.00000192,-0.00001434,-0.00004939,0.00001182,-0.0
 0003726,0.00004733,0.00001949,-0.00042634,-0.00014872,-0.00002586,0.00
 007997,0.00025861,0.00003244,0.00179938,0.00090751,0.00063743,0.000592
 88,-0.00042745,-0.00027299,-0.00123762,-0.00372046,-0.00169027,-0.0160
 2826,0.00819150,0.00448731,-0.32236147,0.06294255,0.03728251,-0.003781
 57,-0.00069236,0.00006998,-0.00001795,0.00003879,-0.00005507,-0.000001
 70,-0.00000629,0.00000097,-0.00000557,-0.00000103,-0.00000005,0.000002
 01,-0.00000453,0.00000021,0.00000688,-0.00000964,0.00000103,-0.0000037
 2,0.00000435,0.00000010,-0.00000014,0.00000403,0.,-0.00000429,0.000000
 06,-0.00000023,-0.00000349,0.00000214,-0.00000034,-0.00000283,-0.00000
 307,0.00000003,0.00001012,0.00002203,0.00001556,-0.00003770,0.00000973
 ,-0.00000407,-0.00086412,0.00037685,0.00023858,0.00077141,-0.00026300,
 -0.00021184,0.34081061,0.00001772,-0.00002735,0.00003364,0.00002936,0.
 00003574,0.00000660,-0.00002565,0.00000851,-0.00000856,-0.00002203,-0.
 00001151,-0.00000336,-0.00001077,0.00001247,-0.00000193,0.00001584,0.0
 0000706,-0.00000009,0.00001226,0.00004996,-0.00000751,0.00004510,0.000
 04845,0.00002721,-0.00000845,-0.00005598,0.00000182,0.00006721,0.00001
 089,-0.00001565,-0.00000643,0.00000640,0.00000636,0.00002320,0.0000147
 0,-0.00000314,-0.00000656,0.00000394,-0.00000178,-0.00001075,-0.000013
 48,-0.00000314,0.00001059,0.00000846,0.00000387,-0.00000052,-0.0000129
 8,0.00000079,0.00000126,-0.00000268,-0.00000004,0.00000478,0.00000827,
 0.00000044,-0.00000541,-0.00000676,0.00000003,-0.00000592,0.00000640,-
 0.00000063,0.00000371,-0.00001017,0.00000146,0.00001265,0.00000395,0.0
 0000145,-0.00029688,-0.00029923,-0.00015453,-0.00029636,0.00014406,0.0
 0047204,0.00101921,0.00064620,0.00002394,0.00038507,-0.00045331,0.0001
 2108,0.00017471,-0.00386716,-0.00509953,0.00006977,-0.00104238,-0.0000
 7668,-0.00321499,-0.00126759,-0.00349354,-0.02057518,0.00911682,0.0038
 9723,0.06213704,-0.07195542,-0.01722777,0.02886019,-0.00153772,-0.0033
 5993,-0.00001029,0.00002198,-0.00002929,-0.00000048,0.00000032,0.00000
 025,-0.00000020,0.00000060,-0.00000013,0.00000007,0.00000031,-0.000000
 20,-0.00000507,0.00001693,0.00000332,0.00000203,-0.00000180,-0.0000001
 8,0.00000030,-0.00000112,-0.00000026,0.00000116,0.00000030,-0.00000063
 ,0.00000082,-0.00000042,-0.00000013,0.00000019,0.00000083,-0.00000023,
 -0.00002344,-0.00001810,-0.00006114,0.00013241,-0.00005128,0.00004473,
 -0.00098035,0.00022405,0.00016221,0.00061468,0.00005032,0.00139686,-0.
 06786474,0.07006116,-0.00005092,-0.00011519,0.00007390,0.00003887,0.00
 002364,0.00001620,-0.00002109,0.00000874,-0.00002513,-0.00002177,-0.00
 003049,-0.00000116,-0.00001008,0.00001974,-0.00000113,0.00001429,0.000
 00604,-0.00000353,-0.00001320,0.00006157,0.00003160,0.00009633,-0.0000
 8610,-0.00003427,0.00000749,-0.00004230,-0.00000657,0.00005872,0.00000
 475,0.00006182,-0.00000529,0.00001890,-0.00000314,0.00001463,0.0000015
 0,0.00001178,-0.00001086,0.00000816,0.00000016,-0.00001131,-0.00000447
 ,-0.00000033,0.00001221,0.00000353,-0.00000435,0.00000116,-0.00000944,
 -0.00000046,0.00000531,-0.00000431,0.00000117,-0.00000272,0.00000836,-
 0.00000063,-0.00000872,-0.00000854,-0.00000135,-0.00000026,0.00000982,
 -0.00000173,-0.00000111,-0.00001609,0.00000067,0.00001317,-0.00000089,
 0.00000103,-0.00007414,0.00005425,0.00007359,0.00005997,0.00031311,-0.
 00079255,0.00073149,0.00001094,0.00011933,0.00000610,-0.00007933,-0.00
 049347,0.00079048,-0.00468672,0.00728096,-0.00030438,-0.00040981,-0.00
 107863,-0.00122320,-0.00349403,0.00474324,-0.00829745,0.00270096,0.003
 84758,0.03748972,-0.01779539,-0.04626112,0.01198125,-0.00128017,0.0020
 8015,-0.00003148,0.00000288,-0.00001557,0.00000287,0.00000740,0.000010
 63,-0.00000061,0.00000030,0.00000108,0.00000126,0.00000200,0.00000082,
 -0.00000062,0.00000507,-0.00001185,0.00000058,-0.00000027,0.00000176,0
 .00000003,-0.00000006,0.00000092,0.00000043,-0.00000015,0.00000165,0.0
 0000071,0.00000008,0.00000065,-0.00000006,0.00000040,0.00000066,-0.000
 03170,-0.00003681,0.00009717,0.00004528,-0.00001273,0.00000263,-0.0003
 9084,0.00009919,0.00009003,0.00010372,0.00153828,-0.00226067,-0.040532
 31,0.02137996,0.03648074,0.00000417,0.00003108,-0.00001484,0.00000082,
 -0.00002088,-0.00000375,0.00001236,-0.00000125,0.00000062,-0.00003567,
 0.00003616,-0.00002178,-0.00000101,0.00000071,0.00000053,-0.00000370,0
 .00000434,0.00000221,-0.00005789,-0.00012775,0.00002810,-0.00035972,0.
 00031807,0.00009654,-0.00001117,0.00000405,0.00000581,0.00007845,0.000
 08772,0.00000540,-0.00004311,-0.00002389,-0.00000339,-0.00000917,0.000
 00543,0.00000239,0.00002566,0.00001197,0.00000106,-0.00001275,0.000014
 70,-0.00000244,0.00000494,-0.00000915,0.00000070,-0.00001029,0.0000065
 3,-0.00000135,-0.00000567,0.00000235,-0.00000028,-0.00000333,0.0000034
 6,-0.00000036,-0.00000198,0.00000116,-0.00000049,0.00000498,-0.0000004
 1,0.00000028,-0.00001098,0.00000029,-0.00000058,-0.00000548,-0.0000196
 0,0.00000074,0.00008593,-0.00009206,0.00002590,-0.00040563,-0.00150021
 ,-0.00024608,0.00109567,-0.00192773,-0.00067769,0.00017977,0.00035213,
 0.00007096,-0.01702638,-0.02208821,-0.00731793,-0.00415629,0.00272530,
 0.00133401,-0.00038952,0.00106145,0.00036730,0.00089708,0.00185239,0.0
 0119690,0.00972449,0.00729273,0.00251177,-0.19708964,-0.13254873,-0.04
 276159,0.00000955,0.00001858,0.00000583,-0.00000525,-0.00000726,0.0000
 0023,-0.00000274,-0.00000137,-0.00000087,0.00000084,-0.00000238,-0.000
 00022,0.00000023,0.00001324,-0.00000387,-0.00000629,0.00000509,-0.0000
 0024,-0.00000204,0.00000379,-0.00000047,-0.00000215,-0.00000029,-0.000
 00016,-0.00000185,0.00000124,-0.00000025,-0.00000231,-0.00000179,0.000
 00008,-0.00008789,0.00131628,0.00038010,-0.00004537,0.00002287,0.00001
 679,0.00001710,-0.00008717,-0.00009701,0.00030699,0.00035577,0.0002319
 1,0.00077409,-0.00027084,-0.00043191,0.20657214,0.00002829,-0.00000686
 ,0.00004958,-0.00001720,0.00000451,0.00000219,0.00001471,-0.00000827,0
 .00000052,0.00001022,0.00000366,0.00001700,0.00000149,-0.00000646,0.00
 000227,-0.00000929,0.00000598,-0.00000101,0.00003731,-0.00002055,-0.00
 000698,0.00001706,-0.00003627,-0.00009713,-0.00000040,0.00005559,-0.00
 000195,-0.00006112,-0.00001098,-0.00000621,-0.00000206,-0.00001018,-0.
 00000489,-0.00001955,-0.00000881,0.00000104,0.00000998,-0.00000105,0.0
 0000167,0.00000521,0.00001311,0.00000133,-0.00000595,-0.00000999,-0.00
 000034,-0.00000303,0.00000941,-0.00000020,-0.00000807,0.00000663,-0.00
 000053,-0.00000367,-0.00000365,-0.00000079,0.00000164,0.00000330,0.000
 00046,0.00000503,-0.00000098,0.00000094,-0.00000528,0.00000066,-0.0000
 0206,-0.00000055,-0.00000604,0.00000096,0.00021134,0.00027694,0.000074
 08,0.00050828,0.00019118,-0.00005160,0.00183705,0.00063611,0.00151775,
 -0.00046145,0.00007210,0.00001268,0.00496524,0.00683698,0.00122554,0.0
 0193021,0.00160771,-0.00153481,0.00118019,-0.00067191,0.00012384,0.002
 49603,-0.00303540,-0.00461794,-0.02238121,-0.01345840,-0.00522655,-0.1
 3237850,-0.18597063,-0.04926290,-0.00000834,0.00000541,-0.00001775,0.0
 0000192,-0.00000179,-0.00000473,-0.00000267,-0.00000113,-0.00000075,0.
 00000156,-0.00000187,-0.00000113,0.00000379,-0.00000995,-0.00000127,-0
 .00000248,0.00000340,-0.00000151,-0.00000046,0.00000288,-0.00000056,-0
 .00000272,-0.00000019,-0.00000051,-0.00000223,0.00000134,-0.00000057,-
 0.00000145,-0.00000227,-0.00000054,-0.00025480,-0.00000630,-0.00009010
 ,-0.00002546,0.00002089,-0.00007861,-0.00005478,-0.00014506,0.00029654
 ,-0.00113876,-0.00073397,-0.00050625,0.00040284,0.00012736,0.00182370,
 0.14318208,0.19428383,-0.00006065,0.00004804,-0.00005562,-0.00000057,-
 0.00000240,-0.00000406,0.00000768,0.00000096,0.00001111,0.00001553,-0.
 00000579,-0.00003493,0.00000204,-0.00000644,-0.00000162,-0.00000600,0.
 00000238,-0.00000003,0.00001792,0.00001051,0.00000477,0.00007123,-0.00
 010640,0.00021627,0.00000571,0.00001786,0.00000938,-0.00002963,-0.0000
 1910,0.00001456,0.00000032,-0.00001065,-0.00000157,-0.00000716,-0.0000
 0127,-0.00000709,0.00000119,0.00000132,-0.00000357,0.00000274,0.000004
 58,0.00000050,-0.00000311,-0.00000376,-0.00000121,-0.00000011,0.000003
 53,-0.00000161,-0.00000250,0.00000209,-0.00000101,-0.00000372,-0.00000
 154,0.00000053,0.00000100,0.00000257,-0.00000117,0.00000314,-0.0000003
 2,-0.00000021,-0.00000136,0.00000173,0.00000300,-0.00000155,-0.0000015
 5,-0.00000284,0.00001689,0.00010012,0.00002039,0.00023045,0.00013043,-
 0.00002909,0.00029181,0.00113851,-0.00289476,-0.00017994,0.00003703,-0
 .00009840,0.00568848,0.00284632,0.00380758,0.00046680,-0.00330197,0.00
 432758,-0.00068177,0.00117000,-0.00044135,0.00214976,-0.00437526,0.006
 77446,-0.00893015,-0.00875427,0.00075541,-0.04373904,-0.04727169,-0.05
 201455,0.00004308,0.00000453,-0.00000590,0.00000056,-0.00000027,-0.000
 00144,-0.00000089,-0.00000036,0.00000052,0.00000034,-0.00000047,0.0000
 0096,0.00000253,-0.00000220,0.00000697,-0.00000222,0.00000196,0.000003
 04,-0.00000062,0.00000152,0.00000111,-0.00000135,-0.00000003,0.0000007
 2,-0.00000111,0.00000064,0.00000062,-0.00000061,-0.00000081,0.00000098
 ,-0.00017065,-0.00016766,0.00017740,-0.00004456,-0.00003174,0.00017510
 ,-0.00010974,0.00047393,-0.00084939,-0.00026041,-0.00026747,-0.0000346
 5,-0.00008118,0.00196471,-0.00403426,0.04530141,0.05636812,0.04420736\
 \0.00000027,0.00000056,0.00000050,-0.00000006,0.00000016,0.00000062,-0
 .00000005,0.00000011,0.00000041,0.00000017,0.00000042,0.00000025,0.,-0
 .00000010,0.00000052,-0.00000007,-0.00000001,0.00000080,0.00000038,0.,
 0.00000007,-0.00000035,0.00000043,0.00000021,0.00000033,0.00000009,0.0
 0000004,-0.00000017,-0.00000020,-0.00000051,0.00000032,-0.00000028,-0.
 00000055,0.00000002,-0.00000005,-0.00000065,0.00000022,-0.00000018,-0.
 00000026,0.00000014,-0.00000007,-0.00000049,-0.00000017,-0.00000006,-0
 .00000056,0.00000002,-0.00000006,-0.00000053,0.00000006,-0.00000020,-0
 .00000006,0.00000001,-0.00000008,-0.00000012,-0.00000003,0.00000003,-0
 .00000010,0.,-0.00000004,0.00000023,-0.00000006,0.,0.00000034,0.000000
 28,0.00000028,0.00000014,0.00000019,-0.00000079,-0.00000014,-0.0000001
 9,0.00000066,-0.00000023,-0.00000032,0.00000016,-0.00000044,-0.0000003
 6,0.00000019,-0.00000015,-0.00000028,-0.00000013,-0.00000006,-0.000000
 68,-0.00000017,0.00000010,-0.00000035,-0.00000001,0.00000057,0.0000000
 9,-0.00000004,0.00000029,0.00000024,-0.00000003,0.00000004,0.00000028,
 -0.00000024,-0.00000006,-0.00000017,0.00000012,0.00000046,0.00000008,-
 0.00000005,0.00000074,-0.00000007,-0.00000003,0.00000069,0.00000009,-0
 .00000002,0.00000082,-0.00000020,0.,-0.00000077,-0.00000004,0.00000005
 ,-0.00000086,0.,-0.00000002,-0.00000079,-0.00000004,-0.00000013,-0.000
 00052,0.,-0.00000013,-0.00000011,-0.00000005,-0.00000014,0.00000034,0.
 00000019,0.00000026,-0.00000052,0.00000009,-0.00000008,-0.00000063,0.0
 0000022,-0.00000010,0.00000038,-0.00000004,-0.00000029,0.00000047,0.,-
 0.00000008,0.00000022,0.00000004,0.00000031,-0.00000017\\\@


 The hours that make us happy make us wise.
                         -- John Masefield
 Job cpu time:       7 days 13 hours 14 minutes 40.0 seconds.
 File lengths (MBytes):  RWF=   4419 Int=      0 D2E=      0 Chk=     85 Scr=      1
 Normal termination of Gaussian 09 at Sun Jul 28 06:05:55 2019.
