 Entering Gaussian System, Link 0=/home/minenky/programs/g09/g09
 Input=m1_00_107-00-60_C4H6_wB97XD.inp
 Output=m1_00_107-00-60_C4H6_wB97XD.out
 Initial command:
 /home/minenky/programs//g09/l1.exe "/home/minenky/tmp/Gau-9006.inp" -scrdir="/home/minenky/tmp/"
 Entering Link 1 = /home/minenky/programs//g09/l1.exe PID=      9008.
  
 Copyright (c) 1988,1990,1992,1993,1995,1998,2003,2009,2013,
            Gaussian, Inc.  All Rights Reserved.
  
 This is part of the Gaussian(R) 09 program.  It is based on
 the Gaussian(R) 03 system (copyright 2003, Gaussian, Inc.),
 the Gaussian(R) 98 system (copyright 1998, Gaussian, Inc.),
 the Gaussian(R) 94 system (copyright 1995, Gaussian, Inc.),
 the Gaussian 92(TM) system (copyright 1992, Gaussian, Inc.),
 the Gaussian 90(TM) system (copyright 1990, Gaussian, Inc.),
 the Gaussian 88(TM) system (copyright 1988, Gaussian, Inc.),
 the Gaussian 86(TM) system (copyright 1986, Carnegie Mellon
 University), and the Gaussian 82(TM) system (copyright 1983,
 Carnegie Mellon University). Gaussian is a federally registered
 trademark of Gaussian, Inc.
  
 This software contains proprietary and confidential information,
 including trade secrets, belonging to Gaussian, Inc.
  
 This software is provided under written license and may be
 used, copied, transmitted, or stored only in accord with that
 written license.
  
 The following legend is applicable only to US Government
 contracts under FAR:
  
                    RESTRICTED RIGHTS LEGEND
  
 Use, reproduction and disclosure by the US Government is
 subject to restrictions as set forth in subparagraphs (a)
 and (c) of the Commercial Computer Software - Restricted
 Rights clause in FAR 52.227-19.
  
 Gaussian, Inc.
 340 Quinnipiac St., Bldg. 40, Wallingford CT 06492
  
  
 ---------------------------------------------------------------
 Warning -- This program may not be used in any manner that
 competes with the business of Gaussian, Inc. or will provide
 assistance to any competitor of Gaussian, Inc.  The licensee
 of this program is prohibited from giving any competitor of
 Gaussian, Inc. access to this program.  By using this program,
 the user acknowledges that Gaussian, Inc. is engaged in the
 business of creating and licensing software in the field of
 computational chemistry and represents and warrants to the
 licensee that it is not a competitor of Gaussian, Inc. and that
 it will not use this program in any manner prohibited above.
 ---------------------------------------------------------------
  

 Cite this work as:
 Gaussian 09, Revision D.01,
 M. J. Frisch, G. W. Trucks, H. B. Schlegel, G. E. Scuseria, 
 M. A. Robb, J. R. Cheeseman, G. Scalmani, V. Barone, B. Mennucci, 
 G. A. Petersson, H. Nakatsuji, M. Caricato, X. Li, H. P. Hratchian, 
 A. F. Izmaylov, J. Bloino, G. Zheng, J. L. Sonnenberg, M. Hada, 
 M. Ehara, K. Toyota, R. Fukuda, J. Hasegawa, M. Ishida, T. Nakajima, 
 Y. Honda, O. Kitao, H. Nakai, T. Vreven, J. A. Montgomery, Jr., 
 J. E. Peralta, F. Ogliaro, M. Bearpark, J. J. Heyd, E. Brothers, 
 K. N. Kudin, V. N. Staroverov, T. Keith, R. Kobayashi, J. Normand, 
 K. Raghavachari, A. Rendell, J. C. Burant, S. S. Iyengar, J. Tomasi, 
 M. Cossi, N. Rega, J. M. Millam, M. Klene, J. E. Knox, J. B. Cross, 
 V. Bakken, C. Adamo, J. Jaramillo, R. Gomperts, R. E. Stratmann, 
 O. Yazyev, A. J. Austin, R. Cammi, C. Pomelli, J. W. Ochterski, 
 R. L. Martin, K. Morokuma, V. G. Zakrzewski, G. A. Voth, 
 P. Salvador, J. J. Dannenberg, S. Dapprich, A. D. Daniels, 
 O. Farkas, J. B. Foresman, J. V. Ortiz, J. Cioslowski, 
 and D. J. Fox, Gaussian, Inc., Wallingford CT, 2013.
 
 ******************************************
 Gaussian 09:  AM64L-G09RevD.01 24-Apr-2013
                28-Sep-2023 
 ******************************************
 %chk=m1_00_107-00-60_C4H6_wB97XD
 %NProcLinda=1
 Will use up to    1 processors via Linda.
 %Nprocshared=16
 Will use up to   16 processors via shared memory.
 %mem=48000MB
 ----------------------------------------------------------------------
 #P wB97XD/def2tzvp opt=(tight) freq integral(Grid=ultrafine) # SCF(Max
 Cycle=380) 5d 7f GFPrint
 ----------------------------------------------------------------------
 1/7=10,14=-1,18=20,19=15,26=4,38=1/1,3;
 2/9=110,12=2,17=6,18=5,40=1/2;
 3/5=44,7=101,8=11,11=2,16=1,24=100,25=1,30=1,71=1,74=-58,75=-5/1,2,3;
 4//1;
 5/5=2,7=380,38=5/2;
 6/7=2,8=2,9=2,10=2,28=1/1;
 7//1,2,3,16;
 1/7=10,14=-1,18=20,19=15,26=4/3(2);
 2/9=110/2;
 99//99;
 2/9=110/2;
 3/5=44,7=101,8=11,11=2,16=1,25=1,30=1,71=1,74=-58,75=-5/1,2,3;
 4/5=5,16=3,69=1/1;
 5/5=2,7=380,38=5/2;
 7//1,2,3,16;
 1/7=10,14=-1,18=20,19=15,26=4/3(-5);
 2/9=110/2;
 6/7=2,8=2,9=2,10=2,19=2,28=1/1;
 99/9=1/99;
 Leave Link    1 at Thu Sep 28 14:47:44 2023, MaxMem=  6291456000 cpu:         0.3
 (Enter /home/minenky/programs//g09/l101.exe)
 ---------------------------------------
 The PBEPBE optimization and frequencies
 ---------------------------------------
 Symbolic Z-matrix:
 Charge =  0 Multiplicity = 1
 C                     1.88126  -0.27387   0. 
 C                     0.75498   0.15644   0. 
 H                     2.87436  -0.64498   0. 
 C                    -0.62037   0.64442   0. 
 C                    -1.64803  -0.49233   0. 
 H                    -2.65908  -0.08827   0. 
 H                    -1.52698  -1.11979   0.88064 
 H                    -1.52698  -1.11979  -0.88064 
 H                    -0.77063   1.28006   0.87415 
 H                    -0.77063   1.28006  -0.87415 
 
 NAtoms=     10 NQM=       10 NQMF=       0 NMMI=      0 NMMIF=      0
                NMic=       0 NMicF=      0.
                    Isotopes and Nuclear Properties:
 (Nuclear quadrupole moments (NQMom) in fm**2, nuclear magnetic moments (NMagM)
  in nuclear magnetons)

  Atom         1           2           3           4           5           6           7           8           9          10
 IAtWgt=          12          12           1          12          12           1           1           1           1           1
 AtmWgt=  12.0000000  12.0000000   1.0078250  12.0000000  12.0000000   1.0078250   1.0078250   1.0078250   1.0078250   1.0078250
 NucSpn=           0           0           1           0           0           1           1           1           1           1
 AtZEff=   0.0000000   0.0000000   0.0000000   0.0000000   0.0000000   0.0000000   0.0000000   0.0000000   0.0000000   0.0000000
 NQMom=    0.0000000   0.0000000   0.0000000   0.0000000   0.0000000   0.0000000   0.0000000   0.0000000   0.0000000   0.0000000
 NMagM=    0.0000000   0.0000000   2.7928460   0.0000000   0.0000000   2.7928460   2.7928460   2.7928460   2.7928460   2.7928460
 AtZNuc=   6.0000000   6.0000000   1.0000000   6.0000000   6.0000000   1.0000000   1.0000000   1.0000000   1.0000000   1.0000000
 Leave Link  101 at Thu Sep 28 14:47:45 2023, MaxMem=  6291456000 cpu:         4.4
 (Enter /home/minenky/programs//g09/l103.exe)

 GradGradGradGradGradGradGradGradGradGradGradGradGradGradGradGradGradGrad
 Berny optimization.
 Initialization pass.
                           ----------------------------
                           !    Initial Parameters    !
                           ! (Angstroms and Degrees)  !
 --------------------------                            --------------------------
 ! Name  Definition              Value          Derivative Info.                !
 --------------------------------------------------------------------------------
 ! R1    R(1,2)                  1.2057         estimate D2E/DX2                !
 ! R2    R(1,3)                  1.0602         estimate D2E/DX2                !
 ! R3    R(2,4)                  1.4593         estimate D2E/DX2                !
 ! R4    R(4,5)                  1.5324         estimate D2E/DX2                !
 ! R5    R(4,9)                  1.0912         estimate D2E/DX2                !
 ! R6    R(4,10)                 1.0912         estimate D2E/DX2                !
 ! R7    R(5,6)                  1.0888         estimate D2E/DX2                !
 ! R8    R(5,7)                  1.0881         estimate D2E/DX2                !
 ! R9    R(5,8)                  1.0881         estimate D2E/DX2                !
 ! A1    A(2,4,5)              112.5796         estimate D2E/DX2                !
 ! A2    A(2,4,9)              108.9389         estimate D2E/DX2                !
 ! A3    A(2,4,10)             108.9389         estimate D2E/DX2                !
 ! A4    A(5,4,9)              109.8619         estimate D2E/DX2                !
 ! A5    A(5,4,10)             109.8619         estimate D2E/DX2                !
 ! A6    A(9,4,10)             106.4666         estimate D2E/DX2                !
 ! A7    A(4,5,6)              110.3308         estimate D2E/DX2                !
 ! A8    A(4,5,7)              110.6816         estimate D2E/DX2                !
 ! A9    A(4,5,8)              110.6816         estimate D2E/DX2                !
 ! A10   A(6,5,7)              108.5006         estimate D2E/DX2                !
 ! A11   A(6,5,8)              108.5006         estimate D2E/DX2                !
 ! A12   A(7,5,8)              108.0674         estimate D2E/DX2                !
 ! A13   L(2,1,3,7,-1)         180.3844         estimate D2E/DX2                !
 ! A14   L(1,2,4,7,-1)         178.7429         estimate D2E/DX2                !
 ! A15   L(2,1,3,7,-2)         180.2814         estimate D2E/DX2                !
 ! A16   L(1,2,4,7,-2)         180.7077         estimate D2E/DX2                !
 ! D1    D(2,4,5,6)            180.0            estimate D2E/DX2                !
 ! D2    D(2,4,5,7)             59.8956         estimate D2E/DX2                !
 ! D3    D(2,4,5,8)            -59.8956         estimate D2E/DX2                !
 ! D4    D(9,4,5,6)             58.4021         estimate D2E/DX2                !
 ! D5    D(9,4,5,7)            -61.7024         estimate D2E/DX2                !
 ! D6    D(9,4,5,8)            178.5065         estimate D2E/DX2                !
 ! D7    D(10,4,5,6)           -58.4021         estimate D2E/DX2                !
 ! D8    D(10,4,5,7)          -178.5065         estimate D2E/DX2                !
 ! D9    D(10,4,5,8)            61.7024         estimate D2E/DX2                !
 --------------------------------------------------------------------------------
 Trust Radius=3.00D-01 FncErr=1.00D-07 GrdErr=1.00D-06
 Number of steps in this run=     44 maximum allowed number of steps=    100.
 GradGradGradGradGradGradGradGradGradGradGradGradGradGradGradGradGradGrad

 Leave Link  103 at Thu Sep 28 14:47:45 2023, MaxMem=  6291456000 cpu:         0.1
 (Enter /home/minenky/programs//g09/l202.exe)
                          Input orientation:                          
 ---------------------------------------------------------------------
 Center     Atomic      Atomic             Coordinates (Angstroms)
 Number     Number       Type             X           Y           Z
 ---------------------------------------------------------------------
      1          6           0        1.881264   -0.273874    0.000000
      2          6           0        0.754977    0.156441    0.000000
      3          1           0        2.874360   -0.644980    0.000000
      4          6           0       -0.620365    0.644422    0.000000
      5          6           0       -1.648026   -0.492327    0.000000
      6          1           0       -2.659075   -0.088266    0.000000
      7          1           0       -1.526978   -1.119792    0.880644
      8          1           0       -1.526978   -1.119792   -0.880644
      9          1           0       -0.770633    1.280056    0.874148
     10          1           0       -0.770633    1.280056   -0.874148
 ---------------------------------------------------------------------
                    Distance matrix (angstroms):
                    1          2          3          4          5
     1  C    0.000000
     2  C    1.205692   0.000000
     3  H    1.060169   2.265846   0.000000
     4  C    2.664848   1.459346   3.725005   0.000000
     5  C    3.536044   2.489041   4.524962   1.532412   0.000000
     6  H    4.544131   3.422811   5.561370   2.166373   1.088800
     7  H    3.620390   2.758917   4.513619   2.170238   1.088071
     8  H    3.620390   2.758917   4.513619   2.170238   1.088071
     9  H    3.195527   2.086656   4.213772   1.091213   2.162243
    10  H    3.195527   2.086656   4.213772   1.091213   2.162243
                    6          7          8          9         10
     6  H    0.000000
     7  H    1.766698   0.000000
     8  H    1.766698   1.761288   0.000000
     9  H    2.490513   2.516221   3.067674   0.000000
    10  H    2.490513   3.067674   2.516221   1.748296   0.000000
 Stoichiometry    C4H6
 Framework group  CS[SG(C4H2),X(H4)]
 Deg. of freedom    15
 Full point group                 CS      NOp   2
 Largest Abelian subgroup         CS      NOp   2
 Largest concise Abelian subgroup CS      NOp   2
                         Standard orientation:                         
 ---------------------------------------------------------------------
 Center     Atomic      Atomic             Coordinates (Angstroms)
 Number     Number       Type             X           Y           Z
 ---------------------------------------------------------------------
      1          6           0        0.640212    1.865035    0.000000
      2          6           0        0.000000    0.843359    0.000000
      3          1           0        1.196551    2.767502    0.000000
      4          6           0       -0.745002   -0.411497    0.000000
      5          6           0        0.171298   -1.639780    0.000000
      6          1           0       -0.420848   -2.553480    0.000000
      7          1           0        0.810326   -1.642493    0.880644
      8          1           0        0.810326   -1.642493   -0.880644
      9          1           0       -1.397702   -0.435870    0.874148
     10          1           0       -1.397702   -0.435870   -0.874148
 ---------------------------------------------------------------------
 Rotational constants (GHZ):     27.3969866      4.5540825      4.1016898
 Leave Link  202 at Thu Sep 28 14:47:45 2023, MaxMem=  6291456000 cpu:         0.0
 (Enter /home/minenky/programs//g09/l301.exe)
 Standard basis: def2TZVP (5D, 7F)
 ======================================================================================================
                                       Pseudopotential Parameters
 ======================================================================================================
  Center     Atomic      Valence      Angular      Power
  Number     Number     Electrons     Momentum     of R      Exponent        Coefficient   SO-Coeffient
 ======================================================================================================
    1          6
                                   No pseudopotential on this center.
    2          6
                                   No pseudopotential on this center.
    3          1
                                   No pseudopotential on this center.
    4          6
                                   No pseudopotential on this center.
    5          6
                                   No pseudopotential on this center.
    6          1
                                   No pseudopotential on this center.
    7          1
                                   No pseudopotential on this center.
    8          1
                                   No pseudopotential on this center.
    9          1
                                   No pseudopotential on this center.
   10          1
                                   No pseudopotential on this center.
 ======================================================================================================
 Ernie: Thresh=  0.10000D-02 Tol=  0.10000D-05 Strict=F.
 AO basis set (Overlap normalization):
 Atom C1       Shell     1 S   6     bf    1 -     1          1.209826089386          3.524405287330          0.000000000000
      0.1357534968D+05  0.6064550360D-03
      0.2035233368D+04  0.4697908888D-02
      0.4632256236D+03  0.2433247765D-01
      0.1312001960D+03  0.9739996831D-01
      0.4285301589D+02  0.3019558425D+00
      0.1558418577D+02  0.6623360914D+00
 Atom C1       Shell     2 S   2     bf    2 -     2          1.209826089386          3.524405287330          0.000000000000
      0.6206713851D+01  0.6559530854D+00
      0.2576489653D+01  0.3758563329D+00
 Atom C1       Shell     3 S   1     bf    3 -     3          1.209826089386          3.524405287330          0.000000000000
      0.5769633942D+00  0.1000000000D+01
 Atom C1       Shell     4 S   1     bf    4 -     4          1.209826089386          3.524405287330          0.000000000000
      0.2297283136D+00  0.1000000000D+01
 Atom C1       Shell     5 S   1     bf    5 -     5          1.209826089386          3.524405287330          0.000000000000
      0.9516444003D-01  0.1000000000D+01
 Atom C1       Shell     6 P   4     bf    6 -     8          1.209826089386          3.524405287330          0.000000000000
      0.3469723224D+02  0.1132722000D-01
      0.7958262283D+01  0.7616965920D-01
      0.2378082688D+01  0.3019225220D+00
      0.8143320818D+00  0.7278502735D+00
 Atom C1       Shell     7 P   1     bf    9 -    11          1.209826089386          3.524405287330          0.000000000000
      0.2888754725D+00  0.1000000000D+01
 Atom C1       Shell     8 P   1     bf   12 -    14          1.209826089386          3.524405287330          0.000000000000
      0.1005682367D+00  0.1000000000D+01
 Atom C1       Shell     9 D   1     bf   15 -    19          1.209826089386          3.524405287330          0.000000000000
      0.1097000000D+01  0.1000000000D+01
 Atom C1       Shell    10 D   1     bf   20 -    24          1.209826089386          3.524405287330          0.000000000000
      0.3180000000D+00  0.1000000000D+01
 Atom C1       Shell    11 F   1     bf   25 -    31          1.209826089386          3.524405287330          0.000000000000
      0.7610000000D+00  0.1000000000D+01
 Atom C2       Shell    12 S   6     bf   32 -    32          0.000000000000          1.593717775726          0.000000000000
      0.1357534968D+05  0.6064550360D-03
      0.2035233368D+04  0.4697908888D-02
      0.4632256236D+03  0.2433247765D-01
      0.1312001960D+03  0.9739996831D-01
      0.4285301589D+02  0.3019558425D+00
      0.1558418577D+02  0.6623360914D+00
 Atom C2       Shell    13 S   2     bf   33 -    33          0.000000000000          1.593717775726          0.000000000000
      0.6206713851D+01  0.6559530854D+00
      0.2576489653D+01  0.3758563329D+00
 Atom C2       Shell    14 S   1     bf   34 -    34          0.000000000000          1.593717775726          0.000000000000
      0.5769633942D+00  0.1000000000D+01
 Atom C2       Shell    15 S   1     bf   35 -    35          0.000000000000          1.593717775726          0.000000000000
      0.2297283136D+00  0.1000000000D+01
 Atom C2       Shell    16 S   1     bf   36 -    36          0.000000000000          1.593717775726          0.000000000000
      0.9516444003D-01  0.1000000000D+01
 Atom C2       Shell    17 P   4     bf   37 -    39          0.000000000000          1.593717775726          0.000000000000
      0.3469723224D+02  0.1132722000D-01
      0.7958262283D+01  0.7616965920D-01
      0.2378082688D+01  0.3019225220D+00
      0.8143320818D+00  0.7278502735D+00
 Atom C2       Shell    18 P   1     bf   40 -    42          0.000000000000          1.593717775726          0.000000000000
      0.2888754725D+00  0.1000000000D+01
 Atom C2       Shell    19 P   1     bf   43 -    45          0.000000000000          1.593717775726          0.000000000000
      0.1005682367D+00  0.1000000000D+01
 Atom C2       Shell    20 D   1     bf   46 -    50          0.000000000000          1.593717775726          0.000000000000
      0.1097000000D+01  0.1000000000D+01
 Atom C2       Shell    21 D   1     bf   51 -    55          0.000000000000          1.593717775726          0.000000000000
      0.3180000000D+00  0.1000000000D+01
 Atom C2       Shell    22 F   1     bf   56 -    62          0.000000000000          1.593717775726          0.000000000000
      0.7610000000D+00  0.1000000000D+01
 Atom H3       Shell    23 S   3     bf   63 -    63          2.261154504424          5.229820258125          0.000000000000
      0.3406134100D+02  0.2543930721D-01
      0.5123574600D+01  0.1900859489D+00
      0.1164662600D+01  0.8524411301D+00
 Atom H3       Shell    24 S   1     bf   64 -    64          2.261154504424          5.229820258125          0.000000000000
      0.3272304100D+00  0.1000000000D+01
 Atom H3       Shell    25 S   1     bf   65 -    65          2.261154504424          5.229820258125          0.000000000000
      0.1030724100D+00  0.1000000000D+01
 Atom H3       Shell    26 P   1     bf   66 -    68          2.261154504424          5.229820258125          0.000000000000
      0.8000000000D+00  0.1000000000D+01
 Atom C4       Shell    27 S   6     bf   69 -    69         -1.407849838353         -0.777615980102          0.000000000000
      0.1357534968D+05  0.6064550360D-03
      0.2035233368D+04  0.4697908888D-02
      0.4632256236D+03  0.2433247765D-01
      0.1312001960D+03  0.9739996831D-01
      0.4285301589D+02  0.3019558425D+00
      0.1558418577D+02  0.6623360914D+00
 Atom C4       Shell    28 S   2     bf   70 -    70         -1.407849838353         -0.777615980102          0.000000000000
      0.6206713851D+01  0.6559530854D+00
      0.2576489653D+01  0.3758563329D+00
 Atom C4       Shell    29 S   1     bf   71 -    71         -1.407849838353         -0.777615980102          0.000000000000
      0.5769633942D+00  0.1000000000D+01
 Atom C4       Shell    30 S   1     bf   72 -    72         -1.407849838353         -0.777615980102          0.000000000000
      0.2297283136D+00  0.1000000000D+01
 Atom C4       Shell    31 S   1     bf   73 -    73         -1.407849838353         -0.777615980102          0.000000000000
      0.9516444003D-01  0.1000000000D+01
 Atom C4       Shell    32 P   4     bf   74 -    76         -1.407849838353         -0.777615980102          0.000000000000
      0.3469723224D+02  0.1132722000D-01
      0.7958262283D+01  0.7616965920D-01
      0.2378082688D+01  0.3019225220D+00
      0.8143320818D+00  0.7278502735D+00
 Atom C4       Shell    33 P   1     bf   77 -    79         -1.407849838353         -0.777615980102          0.000000000000
      0.2888754725D+00  0.1000000000D+01
 Atom C4       Shell    34 P   1     bf   80 -    82         -1.407849838353         -0.777615980102          0.000000000000
      0.1005682367D+00  0.1000000000D+01
 Atom C4       Shell    35 D   1     bf   83 -    87         -1.407849838353         -0.777615980102          0.000000000000
      0.1097000000D+01  0.1000000000D+01
 Atom C4       Shell    36 D   1     bf   88 -    92         -1.407849838353         -0.777615980102          0.000000000000
      0.3180000000D+00  0.1000000000D+01
 Atom C4       Shell    37 F   1     bf   93 -    99         -1.407849838353         -0.777615980102          0.000000000000
      0.7610000000D+00  0.1000000000D+01
 Atom C5       Shell    38 S   6     bf  100 -   100          0.323705687711         -3.098735321750          0.000000000000
      0.1357534968D+05  0.6064550360D-03
      0.2035233368D+04  0.4697908888D-02
      0.4632256236D+03  0.2433247765D-01
      0.1312001960D+03  0.9739996831D-01
      0.4285301589D+02  0.3019558425D+00
      0.1558418577D+02  0.6623360914D+00
 Atom C5       Shell    39 S   2     bf  101 -   101          0.323705687711         -3.098735321750          0.000000000000
      0.6206713851D+01  0.6559530854D+00
      0.2576489653D+01  0.3758563329D+00
 Atom C5       Shell    40 S   1     bf  102 -   102          0.323705687711         -3.098735321750          0.000000000000
      0.5769633942D+00  0.1000000000D+01
 Atom C5       Shell    41 S   1     bf  103 -   103          0.323705687711         -3.098735321750          0.000000000000
      0.2297283136D+00  0.1000000000D+01
 Atom C5       Shell    42 S   1     bf  104 -   104          0.323705687711         -3.098735321750          0.000000000000
      0.9516444003D-01  0.1000000000D+01
 Atom C5       Shell    43 P   4     bf  105 -   107          0.323705687711         -3.098735321750          0.000000000000
      0.3469723224D+02  0.1132722000D-01
      0.7958262283D+01  0.7616965920D-01
      0.2378082688D+01  0.3019225220D+00
      0.8143320818D+00  0.7278502735D+00
 Atom C5       Shell    44 P   1     bf  108 -   110          0.323705687711         -3.098735321750          0.000000000000
      0.2888754725D+00  0.1000000000D+01
 Atom C5       Shell    45 P   1     bf  111 -   113          0.323705687711         -3.098735321750          0.000000000000
      0.1005682367D+00  0.1000000000D+01
 Atom C5       Shell    46 D   1     bf  114 -   118          0.323705687711         -3.098735321750          0.000000000000
      0.1097000000D+01  0.1000000000D+01
 Atom C5       Shell    47 D   1     bf  119 -   123          0.323705687711         -3.098735321750          0.000000000000
      0.3180000000D+00  0.1000000000D+01
 Atom C5       Shell    48 F   1     bf  124 -   130          0.323705687711         -3.098735321750          0.000000000000
      0.7610000000D+00  0.1000000000D+01
 Atom H6       Shell    49 S   3     bf  131 -   131         -0.795288331202         -4.825378752478          0.000000000000
      0.3406134100D+02  0.2543930721D-01
      0.5123574600D+01  0.1900859489D+00
      0.1164662600D+01  0.8524411301D+00
 Atom H6       Shell    50 S   1     bf  132 -   132         -0.795288331202         -4.825378752478          0.000000000000
      0.3272304100D+00  0.1000000000D+01
 Atom H6       Shell    51 S   1     bf  133 -   133         -0.795288331202         -4.825378752478          0.000000000000
      0.1030724100D+00  0.1000000000D+01
 Atom H6       Shell    52 P   1     bf  134 -   136         -0.795288331202         -4.825378752478          0.000000000000
      0.8000000000D+00  0.1000000000D+01
 Atom H7       Shell    53 S   3     bf  137 -   137          1.531294782094         -3.103861869533          1.664175980569
      0.3406134100D+02  0.2543930721D-01
      0.5123574600D+01  0.1900859489D+00
      0.1164662600D+01  0.8524411301D+00
 Atom H7       Shell    54 S   1     bf  138 -   138          1.531294782094         -3.103861869533          1.664175980569
      0.3272304100D+00  0.1000000000D+01
 Atom H7       Shell    55 S   1     bf  139 -   139          1.531294782094         -3.103861869533          1.664175980569
      0.1030724100D+00  0.1000000000D+01
 Atom H7       Shell    56 P   1     bf  140 -   142          1.531294782094         -3.103861869533          1.664175980569
      0.8000000000D+00  0.1000000000D+01
 Atom H8       Shell    57 S   3     bf  143 -   143          1.531294782094         -3.103861869533         -1.664175980569
      0.3406134100D+02  0.2543930721D-01
      0.5123574600D+01  0.1900859489D+00
      0.1164662600D+01  0.8524411301D+00
 Atom H8       Shell    58 S   1     bf  144 -   144          1.531294782094         -3.103861869533         -1.664175980569
      0.3272304100D+00  0.1000000000D+01
 Atom H8       Shell    59 S   1     bf  145 -   145          1.531294782094         -3.103861869533         -1.664175980569
      0.1030724100D+00  0.1000000000D+01
 Atom H8       Shell    60 P   1     bf  146 -   148          1.531294782094         -3.103861869533         -1.664175980569
      0.8000000000D+00  0.1000000000D+01
 Atom H9       Shell    61 S   3     bf  149 -   149         -2.641273684938         -0.823674166901          1.651900319610
      0.3406134100D+02  0.2543930721D-01
      0.5123574600D+01  0.1900859489D+00
      0.1164662600D+01  0.8524411301D+00
 Atom H9       Shell    62 S   1     bf  150 -   150         -2.641273684938         -0.823674166901          1.651900319610
      0.3272304100D+00  0.1000000000D+01
 Atom H9       Shell    63 S   1     bf  151 -   151         -2.641273684938         -0.823674166901          1.651900319610
      0.1030724100D+00  0.1000000000D+01
 Atom H9       Shell    64 P   1     bf  152 -   154         -2.641273684938         -0.823674166901          1.651900319610
      0.8000000000D+00  0.1000000000D+01
 Atom H10      Shell    65 S   3     bf  155 -   155         -2.641273684938         -0.823674166901         -1.651900319610
      0.3406134100D+02  0.2543930721D-01
      0.5123574600D+01  0.1900859489D+00
      0.1164662600D+01  0.8524411301D+00
 Atom H10      Shell    66 S   1     bf  156 -   156         -2.641273684938         -0.823674166901         -1.651900319610
      0.3272304100D+00  0.1000000000D+01
 Atom H10      Shell    67 S   1     bf  157 -   157         -2.641273684938         -0.823674166901         -1.651900319610
      0.1030724100D+00  0.1000000000D+01
 Atom H10      Shell    68 P   1     bf  158 -   160         -2.641273684938         -0.823674166901         -1.651900319610
      0.8000000000D+00  0.1000000000D+01
 There are   122 symmetry adapted cartesian basis functions of A'  symmetry.
 There are    58 symmetry adapted cartesian basis functions of A"  symmetry.
 There are   106 symmetry adapted basis functions of A'  symmetry.
 There are    54 symmetry adapted basis functions of A"  symmetry.
   160 basis functions,   252 primitive gaussians,   180 cartesian basis functions
    15 alpha electrons       15 beta electrons
       nuclear repulsion energy       103.0121538976 Hartrees.
 IExCor= 4639 DFT=T Ex+Corr=wB97XD ExCW=0 ScaHFX=  1.000000
 ScaDFX=  1.000000  1.000000  1.000000  1.000000 ScalE2=  1.000000  1.000000
 IRadAn=      5 IRanWt=     -1 IRanGd=            0 ICorTp=0 IEmpDi=121
  HFx wShort=  0.000000 wLong=  0.200000 cFull=  0.222036 cShort=  0.000000 cLong=  0.777964
  DFx wShort=  0.000000 wLong=  0.200000 cFull=  0.000000 cShort=  0.000000 cLong=  1.000000
 NAtoms=   10 NActive=   10 NUniq=    8 SFac= 1.56D+00 NAtFMM=   60 NAOKFM=F Big=F
 Integral buffers will be    131072 words long.
 Raffenetti 2 integral format.
 Two-electron integral symmetry is turned on.
 R6Disp:  Grimme-D2 Dispersion energy=       -0.0029519988 Hartrees.
 Nuclear repulsion after empirical dispersion term =      103.0092018988 Hartrees.
 Leave Link  301 at Thu Sep 28 14:47:45 2023, MaxMem=  6291456000 cpu:         0.3
 (Enter /home/minenky/programs//g09/l302.exe)
 NPDir=0 NMtPBC=     1 NCelOv=     1 NCel=       1 NClECP=     1 NCelD=      1
         NCelK=      1 NCelE2=     1 NClLst=     1 CellRange=     0.0.
 One-electron integrals computed using PRISM.
 One-electron integral symmetry used in STVInt
   2 Symmetry operations used in ECPInt.
 ECPInt:  NShTT=    2346 NPrTT=    6892 LenC2=    2334 LenP2D=    5893.
 LDataN:  DoStor=T MaxTD1= 6 Len=  172
 NBasis=   160 RedAO= T EigKep=  3.08D-05  NBF=   106    54
 NBsUse=   160 1.00D-06 EigRej= -1.00D+00 NBFU=   106    54
 Precomputing XC quadrature grid using
 IXCGrd= 4 IRadAn=           5 IRanWt=          -1 IRanGd=           0 AccXCQ= 0.00D+00.
 Generated NRdTot=       0 NPtTot=           0 NUsed=           0 NTot=          32
 NSgBfM=   179   179   179   179   179 MxSgAt=    10 MxSgA2=    10.
 Leave Link  302 at Thu Sep 28 14:47:45 2023, MaxMem=  6291456000 cpu:         1.8
 (Enter /home/minenky/programs//g09/l303.exe)
 DipDrv:  MaxL=1.
 Leave Link  303 at Thu Sep 28 14:47:45 2023, MaxMem=  6291456000 cpu:         0.3
 (Enter /home/minenky/programs//g09/l401.exe)
 ExpMin= 9.52D-02 ExpMax= 1.36D+04 ExpMxC= 4.63D+02 IAcc=3 IRadAn=         5 AccDes= 0.00D+00
 Harris functional with IExCor= 4639 and IRadAn=       5 diagonalized for initial guess.
 HarFok:  IExCor= 4639 AccDes= 0.00D+00 IRadAn=         5 IDoV= 1 UseB2=F ITyADJ=14
 ICtDFT=  3500011 ScaDFX=  1.000000  1.000000  1.000000  1.000000
 FoFCou: FMM=F IPFlag=           0 FMFlag=      100000 FMFlg1=           0
         NFxFlg=           0 DoJE=T BraDBF=F KetDBF=T FulRan=T
         wScrn=  0.000000 ICntrl=     500 IOpCl=  0 I1Cent=   200000004 NGrid=           0
         NMat0=    1 NMatS0=      1 NMatT0=    0 NMatD0=    1 NMtDS0=    0 NMtDT0=    0
 Petite list used in FoFCou.
 Harris En= -148.498945428371    
 JPrj=0 DoOrth=F DoCkMO=F.
 Initial guess orbital symmetries:
       Occupied  (A') (A') (A') (A') (A') (A') (A') (A') (A') (A")
                 (A') (A') (A") (A') (A")
       Virtual   (A') (A") (A') (A') (A') (A") (A') (A') (A") (A')
                 (A') (A') (A") (A') (A") (A') (A') (A") (A') (A')
                 (A') (A") (A') (A') (A") (A') (A") (A') (A') (A')
                 (A") (A') (A') (A") (A') (A') (A") (A') (A') (A')
                 (A") (A') (A") (A') (A') (A") (A') (A") (A') (A')
                 (A') (A") (A') (A") (A') (A') (A") (A') (A") (A")
                 (A') (A") (A') (A') (A') (A') (A") (A') (A") (A')
                 (A') (A') (A') (A") (A') (A") (A") (A') (A') (A')
                 (A") (A") (A') (A') (A') (A") (A") (A') (A') (A")
                 (A') (A") (A') (A') (A') (A') (A') (A") (A") (A')
                 (A") (A') (A") (A') (A') (A') (A") (A") (A') (A')
                 (A") (A') (A') (A") (A') (A") (A') (A") (A") (A')
                 (A") (A') (A') (A") (A') (A") (A') (A') (A") (A')
                 (A') (A") (A') (A') (A") (A') (A') (A") (A') (A')
                 (A') (A') (A') (A') (A')
 The electronic state of the initial guess is 1-A'.
 Leave Link  401 at Thu Sep 28 14:47:45 2023, MaxMem=  6291456000 cpu:         4.3
 (Enter /home/minenky/programs//g09/l502.exe)
 Closed shell SCF:
 Using DIIS extrapolation, IDIIS=  1040.
 Integral symmetry usage will be decided dynamically.
 Keep R1 ints in memory in symmetry-blocked form, NReq=250169994.
 IVT=      249466 IEndB=      249466 NGot=  6291456000 MDV=  6249186143
 LenX=  6249186143 LenY=  6249153302
 Requested convergence on RMS density matrix=1.00D-08 within 380 cycles.
 Requested convergence on MAX density matrix=1.00D-06.
 Requested convergence on             energy=1.00D-06.
 No special actions if energy rises.
 FoFCou: FMM=F IPFlag=           0 FMFlag=           0 FMFlg1=           0
         NFxFlg=           0 DoJE=F BraDBF=F KetDBF=F FulRan=T
         wScrn=  0.000000 ICntrl=     600 IOpCl=  0 I1Cent=           0 NGrid=           0
         NMat0=    1 NMatS0=  12880 NMatT0=    0 NMatD0=    1 NMtDS0=    0 NMtDT0=    0
 Petite list used in FoFCou.
 Integral accuracy reduced to 1.0D-05 until final iterations.

 Cycle   1  Pass 0  IDiag  1:
 E= -155.916595420718    
 DIIS: error= 4.47D-02 at cycle   1 NSaved=   1.
 NSaved= 1 IEnMin= 1 EnMin= -155.916595420718     IErMin= 1 ErrMin= 4.47D-02
 ErrMax= 4.47D-02  0.00D+00 EMaxC= 1.00D-01 BMatC= 3.40D-01 BMatP= 3.40D-01
 IDIUse=3 WtCom= 5.53D-01 WtEn= 4.47D-01
 Coeff-Com:  0.100D+01
 Coeff-En:   0.100D+01
 Coeff:      0.100D+01
 Gap=     0.437 Goal=   None    Shift=    0.000
 GapD=    0.437 DampG=2.000 DampE=0.500 DampFc=1.0000 IDamp=-1.
 RMSDP=3.17D-03 MaxDP=8.38D-02              OVMax= 5.48D-02

 Cycle   2  Pass 0  IDiag  1:
 E= -155.961287979367     Delta-E=       -0.044692558649 Rises=F Damp=F
 DIIS: error= 7.11D-03 at cycle   2 NSaved=   2.
 NSaved= 2 IEnMin= 2 EnMin= -155.961287979367     IErMin= 2 ErrMin= 7.11D-03
 ErrMax= 7.11D-03  0.00D+00 EMaxC= 1.00D-01 BMatC= 9.85D-03 BMatP= 3.40D-01
 IDIUse=3 WtCom= 9.29D-01 WtEn= 7.11D-02
 Coeff-Com:  0.839D-01 0.916D+00
 Coeff-En:   0.000D+00 0.100D+01
 Coeff:      0.779D-01 0.922D+00
 Gap=     0.468 Goal=   None    Shift=    0.000
 RMSDP=8.22D-04 MaxDP=1.81D-02 DE=-4.47D-02 OVMax= 3.68D-02

 Cycle   3  Pass 0  IDiag  1:
 E= -155.965953984017     Delta-E=       -0.004666004650 Rises=F Damp=F
 DIIS: error= 4.60D-03 at cycle   3 NSaved=   3.
 NSaved= 3 IEnMin= 3 EnMin= -155.965953984017     IErMin= 3 ErrMin= 4.60D-03
 ErrMax= 4.60D-03  0.00D+00 EMaxC= 1.00D-01 BMatC= 4.70D-03 BMatP= 9.85D-03
 IDIUse=3 WtCom= 9.54D-01 WtEn= 4.60D-02
 Coeff-Com:  0.255D-01 0.417D+00 0.558D+00
 Coeff-En:   0.000D+00 0.284D+00 0.716D+00
 Coeff:      0.243D-01 0.411D+00 0.565D+00
 Gap=     0.454 Goal=   None    Shift=    0.000
 RMSDP=2.82D-04 MaxDP=8.23D-03 DE=-4.67D-03 OVMax= 2.22D-02

 Cycle   4  Pass 0  IDiag  1:
 E= -155.969886191317     Delta-E=       -0.003932207300 Rises=F Damp=F
 DIIS: error= 1.44D-03 at cycle   4 NSaved=   4.
 NSaved= 4 IEnMin= 4 EnMin= -155.969886191317     IErMin= 4 ErrMin= 1.44D-03
 ErrMax= 1.44D-03  0.00D+00 EMaxC= 1.00D-01 BMatC= 2.88D-04 BMatP= 4.70D-03
 IDIUse=3 WtCom= 9.86D-01 WtEn= 1.44D-02
 Coeff-Com:  0.119D-01 0.193D+00 0.305D+00 0.490D+00
 Coeff-En:   0.000D+00 0.000D+00 0.000D+00 0.100D+01
 Coeff:      0.117D-01 0.190D+00 0.300D+00 0.498D+00
 Gap=     0.452 Goal=   None    Shift=    0.000
 RMSDP=6.52D-05 MaxDP=2.06D-03 DE=-3.93D-03 OVMax= 6.15D-03

 Cycle   5  Pass 0  IDiag  1:
 E= -155.970149746742     Delta-E=       -0.000263555425 Rises=F Damp=F
 DIIS: error= 2.31D-04 at cycle   5 NSaved=   5.
 NSaved= 5 IEnMin= 5 EnMin= -155.970149746742     IErMin= 5 ErrMin= 2.31D-04
 ErrMax= 2.31D-04  0.00D+00 EMaxC= 1.00D-01 BMatC= 7.56D-06 BMatP= 2.88D-04
 IDIUse=3 WtCom= 9.98D-01 WtEn= 2.31D-03
 Coeff-Com: -0.363D-03-0.480D-02 0.569D-02 0.130D+00 0.870D+00
 Coeff-En:   0.000D+00 0.000D+00 0.000D+00 0.000D+00 0.100D+01
 Coeff:     -0.363D-03-0.479D-02 0.567D-02 0.129D+00 0.870D+00
 Gap=     0.452 Goal=   None    Shift=    0.000
 RMSDP=3.00D-05 MaxDP=7.93D-04 DE=-2.64D-04 OVMax= 1.06D-03

 Cycle   6  Pass 0  IDiag  1:
 E= -155.970158008236     Delta-E=       -0.000008261494 Rises=F Damp=F
 DIIS: error= 5.08D-05 at cycle   6 NSaved=   6.
 NSaved= 6 IEnMin= 6 EnMin= -155.970158008236     IErMin= 6 ErrMin= 5.08D-05
 ErrMax= 5.08D-05  0.00D+00 EMaxC= 1.00D-01 BMatC= 6.44D-07 BMatP= 7.56D-06
 IDIUse=1 WtCom= 1.00D+00 WtEn= 0.00D+00
 Coeff-Com: -0.105D-02-0.166D-01-0.213D-01 0.295D-02 0.281D+00 0.755D+00
 Coeff:     -0.105D-02-0.166D-01-0.213D-01 0.295D-02 0.281D+00 0.755D+00
 Gap=     0.452 Goal=   None    Shift=    0.000
 RMSDP=9.38D-06 MaxDP=1.91D-04 DE=-8.26D-06 OVMax= 2.25D-04

 Initial convergence to 1.0D-05 achieved.  Increase integral accuracy.
 Cycle   7  Pass 1  IDiag  1:
 E= -155.970154607751     Delta-E=        0.000003400485 Rises=F Damp=F
 DIIS: error= 4.89D-05 at cycle   1 NSaved=   1.
 NSaved= 1 IEnMin= 1 EnMin= -155.970154607751     IErMin= 1 ErrMin= 4.89D-05
 ErrMax= 4.89D-05  0.00D+00 EMaxC= 1.00D-01 BMatC= 2.09D-07 BMatP= 2.09D-07
 IDIUse=1 WtCom= 1.00D+00 WtEn= 0.00D+00
 Coeff-Com:  0.100D+01
 Coeff:      0.100D+01
 Gap=     0.452 Goal=   None    Shift=    0.000
 RMSDP=9.38D-06 MaxDP=1.91D-04 DE= 3.40D-06 OVMax= 8.80D-05

 Cycle   8  Pass 1  IDiag  1:
 E= -155.970154739324     Delta-E=       -0.000000131573 Rises=F Damp=F
 DIIS: error= 7.20D-06 at cycle   2 NSaved=   2.
 NSaved= 2 IEnMin= 2 EnMin= -155.970154739324     IErMin= 2 ErrMin= 7.20D-06
 ErrMax= 7.20D-06  0.00D+00 EMaxC= 1.00D-01 BMatC= 9.91D-09 BMatP= 2.09D-07
 IDIUse=1 WtCom= 1.00D+00 WtEn= 0.00D+00
 Coeff-Com:  0.359D-01 0.964D+00
 Coeff:      0.359D-01 0.964D+00
 Gap=     0.452 Goal=   None    Shift=    0.000
 RMSDP=1.46D-06 MaxDP=4.65D-05 DE=-1.32D-07 OVMax= 3.87D-05

 Cycle   9  Pass 1  IDiag  1:
 E= -155.970154746489     Delta-E=       -0.000000007165 Rises=F Damp=F
 DIIS: error= 4.28D-06 at cycle   3 NSaved=   3.
 NSaved= 3 IEnMin= 3 EnMin= -155.970154746489     IErMin= 3 ErrMin= 4.28D-06
 ErrMax= 4.28D-06  0.00D+00 EMaxC= 1.00D-01 BMatC= 3.93D-09 BMatP= 9.91D-09
 IDIUse=1 WtCom= 1.00D+00 WtEn= 0.00D+00
 Coeff-Com: -0.341D-01 0.378D+00 0.656D+00
 Coeff:     -0.341D-01 0.378D+00 0.656D+00
 Gap=     0.452 Goal=   None    Shift=    0.000
 RMSDP=3.44D-07 MaxDP=6.95D-06 DE=-7.17D-09 OVMax= 1.60D-05

 Cycle  10  Pass 1  IDiag  1:
 E= -155.970154750315     Delta-E=       -0.000000003826 Rises=F Damp=F
 DIIS: error= 6.20D-07 at cycle   4 NSaved=   4.
 NSaved= 4 IEnMin= 4 EnMin= -155.970154750315     IErMin= 4 ErrMin= 6.20D-07
 ErrMax= 6.20D-07  0.00D+00 EMaxC= 1.00D-01 BMatC= 5.08D-11 BMatP= 3.93D-09
 IDIUse=1 WtCom= 1.00D+00 WtEn= 0.00D+00
 Coeff-Com: -0.697D-02 0.420D-01 0.110D+00 0.855D+00
 Coeff:     -0.697D-02 0.420D-01 0.110D+00 0.855D+00
 Gap=     0.452 Goal=   None    Shift=    0.000
 RMSDP=1.39D-07 MaxDP=3.27D-06 DE=-3.83D-09 OVMax= 5.11D-06

 Cycle  11  Pass 1  IDiag  1:
 E= -155.970154750382     Delta-E=       -0.000000000067 Rises=F Damp=F
 DIIS: error= 3.29D-07 at cycle   5 NSaved=   5.
 NSaved= 5 IEnMin= 5 EnMin= -155.970154750382     IErMin= 5 ErrMin= 3.29D-07
 ErrMax= 3.29D-07  0.00D+00 EMaxC= 1.00D-01 BMatC= 2.18D-11 BMatP= 5.08D-11
 IDIUse=1 WtCom= 1.00D+00 WtEn= 0.00D+00
 Coeff-Com:  0.166D-02-0.346D-01-0.459D-01 0.375D+00 0.703D+00
 Coeff:      0.166D-02-0.346D-01-0.459D-01 0.375D+00 0.703D+00
 Gap=     0.452 Goal=   None    Shift=    0.000
 RMSDP=6.59D-08 MaxDP=1.24D-06 DE=-6.71D-11 OVMax= 2.40D-06

 Cycle  12  Pass 1  IDiag  1:
 E= -155.970154750410     Delta-E=       -0.000000000027 Rises=F Damp=F
 DIIS: error= 1.74D-07 at cycle   6 NSaved=   6.
 NSaved= 6 IEnMin= 6 EnMin= -155.970154750410     IErMin= 6 ErrMin= 1.74D-07
 ErrMax= 1.74D-07  0.00D+00 EMaxC= 1.00D-01 BMatC= 3.49D-12 BMatP= 2.18D-11
 IDIUse=1 WtCom= 1.00D+00 WtEn= 0.00D+00
 Coeff-Com:  0.187D-02-0.231D-01-0.389D-01 0.720D-01 0.342D+00 0.646D+00
 Coeff:      0.187D-02-0.231D-01-0.389D-01 0.720D-01 0.342D+00 0.646D+00
 Gap=     0.452 Goal=   None    Shift=    0.000
 RMSDP=2.48D-08 MaxDP=5.41D-07 DE=-2.72D-11 OVMax= 1.24D-06

 Cycle  13  Pass 1  IDiag  1:
 E= -155.970154750410     Delta-E=       -0.000000000001 Rises=F Damp=F
 DIIS: error= 5.71D-08 at cycle   7 NSaved=   7.
 NSaved= 7 IEnMin= 7 EnMin= -155.970154750410     IErMin= 7 ErrMin= 5.71D-08
 ErrMax= 5.71D-08  0.00D+00 EMaxC= 1.00D-01 BMatC= 2.50D-13 BMatP= 3.49D-12
 IDIUse=1 WtCom= 1.00D+00 WtEn= 0.00D+00
 Coeff-Com:  0.343D-03-0.241D-02-0.592D-02-0.239D-01 0.491D-02 0.213D+00
 Coeff-Com:  0.814D+00
 Coeff:      0.343D-03-0.241D-02-0.592D-02-0.239D-01 0.491D-02 0.213D+00
 Coeff:      0.814D+00
 Gap=     0.452 Goal=   None    Shift=    0.000
 RMSDP=8.28D-09 MaxDP=2.01D-07 DE=-5.12D-13 OVMax= 3.61D-07

 SCF Done:  E(RwB97XD) =  -155.970154750     A.U. after   13 cycles
            NFock= 13  Conv=0.83D-08     -V/T= 2.0055
 KE= 1.551095094738D+02 PE=-5.671664993754D+02 EE= 1.530776332524D+02
 Leave Link  502 at Thu Sep 28 14:47:50 2023, MaxMem=  6291456000 cpu:        62.3
 (Enter /home/minenky/programs//g09/l601.exe)
 Copying SCF densities to generalized density rwf, IOpCl= 0 IROHF=0.

 **********************************************************************

            Population analysis using the SCF density.

 **********************************************************************

 Orbital symmetries:
       Occupied  (A') (A') (A') (A') (A') (A') (A') (A') (A') (A")
                 (A') (A') (A") (A') (A")
       Virtual   (A') (A") (A') (A') (A') (A") (A') (A') (A") (A')
                 (A') (A') (A") (A') (A") (A') (A') (A") (A') (A')
                 (A') (A") (A') (A") (A') (A') (A') (A") (A') (A')
                 (A") (A') (A') (A') (A") (A') (A") (A') (A') (A")
                 (A') (A') (A") (A') (A') (A") (A') (A") (A') (A')
                 (A') (A") (A') (A") (A') (A') (A") (A") (A') (A")
                 (A') (A") (A') (A') (A') (A') (A") (A') (A") (A')
                 (A') (A') (A') (A") (A') (A") (A") (A') (A') (A')
                 (A") (A") (A') (A') (A') (A") (A") (A') (A') (A")
                 (A') (A") (A') (A') (A') (A') (A') (A") (A") (A')
                 (A") (A') (A") (A') (A') (A') (A") (A") (A') (A')
                 (A") (A') (A') (A") (A') (A") (A') (A") (A") (A')
                 (A") (A') (A') (A") (A') (A") (A') (A') (A") (A')
                 (A') (A") (A') (A") (A') (A') (A') (A") (A') (A')
                 (A') (A') (A') (A') (A')
 The electronic state is 1-A'.
 Alpha  occ. eigenvalues --  -10.30971 -10.28678 -10.28169 -10.27233  -0.90377
 Alpha  occ. eigenvalues --   -0.82516  -0.74070  -0.61810  -0.55943  -0.55239
 Alpha  occ. eigenvalues --   -0.48928  -0.45965  -0.45189  -0.35166  -0.35059
 Alpha virt. eigenvalues --    0.10163   0.11435   0.12891   0.15635   0.15830
 Alpha virt. eigenvalues --    0.17863   0.19019   0.21278   0.21438   0.24739
 Alpha virt. eigenvalues --    0.27033   0.28559   0.30911   0.31312   0.31493
 Alpha virt. eigenvalues --    0.32337   0.41807   0.43026   0.44669   0.45683
 Alpha virt. eigenvalues --    0.47422   0.47809   0.48346   0.50795   0.50982
 Alpha virt. eigenvalues --    0.53046   0.56563   0.56730   0.60959   0.63656
 Alpha virt. eigenvalues --    0.68345   0.68557   0.73828   0.76654   0.76739
 Alpha virt. eigenvalues --    0.80017   0.90178   0.91487   0.95607   1.00366
 Alpha virt. eigenvalues --    1.01199   1.04941   1.04945   1.07825   1.12595
 Alpha virt. eigenvalues --    1.15961   1.17602   1.21974   1.25718   1.29524
 Alpha virt. eigenvalues --    1.38442   1.45891   1.51045   1.54870   1.56530
 Alpha virt. eigenvalues --    1.57825   1.62217   1.63751   1.63855   1.65849
 Alpha virt. eigenvalues --    1.69367   1.70345   1.71737   1.74892   1.83581
 Alpha virt. eigenvalues --    1.87642   1.88170   1.92631   1.98937   2.03023
 Alpha virt. eigenvalues --    2.05750   2.14761   2.25979   2.28630   2.29858
 Alpha virt. eigenvalues --    2.39497   2.41211   2.41268   2.43905   2.44688
 Alpha virt. eigenvalues --    2.54889   2.57575   2.58408   2.60504   2.62127
 Alpha virt. eigenvalues --    2.63100   2.64945   2.67980   2.72170   2.72782
 Alpha virt. eigenvalues --    2.76234   2.81530   2.83602   2.86517   2.92384
 Alpha virt. eigenvalues --    2.92951   2.97176   2.99328   3.02986   3.06159
 Alpha virt. eigenvalues --    3.06616   3.07407   3.10330   3.11972   3.14412
 Alpha virt. eigenvalues --    3.18181   3.19934   3.23256   3.24296   3.29844
 Alpha virt. eigenvalues --    3.32359   3.32619   3.36719   3.42035   3.46578
 Alpha virt. eigenvalues --    3.48371   3.53625   3.54966   3.58348   3.59591
 Alpha virt. eigenvalues --    3.77903   3.82190   3.89013   3.94280   3.98102
 Alpha virt. eigenvalues --    4.04339   4.12610   4.20914   4.26587   4.28350
 Alpha virt. eigenvalues --    4.43702   4.50068   4.61517   4.63806   4.63867
 Alpha virt. eigenvalues --    4.80389   4.95952   5.05974   5.11888   5.17197
 Alpha virt. eigenvalues --    5.59490  22.41661  22.62670  22.64706  23.55249
          Condensed to atoms (all electrons):
               1          2          3          4          5          6
     1  C    5.082733   0.775425   0.413777  -0.086715  -0.018891   0.001197
     2  C    0.775425   5.171298  -0.025729   0.340065  -0.048177   0.016679
     3  H    0.413777  -0.025729   0.421534  -0.000258  -0.000252   0.000008
     4  C   -0.086715   0.340065  -0.000258   4.868234   0.331979  -0.052794
     5  C   -0.018891  -0.048177  -0.000252   0.331979   4.907688   0.411953
     6  H    0.001197   0.016679   0.000008  -0.052794   0.411953   0.555604
     7  H    0.001148  -0.006330   0.000004  -0.026769   0.407273  -0.022860
     8  H    0.001148  -0.006330   0.000004  -0.026769   0.407273  -0.022860
     9  H   -0.008169  -0.051245  -0.000056   0.430346  -0.035243  -0.002569
    10  H   -0.008169  -0.051245  -0.000056   0.430346  -0.035243  -0.002569
               7          8          9         10
     1  C    0.001148   0.001148  -0.008169  -0.008169
     2  C   -0.006330  -0.006330  -0.051245  -0.051245
     3  H    0.000004   0.000004  -0.000056  -0.000056
     4  C   -0.026769  -0.026769   0.430346   0.430346
     5  C    0.407273   0.407273  -0.035243  -0.035243
     6  H   -0.022860  -0.022860  -0.002569  -0.002569
     7  H    0.550006  -0.023717  -0.005727   0.006498
     8  H   -0.023717   0.550006   0.006498  -0.005727
     9  H   -0.005727   0.006498   0.573585  -0.034290
    10  H    0.006498  -0.005727  -0.034290   0.573585
 Mulliken charges:
               1
     1  C   -0.153484
     2  C   -0.114412
     3  H    0.191024
     4  C   -0.207665
     5  C   -0.328359
     6  H    0.118209
     7  H    0.120473
     8  H    0.120473
     9  H    0.126870
    10  H    0.126870
 Sum of Mulliken charges =   0.00000
 Mulliken charges with hydrogens summed into heavy atoms:
               1
     1  C    0.037539
     2  C   -0.114412
     4  C    0.046075
     5  C    0.030797
 Electronic spatial extent (au):  <R**2>=            333.6305
 Charge=              0.0000 electrons
 Dipole moment (field-independent basis, Debye):
    X=             -0.3436    Y=             -0.7803    Z=              0.0000  Tot=              0.8526
 Quadrupole moment (field-independent basis, Debye-Ang):
   XX=            -24.5671   YY=            -22.9764   ZZ=            -25.9947
   XY=              2.5295   XZ=              0.0000   YZ=              0.0000
 Traceless Quadrupole moment (field-independent basis, Debye-Ang):
   XX=             -0.0544   YY=              1.5363   ZZ=             -1.4819
   XY=              2.5295   XZ=              0.0000   YZ=              0.0000
 Octapole moment (field-independent basis, Debye-Ang**2):
  XXX=             -1.8605  YYY=              7.5087  ZZZ=              0.0000  XYY=              7.4687
  XXY=              0.6639  XXZ=              0.0000  XZZ=             -1.4053  YZZ=             -3.5953
  YYZ=              0.0000  XYZ=              0.0000
 Hexadecapole moment (field-independent basis, Debye-Ang**3):
 XXXX=            -89.2128 YYYY=           -298.8697 ZZZZ=            -42.4755 XXXY=            -21.3180
 XXXZ=              0.0000 YYYX=              4.4708 YYYZ=              0.0000 ZZZX=              0.0000
 ZZZY=              0.0000 XXYY=            -62.0667 XXZZ=            -20.2602 YYZZ=            -68.0508
 XXYZ=              0.0000 YYXZ=              0.0000 ZZXY=             -9.9388
 N-N= 1.030092018988D+02 E-N=-5.671664949405D+02  KE= 1.551095094738D+02
 Symmetry A'   KE= 1.488635525622D+02
 Symmetry A"   KE= 6.245956911592D+00
 No NMR shielding tensors so no spin-rotation constants.
 Leave Link  601 at Thu Sep 28 14:47:50 2023, MaxMem=  6291456000 cpu:         1.5
 (Enter /home/minenky/programs//g09/l701.exe)
 Compute integral first derivatives.
 ... and contract with generalized density number  0.
 R6Disp: Adding Grimme-D2 dispersion energy 1st derivatives to the gradient.
   2 Symmetry operations used in ECPInt.
 ECPInt:  NShTT=    2346 NPrTT=    6892 LenC2=    2334 LenP2D=    5893.
 LDataN:  DoStor=T MaxTD1= 7 Len=  274
 Leave Link  701 at Thu Sep 28 14:47:50 2023, MaxMem=  6291456000 cpu:         2.2
 (Enter /home/minenky/programs//g09/l702.exe)
 L702 exits ... SP integral derivatives will be done elsewhere.
 Leave Link  702 at Thu Sep 28 14:47:50 2023, MaxMem=  6291456000 cpu:         0.2
 (Enter /home/minenky/programs//g09/l703.exe)
 Compute integral first derivatives, UseDBF=F ICtDFT=           0.
 Integral derivatives from FoFJK, PRISM(SPDF).
 Calling FoFJK, ICntrl=      2127 FMM=F ISym2X=1 I1Cent= 0 IOpClX= 0 NMat=1 NMatS=1 NMatT=0.
 FoFJK:  IHMeth= 1 ICntrl=    2127 DoSepK=T KAlg= 0 I1Cent=   0 FoldK=F
 IRaf=         1 NMat=   1 IRICut=       1 DoRegI=T DoRafI=F ISym2E= 1.
 FoFCou: FMM=F IPFlag=           0 FMFlag=      100000 FMFlg1=         800
         NFxFlg=           0 DoJE=F BraDBF=F KetDBF=F FulRan=T
         wScrn=  0.000000 ICntrl=    2527 IOpCl=  0 I1Cent=           0 NGrid=           0
         NMat0=    1 NMatS0=      1 NMatT0=    0 NMatD0=    1 NMtDS0=    0 NMtDT0=    0
 Petite list used in FoFCou.
 Leave Link  703 at Thu Sep 28 14:47:52 2023, MaxMem=  6291456000 cpu:        31.2
 (Enter /home/minenky/programs//g09/l716.exe)
 Dipole        =-1.35200858D-01-3.06981137D-01 0.00000000D+00
 ***** Axes restored to original set *****
 -------------------------------------------------------------------
 Center     Atomic                   Forces (Hartrees/Bohr)
 Number     Number              X              Y              Z
 -------------------------------------------------------------------
      1        6          -0.017867683    0.006934869    0.000000000
      2        6           0.015377098   -0.005699684    0.000000000
      3        1           0.002391107   -0.000908020    0.000000000
      4        6          -0.000861780   -0.002201285    0.000000000
      5        6           0.001495623    0.001666743    0.000000000
      6        1          -0.001034956    0.000565078    0.000000000
      7        1           0.000110307   -0.000746275    0.001082502
      8        1           0.000110307   -0.000746275   -0.001082502
      9        1           0.000139988    0.000567424    0.000924058
     10        1           0.000139988    0.000567424   -0.000924058
 -------------------------------------------------------------------
 Cartesian Forces:  Max     0.017867683 RMS     0.004692889
 Leave Link  716 at Thu Sep 28 14:47:52 2023, MaxMem=  6291456000 cpu:         0.2
 (Enter /home/minenky/programs//g09/l103.exe)

 GradGradGradGradGradGradGradGradGradGradGradGradGradGradGradGradGradGrad
 Berny optimization.
 FormGI is forming the generalized inverse of G from B-inverse, IUseBI=4.
 Internal  Forces:  Max     0.016608803 RMS     0.002927118
 Search for a local minimum.
 Step number   1 out of a maximum of   44
 All quantities printed in internal units (Hartrees-Bohrs-Radians)
 RMS Force = .29271D-02 SwitMx=.10000D-02 MixMth= 1
 Mixed Optimization -- RFO/linear search
 Second derivative matrix not updated -- first step.
 ITU=  0
     Eigenvalues ---    0.00337   0.00629   0.00629   0.01304   0.01304
     Eigenvalues ---    0.05325   0.05575   0.05593   0.06007   0.16000
     Eigenvalues ---    0.16000   0.16000   0.16000   0.16000   0.22291
     Eigenvalues ---    0.29202   0.34673   0.34673   0.34952   0.35036
     Eigenvalues ---    0.35036   0.37046   0.38501   1.02014
 RFO step:  Lambda=-3.19326746D-04 EMin= 3.37203639D-03
 Linear search not attempted -- first point.
 Iteration  1 RMS(Cart)=  0.00893279 RMS(Int)=  0.00005193
 Iteration  2 RMS(Cart)=  0.00007731 RMS(Int)=  0.00000056
 Iteration  3 RMS(Cart)=  0.00000000 RMS(Int)=  0.00000056
 ITry= 1 IFail=0 DXMaxC= 2.62D-02 DCOld= 1.00D+10 DXMaxT= 3.00D-01 DXLimC= 3.00D+00 Rises=F
 ClnCor:  largest displacement from symmetrization is 2.72D-03 for atom     2.
 Variable       Old X    -DE/DX   Delta X   Delta X   Delta X     New X
                                 (Linear)    (Quad)   (Total)
    R1        2.27843  -0.01661   0.00000  -0.01628  -0.01628   2.26215
    R2        2.00343   0.00256   0.00000   0.00664   0.00664   2.01007
    R3        2.75776  -0.00020   0.00000  -0.00055  -0.00055   2.75721
    R4        2.89584  -0.00100   0.00000  -0.00344  -0.00344   2.89240
    R5        2.06209   0.00105   0.00000   0.00303   0.00356   2.06566
    R6        2.06209   0.00105   0.00000   0.00303   0.00356   2.06566
    R7        2.05753   0.00117   0.00000   0.00335   0.00334   2.06088
    R8        2.05616   0.00132   0.00000   0.00376   0.00376   2.05991
    R9        2.05616   0.00132   0.00000   0.00376   0.00376   2.05991
    A1        1.96489   0.00056   0.00000   0.00211   0.00211   1.96699
    A2        1.90134  -0.00041   0.00000  -0.00271  -0.00217   1.89918
    A3        1.90134  -0.00041   0.00000  -0.00271  -0.00217   1.89918
    A4        1.91745   0.00011   0.00000   0.00111   0.00082   1.91827
    A5        1.91745   0.00011   0.00000   0.00111   0.00082   1.91827
    A6        1.85819  -0.00001   0.00000   0.00097   0.00045   1.85864
    A7        1.92564  -0.00023   0.00000  -0.00173  -0.00173   1.92391
    A8        1.93176   0.00006   0.00000   0.00053   0.00073   1.93249
    A9        1.93176   0.00006   0.00000   0.00053   0.00073   1.93249
   A10        1.89369   0.00006   0.00000   0.00006  -0.00058   1.89311
   A11        1.89369   0.00006   0.00000   0.00006  -0.00058   1.89311
   A12        1.88613   0.00000   0.00000   0.00058   0.00144   1.88757
   A13        3.14830  -0.00002   0.00000  -0.00338  -0.00305   3.14525
   A14        3.11965   0.00020   0.00000   0.01528   0.01435   3.13400
   A15        3.14650  -0.00001   0.00000  -0.00090  -0.00216   3.14434
   A16        3.15394  -0.00007   0.00000  -0.00533  -0.00801   3.14594
    D1        3.14159   0.00000   0.00000   0.00001   0.00000   3.14159
    D2        1.04537   0.00004   0.00000   0.00071   0.00138   1.04675
    D3       -1.04537  -0.00004   0.00000  -0.00070  -0.00138  -1.04675
    D4        1.01931   0.00006   0.00000   0.00125   0.00076   1.02006
    D5       -1.07691   0.00010   0.00000   0.00195   0.00213  -1.07478
    D6        3.11553   0.00002   0.00000   0.00054  -0.00062   3.11490
    D7       -1.01931  -0.00006   0.00000  -0.00124  -0.00076  -1.02006
    D8       -3.11553  -0.00002   0.00000  -0.00053   0.00062  -3.11490
    D9        1.07691  -0.00010   0.00000  -0.00194  -0.00213   1.07478
         Item               Value     Threshold  Converged?
 Maximum Force            0.016609     0.000015     NO 
 RMS     Force            0.002927     0.000010     NO 
 Maximum Displacement     0.026235     0.000060     NO 
 RMS     Displacement     0.008864     0.000040     NO 
 Predicted change in Energy=-1.593964D-04
 Lowest energy point so far.  Saving SCF results.
 GradGradGradGradGradGradGradGradGradGradGradGradGradGradGradGradGradGrad

 Leave Link  103 at Thu Sep 28 14:47:52 2023, MaxMem=  6291456000 cpu:         0.1
 (Enter /home/minenky/programs//g09/l202.exe)
                          Input orientation:                          
 ---------------------------------------------------------------------
 Center     Atomic      Atomic             Coordinates (Angstroms)
 Number     Number       Type             X           Y           Z
 ---------------------------------------------------------------------
      1          6           0        1.878658   -0.267787    0.000000
      2          6           0        0.755221    0.145594    0.000000
      3          1           0        2.878370   -0.631097    0.000000
      4          6           0       -0.618222    0.638032    0.000000
      5          6           0       -1.650804   -0.491788    0.000000
      6          1           0       -2.660577   -0.079840    0.000000
      7          1           0       -1.534446   -1.120680    0.882714
      8          1           0       -1.534446   -1.120680   -0.882714
      9          1           0       -0.764123    1.275639    0.875806
     10          1           0       -0.764123    1.275639   -0.875806
 ---------------------------------------------------------------------
                    Distance matrix (angstroms):
                    1          2          3          4          5
     1  C    0.000000
     2  C    1.197078   0.000000
     3  H    1.063681   2.260755   0.000000
     4  C    2.656110   1.459055   3.719791   0.000000
     5  C    3.536563   2.489018   4.531316   1.530594   0.000000
     6  H    4.543125   3.423229   5.566311   2.164845   1.090570
     7  H    3.627105   2.761377   4.526789   2.170648   1.090059
     8  H    3.627105   2.761377   4.526789   2.170648   1.090059
     9  H    3.183314   2.086251   4.203621   1.093099   2.162646
    10  H    3.183314   2.086251   4.203621   1.093099   2.162646
                    6          7          8          9         10
     6  H    0.000000
     7  H    1.769379   0.000000
     8  H    1.769379   1.765427   0.000000
     9  H    2.490161   2.517099   3.070526   0.000000
    10  H    2.490161   3.070526   2.517099   1.751613   0.000000
 Stoichiometry    C4H6
 Framework group  CS[SG(C4H2),X(H4)]
 Deg. of freedom    15
 Full point group                 CS      NOp   2
 RotChk:  IX=0 Diff= 1.53D-02
 Largest Abelian subgroup         CS      NOp   2
 Largest concise Abelian subgroup CS      NOp   2
                         Standard orientation:                         
 ---------------------------------------------------------------------
 Center     Atomic      Atomic             Coordinates (Angstroms)
 Number     Number       Type             X           Y           Z
 ---------------------------------------------------------------------
      1          6           0        0.611966    1.871282    0.000000
      2          6           0        0.000000    0.842452    0.000000
      3          1           0        1.152069    2.787638    0.000000
      4          6           0       -0.735435   -0.417698    0.000000
      5          6           0        0.186369   -1.639579    0.000000
      6          1           0       -0.403391   -2.556927    0.000000
      7          1           0        0.825934   -1.640259    0.882714
      8          1           0        0.825934   -1.640259   -0.882714
      9          1           0       -1.388974   -0.444466    0.875806
     10          1           0       -1.388974   -0.444466   -0.875806
 ---------------------------------------------------------------------
 Rotational constants (GHZ):     27.7109483      4.5526163      4.1083475
 Leave Link  202 at Thu Sep 28 14:47:52 2023, MaxMem=  6291456000 cpu:         0.0
 (Enter /home/minenky/programs//g09/l301.exe)
 Standard basis: def2TZVP (5D, 7F)
 Ernie: Thresh=  0.10000D-02 Tol=  0.10000D-05 Strict=F.
 There are   122 symmetry adapted cartesian basis functions of A'  symmetry.
 There are    58 symmetry adapted cartesian basis functions of A"  symmetry.
 There are   106 symmetry adapted basis functions of A'  symmetry.
 There are    54 symmetry adapted basis functions of A"  symmetry.
   160 basis functions,   252 primitive gaussians,   180 cartesian basis functions
    15 alpha electrons       15 beta electrons
       nuclear repulsion energy       103.1342242727 Hartrees.
 IExCor= 4639 DFT=T Ex+Corr=wB97XD ExCW=0 ScaHFX=  1.000000
 ScaDFX=  1.000000  1.000000  1.000000  1.000000 ScalE2=  1.000000  1.000000
 IRadAn=      5 IRanWt=     -1 IRanGd=            0 ICorTp=0 IEmpDi=121
  HFx wShort=  0.000000 wLong=  0.200000 cFull=  0.222036 cShort=  0.000000 cLong=  0.777964
  DFx wShort=  0.000000 wLong=  0.200000 cFull=  0.000000 cShort=  0.000000 cLong=  1.000000
 NAtoms=   10 NActive=   10 NUniq=    8 SFac= 1.56D+00 NAtFMM=   60 NAOKFM=F Big=F
 Integral buffers will be    131072 words long.
 Raffenetti 2 integral format.
 Two-electron integral symmetry is turned on.
 R6Disp:  Grimme-D2 Dispersion energy=       -0.0029537390 Hartrees.
 Nuclear repulsion after empirical dispersion term =      103.1312705337 Hartrees.
 Leave Link  301 at Thu Sep 28 14:47:52 2023, MaxMem=  6291456000 cpu:         0.3
 (Enter /home/minenky/programs//g09/l302.exe)
 NPDir=0 NMtPBC=     1 NCelOv=     1 NCel=       1 NClECP=     1 NCelD=      1
         NCelK=      1 NCelE2=     1 NClLst=     1 CellRange=     0.0.
 One-electron integrals computed using PRISM.
 One-electron integral symmetry used in STVInt
   2 Symmetry operations used in ECPInt.
 ECPInt:  NShTT=    2346 NPrTT=    6892 LenC2=    2334 LenP2D=    5893.
 LDataN:  DoStor=T MaxTD1= 6 Len=  172
 NBasis=   160 RedAO= T EigKep=  3.03D-05  NBF=   106    54
 NBsUse=   160 1.00D-06 EigRej= -1.00D+00 NBFU=   106    54
 Precomputing XC quadrature grid using
 IXCGrd= 4 IRadAn=           5 IRanWt=          -1 IRanGd=           0 AccXCQ= 0.00D+00.
 Generated NRdTot=       0 NPtTot=           0 NUsed=           0 NTot=          32
 NSgBfM=   179   179   179   179   179 MxSgAt=    10 MxSgA2=    10.
 Leave Link  302 at Thu Sep 28 14:47:52 2023, MaxMem=  6291456000 cpu:         1.9
 (Enter /home/minenky/programs//g09/l303.exe)
 DipDrv:  MaxL=1.
 Leave Link  303 at Thu Sep 28 14:47:52 2023, MaxMem=  6291456000 cpu:         0.3
 (Enter /home/minenky/programs//g09/l401.exe)
 Initial guess from the checkpoint file:  "m1_00_107-00-60_C4H6_wB97XD.chk"
 B after Tr=     0.000000    0.000000    0.000000
         Rot=    0.999985    0.000000    0.000000   -0.005465 Ang=  -0.63 deg.
 Guess basis will be translated and rotated to current coordinates.
 JPrj=2 DoOrth=T DoCkMO=T.
 Initial guess orbital symmetries:
       Occupied  (A') (A') (A') (A') (A') (A') (A') (A') (A') (A")
                 (A') (A') (A") (A') (A")
       Virtual   (A') (A') (A') (A') (A') (A') (A') (A') (A') (A')
                 (A') (A') (A') (A') (A') (A') (A') (A') (A') (A')
                 (A') (A') (A') (A') (A') (A') (A') (A') (A') (A')
                 (A') (A') (A') (A') (A') (A') (A') (A') (A') (A')
                 (A') (A') (A') (A') (A') (A') (A') (A') (A') (A')
                 (A') (A') (A') (A') (A') (A') (A') (A') (A') (A')
                 (A') (A') (A') (A') (A') (A') (A') (A') (A') (A')
                 (A') (A') (A') (A') (A') (A') (A') (A') (A') (A')
                 (A') (A') (A') (A') (A') (A') (A') (A') (A') (A')
                 (A') (A') (A') (A') (A") (A") (A") (A") (A") (A")
                 (A") (A") (A") (A") (A") (A") (A") (A") (A") (A")
                 (A") (A") (A") (A") (A") (A") (A") (A") (A") (A")
                 (A") (A") (A") (A") (A") (A") (A") (A") (A") (A")
                 (A") (A") (A") (A") (A") (A") (A") (A") (A") (A")
                 (A") (A") (A") (A") (A")
 The electronic state of the initial guess is 1-A'.
 Generating alternative initial guess.
 ExpMin= 9.52D-02 ExpMax= 1.36D+04 ExpMxC= 4.63D+02 IAcc=2 IRadAn=         4 AccDes= 0.00D+00
 Harris functional with IExCor= 4639 and IRadAn=       4 diagonalized for initial guess.
 HarFok:  IExCor= 4639 AccDes= 0.00D+00 IRadAn=         4 IDoV= 1 UseB2=F ITyADJ=14
 ICtDFT=  3500011 ScaDFX=  1.000000  1.000000  1.000000  1.000000
 FoFCou: FMM=F IPFlag=           0 FMFlag=      100000 FMFlg1=           0
         NFxFlg=           0 DoJE=T BraDBF=F KetDBF=T FulRan=T
         wScrn=  0.000000 ICntrl=     500 IOpCl=  0 I1Cent=   200000004 NGrid=           0
         NMat0=    1 NMatS0=      1 NMatT0=    0 NMatD0=    1 NMtDS0=    0 NMtDT0=    0
 Petite list used in FoFCou.
 Harris En= -148.500642435442    
 Leave Link  401 at Thu Sep 28 14:47:52 2023, MaxMem=  6291456000 cpu:         3.5
 (Enter /home/minenky/programs//g09/l502.exe)
 Closed shell SCF:
 Using DIIS extrapolation, IDIIS=  1040.
 Integral symmetry usage will be decided dynamically.
 Keep R1 ints in memory in symmetry-blocked form, NReq=250169994.
 IVT=      249466 IEndB=      249466 NGot=  6291456000 MDV=  6249186143
 LenX=  6249186143 LenY=  6249153302
 Requested convergence on RMS density matrix=1.00D-08 within 380 cycles.
 Requested convergence on MAX density matrix=1.00D-06.
 Requested convergence on             energy=1.00D-06.
 No special actions if energy rises.
 FoFCou: FMM=F IPFlag=           0 FMFlag=           0 FMFlg1=           0
         NFxFlg=           0 DoJE=F BraDBF=F KetDBF=F FulRan=T
         wScrn=  0.000000 ICntrl=     600 IOpCl=  0 I1Cent=           0 NGrid=           0
         NMat0=    1 NMatS0=  12880 NMatT0=    0 NMatD0=    1 NMtDS0=    0 NMtDT0=    0
 Petite list used in FoFCou.
 Integral accuracy reduced to 1.0D-05 until final iterations.

 Cycle   1  Pass 0  IDiag  1:
 E= -155.970127371954    
 DIIS: error= 1.58D-03 at cycle   1 NSaved=   1.
 NSaved= 1 IEnMin= 1 EnMin= -155.970127371954     IErMin= 1 ErrMin= 1.58D-03
 ErrMax= 1.58D-03  0.00D+00 EMaxC= 1.00D-01 BMatC= 3.39D-04 BMatP= 3.39D-04
 IDIUse=3 WtCom= 9.84D-01 WtEn= 1.58D-02
 Coeff-Com:  0.100D+01
 Coeff-En:   0.100D+01
 Coeff:      0.100D+01
 Gap=     0.881 Goal=   None    Shift=    0.000
 GapD=    0.881 DampG=2.000 DampE=1.000 DampFc=2.0000 IDamp=-1.
 RMSDP=2.02D-04 MaxDP=4.41D-03              OVMax= 3.37D-03

 Cycle   2  Pass 0  IDiag  1:
 E= -155.970289756418     Delta-E=       -0.000162384464 Rises=F Damp=F
 DIIS: error= 2.79D-04 at cycle   2 NSaved=   2.
 NSaved= 2 IEnMin= 2 EnMin= -155.970289756418     IErMin= 2 ErrMin= 2.79D-04
 ErrMax= 2.79D-04  0.00D+00 EMaxC= 1.00D-01 BMatC= 1.07D-05 BMatP= 3.39D-04
 IDIUse=3 WtCom= 9.97D-01 WtEn= 2.79D-03
 Coeff-Com:  0.179D-01 0.982D+00
 Coeff-En:   0.000D+00 0.100D+01
 Coeff:      0.178D-01 0.982D+00
 Gap=     0.453 Goal=   None    Shift=    0.000
 RMSDP=3.72D-05 MaxDP=1.10D-03 DE=-1.62D-04 OVMax= 1.23D-03

 Cycle   3  Pass 0  IDiag  1:
 E= -155.970297504753     Delta-E=       -0.000007748335 Rises=F Damp=F
 DIIS: error= 2.30D-04 at cycle   3 NSaved=   3.
 NSaved= 3 IEnMin= 3 EnMin= -155.970297504753     IErMin= 3 ErrMin= 2.30D-04
 ErrMax= 2.30D-04  0.00D+00 EMaxC= 1.00D-01 BMatC= 4.81D-06 BMatP= 1.07D-05
 IDIUse=3 WtCom= 9.98D-01 WtEn= 2.30D-03
 Coeff-Com: -0.216D-01 0.392D+00 0.630D+00
 Coeff-En:   0.000D+00 0.603D-01 0.940D+00
 Coeff:     -0.216D-01 0.391D+00 0.630D+00
 Gap=     0.454 Goal=   None    Shift=    0.000
 RMSDP=1.33D-05 MaxDP=3.42D-04 DE=-7.75D-06 OVMax= 7.22D-04

 Cycle   4  Pass 0  IDiag  1:
 E= -155.970301886834     Delta-E=       -0.000004382081 Rises=F Damp=F
 DIIS: error= 5.37D-05 at cycle   4 NSaved=   4.
 NSaved= 4 IEnMin= 4 EnMin= -155.970301886834     IErMin= 4 ErrMin= 5.37D-05
 ErrMax= 5.37D-05  0.00D+00 EMaxC= 1.00D-01 BMatC= 3.85D-07 BMatP= 4.81D-06
 IDIUse=1 WtCom= 1.00D+00 WtEn= 0.00D+00
 Coeff-Com: -0.833D-02 0.814D-01 0.245D+00 0.682D+00
 Coeff:     -0.833D-02 0.814D-01 0.245D+00 0.682D+00
 Gap=     0.454 Goal=   None    Shift=    0.000
 RMSDP=4.60D-06 MaxDP=9.30D-05 DE=-4.38D-06 OVMax= 2.79D-04

 Initial convergence to 1.0D-05 achieved.  Increase integral accuracy.
 Cycle   5  Pass 1  IDiag  1:
 E= -155.970297098005     Delta-E=        0.000004788830 Rises=F Damp=F
 DIIS: error= 5.05D-05 at cycle   1 NSaved=   1.
 NSaved= 1 IEnMin= 1 EnMin= -155.970297098005     IErMin= 1 ErrMin= 5.05D-05
 ErrMax= 5.05D-05  0.00D+00 EMaxC= 1.00D-01 BMatC= 2.84D-07 BMatP= 2.84D-07
 IDIUse=1 WtCom= 1.00D+00 WtEn= 0.00D+00
 Coeff-Com:  0.100D+01
 Coeff:      0.100D+01
 Gap=     0.454 Goal=   None    Shift=    0.000
 RMSDP=4.60D-06 MaxDP=9.30D-05 DE= 4.79D-06 OVMax= 2.36D-04

 Cycle   6  Pass 1  IDiag  1:
 E= -155.970297158959     Delta-E=       -0.000000060955 Rises=F Damp=F
 DIIS: error= 3.19D-05 at cycle   2 NSaved=   2.
 NSaved= 2 IEnMin= 2 EnMin= -155.970297158959     IErMin= 2 ErrMin= 3.19D-05
 ErrMax= 3.19D-05  0.00D+00 EMaxC= 1.00D-01 BMatC= 1.63D-07 BMatP= 2.84D-07
 IDIUse=1 WtCom= 1.00D+00 WtEn= 0.00D+00
 Coeff-Com:  0.407D+00 0.593D+00
 Coeff:      0.407D+00 0.593D+00
 Gap=     0.454 Goal=   None    Shift=    0.000
 RMSDP=2.05D-06 MaxDP=6.13D-05 DE=-6.10D-08 OVMax= 1.95D-04

 Cycle   7  Pass 1  IDiag  1:
 E= -155.970297279832     Delta-E=       -0.000000120872 Rises=F Damp=F
 DIIS: error= 1.45D-05 at cycle   3 NSaved=   3.
 NSaved= 3 IEnMin= 3 EnMin= -155.970297279832     IErMin= 3 ErrMin= 1.45D-05
 ErrMax= 1.45D-05  0.00D+00 EMaxC= 1.00D-01 BMatC= 3.39D-08 BMatP= 1.63D-07
 IDIUse=1 WtCom= 1.00D+00 WtEn= 0.00D+00
 Coeff-Com: -0.270D-01 0.305D+00 0.722D+00
 Coeff:     -0.270D-01 0.305D+00 0.722D+00
 Gap=     0.454 Goal=   None    Shift=    0.000
 RMSDP=8.68D-07 MaxDP=2.05D-05 DE=-1.21D-07 OVMax= 6.52D-05

 Cycle   8  Pass 1  IDiag  1:
 E= -155.970297311356     Delta-E=       -0.000000031524 Rises=F Damp=F
 DIIS: error= 2.53D-06 at cycle   4 NSaved=   4.
 NSaved= 4 IEnMin= 4 EnMin= -155.970297311356     IErMin= 4 ErrMin= 2.53D-06
 ErrMax= 2.53D-06  0.00D+00 EMaxC= 1.00D-01 BMatC= 6.37D-10 BMatP= 3.39D-08
 IDIUse=1 WtCom= 1.00D+00 WtEn= 0.00D+00
 Coeff-Com: -0.215D-01 0.982D-01 0.272D+00 0.652D+00
 Coeff:     -0.215D-01 0.982D-01 0.272D+00 0.652D+00
 Gap=     0.454 Goal=   None    Shift=    0.000
 RMSDP=2.22D-07 MaxDP=5.00D-06 DE=-3.15D-08 OVMax= 6.13D-06

 Cycle   9  Pass 1  IDiag  1:
 E= -155.970297312003     Delta-E=       -0.000000000647 Rises=F Damp=F
 DIIS: error= 4.87D-07 at cycle   5 NSaved=   5.
 NSaved= 5 IEnMin= 5 EnMin= -155.970297312003     IErMin= 5 ErrMin= 4.87D-07
 ErrMax= 4.87D-07  0.00D+00 EMaxC= 1.00D-01 BMatC= 1.77D-11 BMatP= 6.37D-10
 IDIUse=1 WtCom= 1.00D+00 WtEn= 0.00D+00
 Coeff-Com:  0.220D-02-0.253D-01-0.590D-01-0.101D-01 0.109D+01
 Coeff:      0.220D-02-0.253D-01-0.590D-01-0.101D-01 0.109D+01
 Gap=     0.454 Goal=   None    Shift=    0.000
 RMSDP=1.78D-07 MaxDP=5.16D-06 DE=-6.47D-10 OVMax= 3.04D-06

 Cycle  10  Pass 1  IDiag  1:
 E= -155.970297312046     Delta-E=       -0.000000000043 Rises=F Damp=F
 DIIS: error= 1.12D-07 at cycle   6 NSaved=   6.
 NSaved= 6 IEnMin= 6 EnMin= -155.970297312046     IErMin= 6 ErrMin= 1.12D-07
 ErrMax= 1.12D-07  0.00D+00 EMaxC= 1.00D-01 BMatC= 2.69D-12 BMatP= 1.77D-11
 IDIUse=1 WtCom= 1.00D+00 WtEn= 0.00D+00
 Coeff-Com:  0.224D-02-0.145D-01-0.371D-01-0.538D-01 0.328D+00 0.775D+00
 Coeff:      0.224D-02-0.145D-01-0.371D-01-0.538D-01 0.328D+00 0.775D+00
 Gap=     0.454 Goal=   None    Shift=    0.000
 RMSDP=4.43D-08 MaxDP=1.34D-06 DE=-4.26D-11 OVMax= 6.96D-07

 Cycle  11  Pass 1  IDiag  1:
 E= -155.970297312049     Delta-E=       -0.000000000004 Rises=F Damp=F
 DIIS: error= 3.24D-08 at cycle   7 NSaved=   7.
 NSaved= 7 IEnMin= 7 EnMin= -155.970297312049     IErMin= 7 ErrMin= 3.24D-08
 ErrMax= 3.24D-08  0.00D+00 EMaxC= 1.00D-01 BMatC= 1.16D-13 BMatP= 2.69D-12
 IDIUse=1 WtCom= 1.00D+00 WtEn= 0.00D+00
 Coeff-Com:  0.286D-03-0.104D-02-0.292D-02-0.112D-01-0.134D-01 0.155D+00
 Coeff-Com:  0.874D+00
 Coeff:      0.286D-03-0.104D-02-0.292D-02-0.112D-01-0.134D-01 0.155D+00
 Coeff:      0.874D+00
 Gap=     0.454 Goal=   None    Shift=    0.000
 RMSDP=1.39D-08 MaxDP=4.48D-07 DE=-3.75D-12 OVMax= 1.92D-07

 Cycle  12  Pass 1  IDiag  1:
 E= -155.970297312047     Delta-E=        0.000000000002 Rises=F Damp=F
 DIIS: error= 6.23D-09 at cycle   8 NSaved=   8.
 NSaved= 8 IEnMin= 7 EnMin= -155.970297312049     IErMin= 8 ErrMin= 6.23D-09
 ErrMax= 6.23D-09  0.00D+00 EMaxC= 1.00D-01 BMatC= 4.21D-15 BMatP= 1.16D-13
 IDIUse=1 WtCom= 1.00D+00 WtEn= 0.00D+00
 Coeff-Com: -0.757D-04 0.557D-03 0.140D-02 0.155D-02-0.150D-01-0.281D-01
 Coeff-Com:  0.474D-01 0.992D+00
 Coeff:     -0.757D-04 0.557D-03 0.140D-02 0.155D-02-0.150D-01-0.281D-01
 Coeff:      0.474D-01 0.992D+00
 Gap=     0.454 Goal=   None    Shift=    0.000
 RMSDP=4.20D-09 MaxDP=1.41D-07 DE= 1.93D-12 OVMax= 6.95D-08

 SCF Done:  E(RwB97XD) =  -155.970297312     A.U. after   12 cycles
            NFock= 12  Conv=0.42D-08     -V/T= 2.0054
 KE= 1.551345356692D+02 PE=-5.674436000888D+02 EE= 1.532074965739D+02
 Leave Link  502 at Thu Sep 28 14:47:57 2023, MaxMem=  6291456000 cpu:        63.0
 (Enter /home/minenky/programs//g09/l701.exe)
 Compute integral first derivatives.
 ... and contract with generalized density number  0.
 R6Disp: Adding Grimme-D2 dispersion energy 1st derivatives to the gradient.
   2 Symmetry operations used in ECPInt.
 ECPInt:  NShTT=    2346 NPrTT=    6892 LenC2=    2334 LenP2D=    5893.
 LDataN:  DoStor=T MaxTD1= 7 Len=  274
 Leave Link  701 at Thu Sep 28 14:47:57 2023, MaxMem=  6291456000 cpu:         2.1
 (Enter /home/minenky/programs//g09/l702.exe)
 L702 exits ... SP integral derivatives will be done elsewhere.
 Leave Link  702 at Thu Sep 28 14:47:57 2023, MaxMem=  6291456000 cpu:         0.2
 (Enter /home/minenky/programs//g09/l703.exe)
 Compute integral first derivatives, UseDBF=F ICtDFT=           0.
 Integral derivatives from FoFJK, PRISM(SPDF).
 Calling FoFJK, ICntrl=      2127 FMM=F ISym2X=1 I1Cent= 0 IOpClX= 0 NMat=1 NMatS=1 NMatT=0.
 FoFJK:  IHMeth= 1 ICntrl=    2127 DoSepK=T KAlg= 0 I1Cent=   0 FoldK=F
 IRaf=         1 NMat=   1 IRICut=       1 DoRegI=T DoRafI=F ISym2E= 1.
 FoFCou: FMM=F IPFlag=           0 FMFlag=      100000 FMFlg1=         800
         NFxFlg=           0 DoJE=F BraDBF=F KetDBF=F FulRan=T
         wScrn=  0.000000 ICntrl=    2527 IOpCl=  0 I1Cent=           0 NGrid=           0
         NMat0=    1 NMatS0=      1 NMatT0=    0 NMatD0=    1 NMtDS0=    0 NMtDT0=    0
 Petite list used in FoFCou.
 Leave Link  703 at Thu Sep 28 14:47:59 2023, MaxMem=  6291456000 cpu:        31.2
 (Enter /home/minenky/programs//g09/l716.exe)
 Dipole        =-1.34141425D-01-2.98479563D-01 0.00000000D+00
 ***** Axes restored to original set *****
 -------------------------------------------------------------------
 Center     Atomic                   Forces (Hartrees/Bohr)
 Number     Number              X              Y              Z
 -------------------------------------------------------------------
      1        6           0.001435491   -0.000805514    0.000000000
      2        6          -0.000713020    0.001338313    0.000000000
      3        1          -0.000313667    0.000017018    0.000000000
      4        6          -0.000686132   -0.000667233    0.000000000
      5        6           0.000092554    0.000554768    0.000000000
      6        1          -0.000067469   -0.000058178    0.000000000
      7        1          -0.000020535   -0.000100071   -0.000054659
      8        1          -0.000020535   -0.000100071    0.000054659
      9        1           0.000146656   -0.000089515   -0.000105137
     10        1           0.000146656   -0.000089515    0.000105137
 -------------------------------------------------------------------
 Cartesian Forces:  Max     0.001435491 RMS     0.000463893
 Leave Link  716 at Thu Sep 28 14:47:59 2023, MaxMem=  6291456000 cpu:         0.2
 (Enter /home/minenky/programs//g09/l103.exe)

 GradGradGradGradGradGradGradGradGradGradGradGradGradGradGradGradGradGrad
 Berny optimization.
 Using GEDIIS/GDIIS optimizer.
 FormGI is forming the generalized inverse of G from B-inverse, IUseBI=4.
 Internal  Forces:  Max     0.001324767 RMS     0.000316254
 Search for a local minimum.
 Step number   2 out of a maximum of   44
 All quantities printed in internal units (Hartrees-Bohrs-Radians)
 RMS Force = .31625D-03 SwitMx=.10000D-02 MixMth= 2
 Mixed Optimization -- En-DIIS/RFO-DIIS
 Update second derivatives using D2CorX and points    1    2
 DE= -1.43D-04 DEPred=-1.59D-04 R= 8.94D-01
 TightC=F SS=  1.41D+00  RLast= 2.66D-02 DXNew= 5.0454D-01 7.9759D-02
 Trust test= 8.94D-01 RLast= 2.66D-02 DXMaxT set to 3.00D-01
 ITU=  1  0
 Use linear search instead of GDIIS.
     Eigenvalues ---    0.00337   0.00627   0.00629   0.01302   0.01418
     Eigenvalues ---    0.05311   0.05561   0.05605   0.06000   0.15954
     Eigenvalues ---    0.16000   0.16000   0.16000   0.16021   0.22010
     Eigenvalues ---    0.29047   0.34500   0.34673   0.34883   0.35000
     Eigenvalues ---    0.35036   0.37061   0.38778   1.06743
 RFO step:  Lambda=-5.79868700D-05 EMin= 3.37203639D-03
 Quartic linear search produced a step of -0.10127.
 Iteration  1 RMS(Cart)=  0.03332615 RMS(Int)=  0.00078622
 Iteration  2 RMS(Cart)=  0.00117880 RMS(Int)=  0.00000054
 Iteration  3 RMS(Cart)=  0.00000061 RMS(Int)=  0.00000020
 ITry= 1 IFail=0 DXMaxC= 1.11D-01 DCOld= 1.00D+10 DXMaxT= 3.00D-01 DXLimC= 3.00D+00 Rises=F
 ClnCor:  largest displacement from symmetrization is 1.76D-02 for atom     3.
 Variable       Old X    -DE/DX   Delta X   Delta X   Delta X     New X
                                 (Linear)    (Quad)   (Total)
    R1        2.26215   0.00132   0.00165  -0.00346  -0.00184   2.26031
    R2        2.01007  -0.00030  -0.00067   0.00119   0.00041   2.01048
    R3        2.75721   0.00020   0.00006   0.00032   0.00036   2.75757
    R4        2.89240  -0.00021   0.00035  -0.00162  -0.00127   2.89113
    R5        2.06566  -0.00016  -0.00036   0.00056  -0.00236   2.06330
    R6        2.06566  -0.00016  -0.00036   0.00056  -0.00236   2.06330
    R7        2.06088   0.00004  -0.00034   0.00106   0.00070   2.06158
    R8        2.05991   0.00001  -0.00038   0.00110   0.00090   2.06081
    R9        2.05991   0.00001  -0.00038   0.00110   0.00090   2.06081
    A1        1.96699   0.00053  -0.00021   0.00270   0.00248   1.96948
    A2        1.89918  -0.00029   0.00022  -0.00202  -0.00473   1.89445
    A3        1.89918  -0.00029   0.00022  -0.00202  -0.00473   1.89445
    A4        1.91827   0.00001  -0.00008   0.00053   0.00190   1.92017
    A5        1.91827   0.00002  -0.00008   0.00053   0.00190   1.92017
    A6        1.85864  -0.00003  -0.00005   0.00009   0.00308   1.86172
    A7        1.92391   0.00009   0.00018   0.00023   0.00041   1.92431
    A8        1.93249   0.00008  -0.00007   0.00054  -0.00058   1.93191
    A9        1.93249   0.00008  -0.00007   0.00054  -0.00058   1.93191
[...]
     34 -0.464976D-03  0.411183D-02 -0.356619D-02 -0.665967D-03  0.856388D-02
               11            12            13            14            15 
     11  0.626776D-01
     12  0.138649D-01  0.627077D-01
     13 -0.432778D-01  0.139173D-01  0.105811D+00
     14  0.138954D-01 -0.432828D-01 -0.157699D-01  0.105798D+00
     15  0.969245D-02  0.969177D-02 -0.385549D-01 -0.385540D-01  0.481919D-01
     16 -0.376175D-02 -0.376459D-02 -0.726183D-02 -0.725898D-02  0.412205D-02
     17  0.442002D-02 -0.408182D-02 -0.633922D-02  0.169132D-01 -0.356564D-02
     18 -0.410127D-02  0.444437D-02  0.169314D-01 -0.635480D-02 -0.356580D-02
     19  0.320780D-03  0.288516D-02  0.408356D-02 -0.355184D-02  0.191926D-03
     20  0.288822D-02  0.316952D-03 -0.355465D-02  0.408540D-02  0.191825D-03
     21  0.382040D-03  0.346413D-03 -0.396898D-02 -0.394150D-02  0.273245D-02
     22  0.161210D-02  0.334326D-02  0.842660D-03 -0.207484D-03 -0.243229D-03
     23  0.503719D-02  0.113863D-01  0.403943D-02 -0.798338D-03 -0.164751D-02
     24  0.182075D-02 -0.509078D-03 -0.623615D-03  0.788068D-03 -0.645578D-04
     25 -0.846543D-02  0.289215D-02  0.378815D-02 -0.483454D-02  0.570302D-03
     26  0.803787D-02 -0.804417D-02  0.279424D-02 -0.279825D-02  0.000000D+00
     27  0.723336D-02 -0.655855D-02  0.652013D-02 -0.455564D-02 -0.622815D-03
     28  0.654536D-02 -0.723057D-02  0.455803D-02 -0.653006D-02  0.622658D-03
     29 -0.556892D-02  0.120982D-04 -0.931911D-03  0.721106D-02  0.654291D-02
     30 -0.637342D-02  0.149772D-02  0.279399D-02  0.545366D-02  0.592006D-02
     31 -0.706143D-02  0.825702D-03  0.831886D-03  0.347925D-02  0.716554D-02
     32 -0.423368D-05  0.556767D-02 -0.721270D-02  0.937271D-03 -0.654306D-02
     33 -0.808736D-03  0.705329D-02 -0.348680D-02 -0.820122D-03 -0.716591D-02
     34 -0.149674D-02  0.638127D-02 -0.544890D-02 -0.279454D-02 -0.592044D-02
               16            17            18            19            20 
     16  0.104838D+00
     17 -0.204690D-01  0.106425D+00
     18 -0.204695D-01 -0.207334D-01  0.106432D+00
     19 -0.401251D-01 -0.402465D-01  0.132855D-01  0.509084D-01
     20 -0.401251D-01  0.132843D-01 -0.402487D-01  0.949159D-02  0.509092D-01
     21  0.134612D-01 -0.407706D-01 -0.407760D-01  0.950271D-02  0.950544D-02
     22 -0.819245D-03  0.283242D-03  0.257419D-03  0.188042D-03  0.216616D-03
     23 -0.280598D-02 -0.476181D-03  0.406038D-03  0.165201D-02  0.122409D-02
     24 -0.218140D-03  0.528051D-04  0.822664D-04  0.721152D-04  0.361816D-04
     25  0.963402D-03 -0.670453D-03  0.908573D-03 -0.126333D-03 -0.908797D-03
     26  0.000000D+00  0.312470D-02 -0.313582D-02  0.647693D-02 -0.647494D-02
     27 -0.496958D-02 -0.200142D-02  0.699964D-02 -0.497902D-02 -0.764744D-03
     28  0.497019D-02 -0.701194D-02  0.199155D-02  0.767527D-03  0.498058D-02
     29 -0.178175D-02  0.695447D-02 -0.504074D-02  0.566069D-02 -0.511413D-02
     30 -0.675182D-02  0.182836D-02  0.509473D-02 -0.579526D-02  0.596068D-03
     31  0.318795D-02 -0.318216D-02  0.866300D-04 -0.487152D-04  0.634140D-02
     32  0.178113D-02  0.504627D-02 -0.695031D-02  0.511301D-02 -0.566110D-02
     33 -0.318894D-02 -0.798394D-04  0.318516D-02 -0.634293D-02  0.490946D-04
     34  0.675083D-02 -0.509036D-02 -0.182294D-02 -0.596388D-03  0.579442D-02
               21            22            23            24            25 
     21  0.516769D-01
     22 -0.112615D-03  0.592669D-01
     23  0.123823D-03  0.225533D-01  0.871020D-01
     24 -0.213087D-04  0.196946D-03 -0.932096D-04  0.210355D-01
     25 -0.217101D-03  0.488919D-04  0.530303D-03 -0.106475D-01  0.550364D-01
     26  0.905946D-05 -0.511478D-03 -0.162682D-02  0.689398D-03 -0.292164D-02
     27  0.570114D-02 -0.395468D-03 -0.155452D-02  0.707352D-03 -0.295856D-02
     28 -0.568311D-02 -0.608468D-03 -0.166386D-02  0.645579D-03 -0.284228D-02
     29 -0.678193D-03  0.262124D-03  0.666827D-03 -0.289665D-03  0.131090D-02
     30  0.501389D-02  0.378134D-03  0.739128D-03 -0.271710D-03  0.127398D-02
     31 -0.637036D-02  0.165134D-03  0.629786D-03 -0.333484D-03  0.139025D-02
     32  0.670303D-03  0.182837D-03  0.756755D-03 -0.308266D-03  0.123513D-02
     33  0.636238D-02  0.298848D-03  0.829056D-03 -0.290311D-03  0.119821D-02
     34 -0.502186D-02  0.858472D-04  0.719714D-03 -0.352085D-03  0.131448D-02
               26            27            28            29            30 
     26  0.153074D-01
     27  0.519598D-02  0.159488D-01
     28  0.519191D-02  0.552347D-02  0.159407D-01
     29  0.299150D-02 -0.741264D-02 -0.781592D-02  0.153218D-01
     30 -0.711995D-02  0.334016D-02 -0.748437D-02  0.491768D-02  0.153778D-01
     31 -0.712402D-02 -0.708515D-02  0.293285D-02  0.451440D-02  0.455326D-02
     32  0.299382D-02 -0.781538D-02 -0.740855D-02  0.365071D-02 -0.715848D-02
     33 -0.711762D-02  0.293742D-02 -0.707699D-02 -0.675342D-02  0.330163D-02
     34 -0.712169D-02 -0.748789D-02  0.334023D-02 -0.715671D-02 -0.752290D-02
               31            32            33            34 
     31  0.145713D-01
     32 -0.675165D-02  0.153198D-01
     33 -0.671279D-02  0.451060D-02  0.145656D-01
     34  0.330521D-02  0.491743D-02  0.455123D-02  0.153794D-01
 Leave Link  716 at Thu Sep 28 14:49:21 2023, MaxMem=  6291456000 cpu:         0.3
 (Enter /home/minenky/programs//g09/l103.exe)

 GradGradGradGradGradGradGradGradGradGradGradGradGradGradGradGradGradGrad
 Berny optimization.
 Red2BG is reusing G-inverse.
 Internal  Forces:  Max     0.000000837 RMS     0.000000260
 Search for a local minimum.
 Step number   1 out of a maximum of    2
 All quantities printed in internal units (Hartrees-Bohrs-Radians)
 Second derivative matrix not updated -- analytic derivatives used.
 ITU=  0
     Eigenvalues ---    0.00253   0.01796   0.04545   0.04577   0.04633
     Eigenvalues ---    0.04792   0.05033   0.06248   0.09453   0.12194
     Eigenvalues ---    0.12764   0.12860   0.14423   0.17936   0.20039
     Eigenvalues ---    0.30692   0.33158   0.33329   0.34260   0.34275
     Eigenvalues ---    0.34943   0.35891   0.41284   1.12222
 Angle between quadratic step and forces=  34.03 degrees.
 Linear search not attempted -- first point.
 Iteration  1 RMS(Cart)=  0.00000394 RMS(Int)=  0.00000000
 Iteration  2 RMS(Cart)=  0.00000000 RMS(Int)=  0.00000000
 ITry= 1 IFail=0 DXMaxC= 1.01D-05 DCOld= 1.00D+10 DXMaxT= 3.00D-01 DXLimC= 3.00D+00 Rises=F
 ClnCor:  largest displacement from symmetrization is 6.27D-12 for atom     8.
 Variable       Old X    -DE/DX   Delta X   Delta X   Delta X     New X
                                 (Linear)    (Quad)   (Total)
    R1        2.26334   0.00000   0.00000   0.00000   0.00000   2.26334
    R2        2.00936   0.00000   0.00000   0.00000   0.00000   2.00936
    R3        2.75791   0.00000   0.00000   0.00000   0.00000   2.75791
    R4        2.89086   0.00000   0.00000   0.00000   0.00000   2.89086
    R5        2.06531   0.00000   0.00000   0.00000   0.00000   2.06531
    R6        2.06531   0.00000   0.00000   0.00000   0.00000   2.06531
    R7        2.06097   0.00000   0.00000   0.00000   0.00000   2.06097
    R8        2.06002   0.00000   0.00000   0.00000   0.00000   2.06002
    R9        2.06002   0.00000   0.00000   0.00000   0.00000   2.06002
    A1        1.96886   0.00000   0.00000  -0.00001  -0.00001   1.96886
    A2        1.89785   0.00000   0.00000   0.00000   0.00000   1.89785
    A3        1.89785   0.00000   0.00000   0.00000   0.00000   1.89785
    A4        1.91881   0.00000   0.00000   0.00000   0.00000   1.91881
    A5        1.91881   0.00000   0.00000   0.00000   0.00000   1.91881
    A6        1.85818   0.00000   0.00000   0.00000   0.00000   1.85817
    A7        1.92450   0.00000   0.00000   0.00000   0.00000   1.92450
    A8        1.93321   0.00000   0.00000   0.00000   0.00000   1.93321
    A9        1.93321   0.00000   0.00000   0.00000   0.00000   1.93321
   A10        1.89288   0.00000   0.00000   0.00000   0.00000   1.89288
   A11        1.89288   0.00000   0.00000   0.00000   0.00000   1.89288
   A12        1.88592   0.00000   0.00000   0.00000   0.00000   1.88592
   A13        3.14653   0.00000   0.00000   0.00000   0.00000   3.14653
   A14        3.12394   0.00000   0.00000   0.00000   0.00000   3.12394
   A15        3.14524   0.00000   0.00000   0.00000   0.00000   3.14524
   A16        3.15161   0.00000   0.00000   0.00000   0.00000   3.15161
    D1        3.14159   0.00000   0.00000   0.00000   0.00000   3.14159
    D2        1.04619   0.00000   0.00000   0.00000   0.00000   1.04619
    D3       -1.04619   0.00000   0.00000   0.00000   0.00000  -1.04619
    D4        1.02010   0.00000   0.00000   0.00000   0.00000   1.02010
    D5       -1.07530   0.00000   0.00000   0.00000   0.00000  -1.07530
    D6        3.11550   0.00000   0.00000   0.00000   0.00000   3.11550
    D7       -1.02010   0.00000   0.00000   0.00000   0.00000  -1.02010
    D8       -3.11550   0.00000   0.00000   0.00000   0.00000  -3.11550
    D9        1.07530   0.00000   0.00000   0.00000   0.00000   1.07530
         Item               Value     Threshold  Converged?
 Maximum Force            0.000001     0.000015     YES
 RMS     Force            0.000000     0.000010     YES
 Maximum Displacement     0.000010     0.000060     YES
 RMS     Displacement     0.000004     0.000040     YES
 Predicted change in Energy=-5.773770D-12
 Optimization completed.
    -- Stationary point found.
                           ----------------------------
                           !   Optimized Parameters   !
                           ! (Angstroms and Degrees)  !
 --------------------------                            --------------------------
 ! Name  Definition              Value          Derivative Info.                !
 --------------------------------------------------------------------------------
 ! R1    R(1,2)                  1.1977         -DE/DX =    0.0                 !
 ! R2    R(1,3)                  1.0633         -DE/DX =    0.0                 !
 ! R3    R(2,4)                  1.4594         -DE/DX =    0.0                 !
 ! R4    R(4,5)                  1.5298         -DE/DX =    0.0                 !
 ! R5    R(4,9)                  1.0929         -DE/DX =    0.0                 !
 ! R6    R(4,10)                 1.0929         -DE/DX =    0.0                 !
 ! R7    R(5,6)                  1.0906         -DE/DX =    0.0                 !
 ! R8    R(5,7)                  1.0901         -DE/DX =    0.0                 !
 ! R9    R(5,8)                  1.0901         -DE/DX =    0.0                 !
 ! A1    A(2,4,5)              112.8075         -DE/DX =    0.0                 !
 ! A2    A(2,4,9)              108.7388         -DE/DX =    0.0                 !
 ! A3    A(2,4,10)             108.7388         -DE/DX =    0.0                 !
 ! A4    A(5,4,9)              109.9397         -DE/DX =    0.0                 !
 ! A5    A(5,4,10)             109.9397         -DE/DX =    0.0                 !
 ! A6    A(9,4,10)             106.4656         -DE/DX =    0.0                 !
 ! A7    A(4,5,6)              110.2657         -DE/DX =    0.0                 !
 ! A8    A(4,5,7)              110.7647         -DE/DX =    0.0                 !
 ! A9    A(4,5,8)              110.7647         -DE/DX =    0.0                 !
 ! A10   A(6,5,7)              108.454          -DE/DX =    0.0                 !
 ! A11   A(6,5,8)              108.454          -DE/DX =    0.0                 !
 ! A12   A(7,5,8)              108.0555         -DE/DX =    0.0                 !
 ! A13   L(2,1,3,7,-1)         180.2828         -DE/DX =    0.0                 !
 ! A14   L(1,2,4,7,-1)         178.9883         -DE/DX =    0.0                 !
 ! A15   L(2,1,3,7,-2)         180.2087         -DE/DX =    0.0                 !
 ! A16   L(1,2,4,7,-2)         180.5742         -DE/DX =    0.0                 !
 ! D1    D(2,4,5,6)            180.0            -DE/DX =    0.0                 !
 ! D2    D(2,4,5,7)             59.9424         -DE/DX =    0.0                 !
 ! D3    D(2,4,5,8)            -59.9424         -DE/DX =    0.0                 !
 ! D4    D(9,4,5,6)             58.4473         -DE/DX =    0.0                 !
 ! D5    D(9,4,5,7)            -61.6102         -DE/DX =    0.0                 !
 ! D6    D(9,4,5,8)            178.5049         -DE/DX =    0.0                 !
 ! D7    D(10,4,5,6)           -58.4473         -DE/DX =    0.0                 !
 ! D8    D(10,4,5,7)          -178.5049         -DE/DX =    0.0                 !
 ! D9    D(10,4,5,8)            61.6102         -DE/DX =    0.0                 !
 --------------------------------------------------------------------------------
 GradGradGradGradGradGradGradGradGradGradGradGradGradGradGradGradGradGrad

 Leave Link  103 at Thu Sep 28 14:49:21 2023, MaxMem=  6291456000 cpu:         0.0
 (Enter /home/minenky/programs//g09/l9999.exe)
 1\1\GINC-PC1\Freq\RwB97XD\def2TZVP\C4H6\MINENKY\28-Sep-2023\0\\#P Geom
 =AllCheck Guess=TCheck SCRF=Check GenChk RwB97XD/def2TZVP Freq\\The PB
 EPBE optimization and frequencies\\0,1\C,1.8785675575,-0.2692254653,0.
 \C,0.7574459267,0.1521841831,0.\H,2.8758880678,-0.6379679997,0.\C,-0.6
 183293417,0.6391783809,0.\C,-1.6478963071,-0.4922883213,0.\H,-2.658851
 7224,-0.0831242703,0.\H,-1.5303949611,-1.1217424458,0.8822337102\H,-1.
 5303949611,-1.1217424458,-0.8822337102\H,-0.7651207796,1.2766756322,0.
 8755041592\H,-0.7651207796,1.2766756322,-0.8755041592\\Version=AM64L-G
 09RevD.01\State=1-A'\HF=-155.970305\RMSD=5.025e-09\RMSF=4.672e-07\Zero
 Point=0.0852436\Thermal=0.0901934\Dipole=-0.3202192,0.0730572,0.\Dipol
 eDeriv=-0.5412581,0.0532967,0.,0.1063402,-0.2810571,0.,0.,0.,-0.271397
 ,0.2387326,-0.1576701,0.,-0.1907596,-0.128531,0.,0.,0.,-0.1462337,0.20
 95666,0.0098331,0.,0.005899,0.2222238,0.,0.,0.,0.2276267,0.144755,0.01
 67544,0.,-0.0159378,0.141255,0.,0.,0.,0.1737071,0.0683202,-0.0095987,0
 .,0.0708752,0.0477746,0.,0.,0.,0.093024,-0.1699595,0.0409341,0.,0.0598
 271,0.020188,0.,0.,0.,0.0812219,0.0551294,0.0062907,-0.042156,-0.03170
 3,-0.0108335,0.0718412,0.0005314,0.0979383,-0.059035,0.0551294,0.00629
 07,0.042156,-0.0317031,-0.0108336,-0.0718412,-0.0005314,-0.0979383,-0.
 059035,-0.0302078,0.0169346,0.0069944,0.0135811,-0.0000932,-0.0684983,
 0.0229006,-0.1009333,-0.0199395,-0.0302078,0.0169346,-0.0069944,0.0135
 811,-0.0000932,0.0684983,-0.0229006,0.1009333,-0.0199394\Polar=61.0661
 703,-5.3314022,39.264354,0.,0.,35.2965473\PG=CS [SG(C4H2),X(H4)]\NImag
 =0\\1.36380212,-0.49000537,0.23353671,0.,0.,0.05002591,-0.98773700,0.3
 5593840,0.,1.28895774,0.35516913,-0.16855152,0.,-0.43765661,0.26504942
 ,0.,0.,-0.03575684,0.,0.,0.09749188,-0.37114931,0.12901112,0.,0.004691
 54,-0.00096305,0.,0.36492377,0.12842550,-0.07040863,0.,-0.00012872,0.0
 0265211,0.,-0.12959238,0.06266167,0.,0.,-0.02238184,0.,0.,0.00237841,0
 .,0.,0.01448840,-0.00142082,0.00365481,0.,-0.25071198,0.06991583,0.,0.
 00130656,0.00115183,0.,0.49179890,0.00483954,0.00497724,0.,0.06787097,
 -0.09244808,0.,0.00159919,0.00496434,0.,-0.04017670,0.51227243,0.,0.,0
 .00715258,0.,0.,-0.06934948,0.,0.,0.00566792,0.,0.,0.57042963,0.001354
 58,0.00007805,0.,-0.03632565,-0.02264639,0.,0.00041519,0.00117634,0.,-
 0.12332853,-0.05890987,0.,0.53272830,0.00416233,-0.00277328,0.,0.00199
 761,0.01368924,0.,-0.00034132,-0.00043643,0.,-0.05458294,-0.14443387,0
 .,-0.05779429,0.52309507,0.,0.,0.00047536,0.,0.,-0.00078583,0.,0.,0.00
 008181,0.,0.,-0.07810573,0.,0.,0.58073112,-0.00055698,0.00021876,0.,-0
 .00251712,-0.00423120,0.,0.00014548,0.00016127,0.,-0.01881982,0.009139
 43,0.,-0.27663016,0.09534014,0.,0.30124037,-0.00123474,0.00103896,0.,-
 0.00316979,-0.00409059,0.,0.00007136,0.00020269,0.,-0.02535447,0.00911
 620,0.,0.09806293,-0.08878675,0.,-0.10240105,0.09421406,0.,0.,0.000193
 59,0.,0.,0.00091639,0.,0.,-0.00006000,0.,0.,-0.00106501,0.,0.,-0.04890
 804,0.,0.,0.04642459,-0.00021338,0.00048937,-0.00033400,0.00212148,-0.
 00055940,0.00107535,-0.00004354,-0.00003862,-0.00000979,0.00098344,-0.
 01432985,0.01986570,-0.05176745,0.02004381,-0.02708820,-0.00201924,0.0
 1625491,-0.02523968,0.05356945,-0.00057816,0.00038245,-0.00018539,0.00
 152766,0.00054067,-0.00021026,-0.00001089,-0.00004324,0.00003365,0.002
 23499,-0.01534556,0.02040358,0.01829899,-0.13464541,0.12429286,0.00065
 190,-0.00702839,0.00927679,-0.01638659,0.14669689,0.00027246,-0.000275
 05,-0.00000131,0.00002386,0.00001493,0.00022867,0.00000865,0.00002928,
 -0.00002053,0.00003758,-0.00152821,0.00159641,-0.02528856,0.12576786,-
 0.22819033,0.00014094,-0.00188735,0.00127496,0.02836724,-0.13728673,0.
 24305978,-0.00021338,0.00048937,0.00033400,0.00212148,-0.00055940,-0.0
 0107535,-0.00004354,-0.00003862,0.00000979,0.00098344,-0.01432985,-0.0
 1986570,-0.05176745,0.02004381,0.02708820,-0.00201924,0.01625491,0.025
 23968,-0.00042633,-0.00263347,-0.00367896,0.05356945,-0.00057816,0.000
 38245,0.00018539,0.00152766,0.00054067,0.00021026,-0.00001089,-0.00004
 324,-0.00003365,0.00223499,-0.01534556,-0.02040358,0.01829899,-0.13464
 541,-0.12429286,0.00065190,-0.00702839,-0.00927679,-0.00263347,0.01198
 636,0.01562043,-0.01638659,0.14669689,-0.00027246,0.00027505,-0.000001
 31,-0.00002386,-0.00001493,0.00022867,-0.00000865,-0.00002928,-0.00002
 053,-0.00003758,0.00152821,0.00159641,0.02528856,-0.12576786,-0.228190
 33,-0.00014094,0.00188735,0.00127496,0.00367896,-0.01562043,-0.0200690
 7,-0.02836724,0.13728673,0.24305978,-0.00193291,0.00006276,-0.00151488
 ,-0.01030024,0.02076555,0.02800717,-0.00012308,-0.00055830,-0.00103618
 ,-0.05039559,0.02214857,0.02911478,0.00266058,-0.01443457,-0.01946845,
 0.00058835,0.00075797,-0.00033750,0.00074139,0.00083004,0.00040851,-0.
 00294583,-0.00393446,0.00029171,0.06124838,-0.00010004,0.00070782,0.00
 018815,0.00604641,-0.00869096,-0.00871721,0.00011843,0.00022537,0.0003
 0156,0.02046083,-0.13187857,-0.12086552,0.00171763,-0.01553159,-0.0203
 1023,0.00023443,0.00118112,0.00020730,0.00096878,0.00038839,0.00017098
 ,-0.00380894,-0.00293216,0.00062615,-0.02235506,0.14499532,-0.00132470
 ,0.00020127,0.00014693,0.00323368,0.00130820,0.00232407,-0.00001983,-0
 .00012249,-0.00006682,0.02738242,-0.12147806,-0.21896136,-0.00047569,0
 .00122413,0.00144599,-0.00057653,-0.00021570,-0.00002572,-0.00025593,-
 0.00003318,0.00074871,0.00005964,0.00067090,0.00137270,-0.03174410,0.1
 3342188,0.23424786,-0.00193291,0.00006276,0.00151488,-0.01030024,0.020
 76555,-0.02800717,-0.00012308,-0.00055830,0.00103618,-0.05039559,0.022
 14857,-0.02911478,0.00266058,-0.01443457,0.01946845,0.00058835,0.00075
 797,0.00033750,-0.00294583,-0.00393446,-0.00029171,0.00074139,0.000830
 04,-0.00040851,0.00045895,-0.00328249,0.00372105,0.06124838,-0.0001000
 4,0.00070782,-0.00018815,0.00604641,-0.00869096,0.00871721,0.00011843,
 0.00022537,-0.00030156,0.02046083,-0.13187856,0.12086552,0.00171763,-0
 .01553159,0.02031024,0.00023443,0.00118111,-0.00020730,-0.00380894,-0.
 00293216,-0.00062615,0.00096878,0.00038839,-0.00017098,-0.00328249,0.0
 1153527,-0.01497695,-0.02235506,0.14499532,0.00132470,-0.00020127,0.00
 014692,-0.00323368,-0.00130820,0.00232407,0.00001983,0.00012249,-0.000
 06682,-0.02738242,0.12147806,-0.21896136,0.00047569,-0.00122413,0.0014
 4599,0.00057653,0.00021570,-0.00002572,-0.00005964,-0.00067090,0.00137
 270,0.00025593,0.00003318,0.00074871,-0.00372105,0.01497695,-0.0212323
 5,0.03174410,-0.13342188,0.23424786\\0.00000043,0.00000083,0.,-0.00000
 010,0.00000088,0.,0.00000043,0.00000116,0.,-0.00000002,-0.00000058,0.,
 -0.00000030,-0.00000065,0.,-0.00000005,-0.00000067,0.,0.00000056,-0.00
 000022,-0.00000007,0.00000056,-0.00000022,0.00000007,-0.00000075,-0.00
 000027,0.00000013,-0.00000075,-0.00000027,-0.00000013\\\@


 It takes a long time to grow an old friend.
                            -- John Leonard
 Job cpu time:       0 days  0 hours 11 minutes 47.2 seconds.
 File lengths (MBytes):  RWF=     23 Int=      0 D2E=      0 Chk=      3 Scr=      1
 Normal termination of Gaussian 09 at Thu Sep 28 14:49:21 2023.
