 Entering Gaussian System, Link 0=g09
 Initial command:
 /home/minenky/programs//g09/l1.exe "/local/scratch/minenky/m1_00_604-83-1-C16H14_wB97XD/Gau-98640.inp" -scrdir="/local/scratch/minenky/m1_00_604-83-1-C16H14_wB97XD/"
 Entering Link 1 = /home/minenky/programs//g09/l1.exe PID=     98649.
  
 Copyright (c) 1988,1990,1992,1993,1995,1998,2003,2009,2013,
            Gaussian, Inc.  All Rights Reserved.
  
 This is part of the Gaussian(R) 09 program.  It is based on
 the Gaussian(R) 03 system (copyright 2003, Gaussian, Inc.),
 the Gaussian(R) 98 system (copyright 1998, Gaussian, Inc.),
 the Gaussian(R) 94 system (copyright 1995, Gaussian, Inc.),
 the Gaussian 92(TM) system (copyright 1992, Gaussian, Inc.),
 the Gaussian 90(TM) system (copyright 1990, Gaussian, Inc.),
 the Gaussian 88(TM) system (copyright 1988, Gaussian, Inc.),
 the Gaussian 86(TM) system (copyright 1986, Carnegie Mellon
 University), and the Gaussian 82(TM) system (copyright 1983,
 Carnegie Mellon University). Gaussian is a federally registered
 trademark of Gaussian, Inc.
  
 This software contains proprietary and confidential information,
 including trade secrets, belonging to Gaussian, Inc.
  
 This software is provided under written license and may be
 used, copied, transmitted, or stored only in accord with that
 written license.
  
 The following legend is applicable only to US Government
 contracts under FAR:
  
                    RESTRICTED RIGHTS LEGEND
  
 Use, reproduction and disclosure by the US Government is
 subject to restrictions as set forth in subparagraphs (a)
 and (c) of the Commercial Computer Software - Restricted
 Rights clause in FAR 52.227-19.
  
 Gaussian, Inc.
 340 Quinnipiac St., Bldg. 40, Wallingford CT 06492
  
  
 ---------------------------------------------------------------
 Warning -- This program may not be used in any manner that
 competes with the business of Gaussian, Inc. or will provide
 assistance to any competitor of Gaussian, Inc.  The licensee
 of this program is prohibited from giving any competitor of
 Gaussian, Inc. access to this program.  By using this program,
 the user acknowledges that Gaussian, Inc. is engaged in the
 business of creating and licensing software in the field of
 computational chemistry and represents and warrants to the
 licensee that it is not a competitor of Gaussian, Inc. and that
 it will not use this program in any manner prohibited above.
 ---------------------------------------------------------------
  

 Cite this work as:
 Gaussian 09, Revision D.01,
 M. J. Frisch, G. W. Trucks, H. B. Schlegel, G. E. Scuseria, 
 M. A. Robb, J. R. Cheeseman, G. Scalmani, V. Barone, B. Mennucci, 
 G. A. Petersson, H. Nakatsuji, M. Caricato, X. Li, H. P. Hratchian, 
 A. F. Izmaylov, J. Bloino, G. Zheng, J. L. Sonnenberg, M. Hada, 
 M. Ehara, K. Toyota, R. Fukuda, J. Hasegawa, M. Ishida, T. Nakajima, 
 Y. Honda, O. Kitao, H. Nakai, T. Vreven, J. A. Montgomery, Jr., 
 J. E. Peralta, F. Ogliaro, M. Bearpark, J. J. Heyd, E. Brothers, 
 K. N. Kudin, V. N. Staroverov, T. Keith, R. Kobayashi, J. Normand, 
 K. Raghavachari, A. Rendell, J. C. Burant, S. S. Iyengar, J. Tomasi, 
 M. Cossi, N. Rega, J. M. Millam, M. Klene, J. E. Knox, J. B. Cross, 
 V. Bakken, C. Adamo, J. Jaramillo, R. Gomperts, R. E. Stratmann, 
 O. Yazyev, A. J. Austin, R. Cammi, C. Pomelli, J. W. Ochterski, 
 R. L. Martin, K. Morokuma, V. G. Zakrzewski, G. A. Voth, 
 P. Salvador, J. J. Dannenberg, S. Dapprich, A. D. Daniels, 
 O. Farkas, J. B. Foresman, J. V. Ortiz, J. Cioslowski, 
 and D. J. Fox, Gaussian, Inc., Wallingford CT, 2013.
 
 ******************************************
 Gaussian 09:  AM64L-G09RevD.01 24-Apr-2013
                 9-Jul-2021 
 ******************************************
 %Mem=32000MB
 %NProcShared=16
 Will use up to   16 processors via shared memory.
 %Chk=m1_00_604-83-1-C16H14_wB97XD
 ----------------------------------------------------------------------
 #P wB97XD/def2tzvp opt=(tight) freq integral(Grid=ultrafine) # SCF(Max
 Cycle=380) 5d 7f GFPrint
 ----------------------------------------------------------------------
 1/7=10,14=-1,18=20,19=15,26=4,38=1/1,3;
 2/9=110,12=2,17=6,18=5,40=1/2;
 3/5=44,7=101,8=11,11=2,16=1,24=100,25=1,30=1,71=1,74=-58,75=-5/1,2,3;
 4//1;
 5/5=2,7=380,38=5/2;
 6/7=2,8=2,9=2,10=2,28=1/1;
 7//1,2,3,16;
 1/7=10,14=-1,18=20,19=15,26=4/3(2);
 2/9=110/2;
 99//99;
 2/9=110/2;
 3/5=44,7=101,8=11,11=2,16=1,25=1,30=1,71=1,74=-58,75=-5/1,2,3;
 4/5=5,16=3,69=1/1;
 5/5=2,7=380,38=5/2;
 7//1,2,3,16;
 1/7=10,14=-1,18=20,19=15,26=4/3(-5);
 2/9=110/2;
 6/7=2,8=2,9=2,10=2,19=2,28=1/1;
 99/9=1/99;
 Leave Link    1 at Fri Jul  9 19:19:35 2021, MaxMem=  4194304000 cpu:         1.2
 (Enter /home/minenky/programs//g09/l101.exe)
 ---------------------------------------
 The PBEPBE optimization and frequencies
 ---------------------------------------
 Symbolic Z-matrix:
 Charge =  0 Multiplicity = 1
 C                    -0.68441   1.61078   0. 
 C                    -1.50824   2.87288   0.00001 
 C                    -1.41283   0.35852   0. 
 C                     0.68441   1.61078  0. 
 C                    -0.72403  -0.88074  0. 
 C                    -2.82484   0.33934   0. 
 C                     1.50823   2.87289  -0.00001 
 C                     1.41283   0.35853  0. 
 C                     0.72403  -0.88074   0. 
 C                    -1.47455  -2.07213  -0.00001 
 C                    -3.5329   -0.84035   0. 
 C                     2.82484   0.33935  0. 
 C                     1.47455  -2.07213   0.00001 
 C                    -2.8503   -2.06044  -0.00001 
 C                     3.5329   -0.84035   0. 
 C                     2.8503   -2.06044   0.00001 
 H                    -2.15713   2.91447  -0.87814 
 H                    -2.15713   2.91446   0.87815 
 H                    -0.90668   3.77387   0.00001 
 H                    -3.37115   1.26983   0.00001 
 H                     2.15712   2.91447  -0.87815 
 H                     0.90667   3.77387  -0.00001 
 H                     2.15712   2.91447   0.87814 
 H                    -0.96771  -3.02535  -0.00002 
 H                    -4.61511  -0.82133   0. 
 H                     3.37115   1.26984  -0.00001 
 H                     0.96771  -3.02535   0.00002 
 H                    -3.3993   -2.99313  -0.00001 
 H                     4.61511  -0.82133  0. 
 H                     3.3993   -2.99313   0.00001 
 
 NAtoms=     30 NQM=       30 NQMF=       0 NMMI=      0 NMMIF=      0
                NMic=       0 NMicF=      0.
                    Isotopes and Nuclear Properties:
 (Nuclear quadrupole moments (NQMom) in fm**2, nuclear magnetic moments (NMagM)
  in nuclear magnetons)

  Atom         1           2           3           4           5           6           7           8           9          10
 IAtWgt=          12          12          12          12          12          12          12          12          12          12
 AtmWgt=  12.0000000  12.0000000  12.0000000  12.0000000  12.0000000  12.0000000  12.0000000  12.0000000  12.0000000  12.0000000
 NucSpn=           0           0           0           0           0           0           0           0           0           0
 AtZEff=   0.0000000   0.0000000   0.0000000   0.0000000   0.0000000   0.0000000   0.0000000   0.0000000   0.0000000   0.0000000
 NQMom=    0.0000000   0.0000000   0.0000000   0.0000000   0.0000000   0.0000000   0.0000000   0.0000000   0.0000000   0.0000000
 NMagM=    0.0000000   0.0000000   0.0000000   0.0000000   0.0000000   0.0000000   0.0000000   0.0000000   0.0000000   0.0000000
 AtZNuc=   6.0000000   6.0000000   6.0000000   6.0000000   6.0000000   6.0000000   6.0000000   6.0000000   6.0000000   6.0000000

  Atom        11          12          13          14          15          16          17          18          19          20
 IAtWgt=          12          12          12          12          12          12           1           1           1           1
 AtmWgt=  12.0000000  12.0000000  12.0000000  12.0000000  12.0000000  12.0000000   1.0078250   1.0078250   1.0078250   1.0078250
 NucSpn=           0           0           0           0           0           0           1           1           1           1
 AtZEff=   0.0000000   0.0000000   0.0000000   0.0000000   0.0000000   0.0000000   0.0000000   0.0000000   0.0000000   0.0000000
 NQMom=    0.0000000   0.0000000   0.0000000   0.0000000   0.0000000   0.0000000   0.0000000   0.0000000   0.0000000   0.0000000
 NMagM=    0.0000000   0.0000000   0.0000000   0.0000000   0.0000000   0.0000000   2.7928460   2.7928460   2.7928460   2.7928460
 AtZNuc=   6.0000000   6.0000000   6.0000000   6.0000000   6.0000000   6.0000000   1.0000000   1.0000000   1.0000000   1.0000000

  Atom        21          22          23          24          25          26          27          28          29          30
 IAtWgt=           1           1           1           1           1           1           1           1           1           1
 AtmWgt=   1.0078250   1.0078250   1.0078250   1.0078250   1.0078250   1.0078250   1.0078250   1.0078250   1.0078250   1.0078250
 NucSpn=           1           1           1           1           1           1           1           1           1           1
 AtZEff=   0.0000000   0.0000000   0.0000000   0.0000000   0.0000000   0.0000000   0.0000000   0.0000000   0.0000000   0.0000000
 NQMom=    0.0000000   0.0000000   0.0000000   0.0000000   0.0000000   0.0000000   0.0000000   0.0000000   0.0000000   0.0000000
 NMagM=    2.7928460   2.7928460   2.7928460   2.7928460   2.7928460   2.7928460   2.7928460   2.7928460   2.7928460   2.7928460
 AtZNuc=   1.0000000   1.0000000   1.0000000   1.0000000   1.0000000   1.0000000   1.0000000   1.0000000   1.0000000   1.0000000
 Leave Link  101 at Fri Jul  9 19:19:36 2021, MaxMem=  4194304000 cpu:         4.3
 (Enter /home/minenky/programs//g09/l103.exe)

 GradGradGradGradGradGradGradGradGradGradGradGradGradGradGradGradGradGrad
 Berny optimization.
 Initialization pass.
                           ----------------------------
                           !    Initial Parameters    !
                           ! (Angstroms and Degrees)  !
 --------------------------                            --------------------------
 ! Name  Definition              Value          Derivative Info.                !
 --------------------------------------------------------------------------------
 ! R1    R(1,2)                  1.5072         estimate D2E/DX2                !
 ! R2    R(1,3)                  1.4487         estimate D2E/DX2                !
 ! R3    R(1,4)                  1.3688         estimate D2E/DX2                !
 ! R4    R(2,17)                 1.0927         estimate D2E/DX2                !
 ! R5    R(2,18)                 1.0927         estimate D2E/DX2                !
 ! R6    R(2,19)                 1.0833         estimate D2E/DX2                !
 ! R7    R(3,5)                  1.4178         estimate D2E/DX2                !
 ! R8    R(3,6)                  1.4121         estimate D2E/DX2                !
 ! R9    R(4,7)                  1.5072         estimate D2E/DX2                !
 ! R10   R(4,8)                  1.4487         estimate D2E/DX2                !
 ! R11   R(5,9)                  1.4481         estimate D2E/DX2                !
 ! R12   R(5,10)                 1.4081         estimate D2E/DX2                !
 ! R13   R(6,11)                 1.3759         estimate D2E/DX2                !
 ! R14   R(6,20)                 1.079          estimate D2E/DX2                !
 ! R15   R(7,21)                 1.0927         estimate D2E/DX2                !
 ! R16   R(7,22)                 1.0833         estimate D2E/DX2                !
 ! R17   R(7,23)                 1.0927         estimate D2E/DX2                !
 ! R18   R(8,9)                  1.4178         estimate D2E/DX2                !
 ! R19   R(8,12)                 1.4121         estimate D2E/DX2                !
 ! R20   R(9,13)                 1.4081         estimate D2E/DX2                !
 ! R21   R(10,14)                1.3758         estimate D2E/DX2                !
 ! R22   R(10,24)                1.0796         estimate D2E/DX2                !
 ! R23   R(11,14)                1.3981         estimate D2E/DX2                !
 ! R24   R(11,25)                1.0824         estimate D2E/DX2                !
 ! R25   R(12,15)                1.3759         estimate D2E/DX2                !
 ! R26   R(12,26)                1.079          estimate D2E/DX2                !
 ! R27   R(13,16)                1.3758         estimate D2E/DX2                !
 ! R28   R(13,27)                1.0796         estimate D2E/DX2                !
 ! R29   R(14,28)                1.0823         estimate D2E/DX2                !
 ! R30   R(15,16)                1.3981         estimate D2E/DX2                !
 ! R31   R(15,29)                1.0824         estimate D2E/DX2                !
 ! R32   R(16,30)                1.0823         estimate D2E/DX2                !
 ! A1    A(2,1,3)              116.68           estimate D2E/DX2                !
 ! A2    A(2,1,4)              123.134          estimate D2E/DX2                !
 ! A3    A(3,1,4)              120.1859         estimate D2E/DX2                !
 ! A4    A(1,2,17)             110.8835         estimate D2E/DX2                !
 ! A5    A(1,2,18)             110.8835         estimate D2E/DX2                !
 ! A6    A(1,2,19)             113.136          estimate D2E/DX2                !
 ! A7    A(17,2,18)            106.9641         estimate D2E/DX2                !
 ! A8    A(17,2,19)            107.3439         estimate D2E/DX2                !
 ! A9    A(18,2,19)            107.3439         estimate D2E/DX2                !
 ! A10   A(1,3,5)              120.7483         estimate D2E/DX2                !
 ! A11   A(1,3,6)              120.9641         estimate D2E/DX2                !
 ! A12   A(5,3,6)              118.2876         estimate D2E/DX2                !
 ! A13   A(1,4,7)              123.134          estimate D2E/DX2                !
 ! A14   A(1,4,8)              120.1859         estimate D2E/DX2                !
 ! A15   A(7,4,8)              116.6801         estimate D2E/DX2                !
 ! A16   A(3,5,9)              119.0658         estimate D2E/DX2                !
 ! A17   A(3,5,10)             118.725          estimate D2E/DX2                !
 ! A18   A(9,5,10)             122.2091         estimate D2E/DX2                !
 ! A19   A(3,6,11)             121.7509         estimate D2E/DX2                !
 ! A20   A(3,6,20)             119.6399         estimate D2E/DX2                !
 ! A21   A(11,6,20)            118.6092         estimate D2E/DX2                !
 ! A22   A(4,7,21)             110.8836         estimate D2E/DX2                !
 ! A23   A(4,7,22)             113.1361         estimate D2E/DX2                !
 ! A24   A(4,7,23)             110.8836         estimate D2E/DX2                !
 ! A25   A(21,7,22)            107.3438         estimate D2E/DX2                !
 ! A26   A(21,7,23)            106.9641         estimate D2E/DX2                !
 ! A27   A(22,7,23)            107.3438         estimate D2E/DX2                !
 ! A28   A(4,8,9)              120.7483         estimate D2E/DX2                !
 ! A29   A(4,8,12)             120.9642         estimate D2E/DX2                !
 ! A30   A(9,8,12)             118.2876         estimate D2E/DX2                !
 ! A31   A(5,9,8)              119.0658         estimate D2E/DX2                !
 ! A32   A(5,9,13)             122.2091         estimate D2E/DX2                !
 ! A33   A(8,9,13)             118.7251         estimate D2E/DX2                !
 ! A34   A(5,10,14)            121.7221         estimate D2E/DX2                !
 ! A35   A(5,10,24)            119.7904         estimate D2E/DX2                !
 ! A36   A(14,10,24)           118.4875         estimate D2E/DX2                !
 ! A37   A(6,11,14)            119.8017         estimate D2E/DX2                !
 ! A38   A(6,11,25)            119.9658         estimate D2E/DX2                !
 ! A39   A(14,11,25)           120.2325         estimate D2E/DX2                !
 ! A40   A(8,12,15)            121.7508         estimate D2E/DX2                !
 ! A41   A(8,12,26)            119.64           estimate D2E/DX2                !
 ! A42   A(15,12,26)           118.6092         estimate D2E/DX2                !
 ! A43   A(9,13,16)            121.7222         estimate D2E/DX2                !
 ! A44   A(9,13,27)            119.7903         estimate D2E/DX2                !
 ! A45   A(16,13,27)           118.4875         estimate D2E/DX2                !
 ! A46   A(10,14,11)           119.7127         estimate D2E/DX2                !
 ! A47   A(10,14,28)           119.9952         estimate D2E/DX2                !
 ! A48   A(11,14,28)           120.2921         estimate D2E/DX2                !
 ! A49   A(12,15,16)           119.8018         estimate D2E/DX2                !
 ! A50   A(12,15,29)           119.9658         estimate D2E/DX2                !
 ! A51   A(16,15,29)           120.2324         estimate D2E/DX2                !
 ! A52   A(13,16,15)           119.7126         estimate D2E/DX2                !
 ! A53   A(13,16,30)           119.9953         estimate D2E/DX2                !
 ! A54   A(15,16,30)           120.2922         estimate D2E/DX2                !
 ! D1    D(3,1,2,17)           -59.3367         estimate D2E/DX2                !
 ! D2    D(3,1,2,18)            59.3365         estimate D2E/DX2                !
 ! D3    D(3,1,2,19)           179.9999         estimate D2E/DX2                !
 ! D4    D(4,1,2,17)           120.6632         estimate D2E/DX2                !
 ! D5    D(4,1,2,18)          -120.6635         estimate D2E/DX2                !
 ! D6    D(4,1,2,19)            -0.0001         estimate D2E/DX2                !
 ! D7    D(2,1,3,5)            180.0            estimate D2E/DX2                !
 ! D8    D(2,1,3,6)              0.0001         estimate D2E/DX2                !
 ! D9    D(4,1,3,5)              0.0001         estimate D2E/DX2                !
 ! D10   D(4,1,3,6)           -179.9998         estimate D2E/DX2                !
 ! D11   D(2,1,4,7)             -0.0002         estimate D2E/DX2                !
 ! D12   D(2,1,4,8)            179.9998         estimate D2E/DX2                !
 ! D13   D(3,1,4,7)            179.9997         estimate D2E/DX2                !
 ! D14   D(3,1,4,8)             -0.0002         estimate D2E/DX2                !
 ! D15   D(1,3,5,9)              0.0003         estimate D2E/DX2                !
 ! D16   D(1,3,5,10)          -179.9997         estimate D2E/DX2                !
 ! D17   D(6,3,5,9)           -179.9998         estimate D2E/DX2                !
 ! D18   D(6,3,5,10)             0.0001         estimate D2E/DX2                !
 ! D19   D(1,3,6,11)           179.9998         estimate D2E/DX2                !
 ! D20   D(1,3,6,20)            -0.0001         estimate D2E/DX2                !
 ! D21   D(5,3,6,11)            -0.0001         estimate D2E/DX2                !
 ! D22   D(5,3,6,20)          -180.0            estimate D2E/DX2                !
 ! D23   D(1,4,7,21)          -120.6635         estimate D2E/DX2                !
 ! D24   D(1,4,7,22)            -0.0001         estimate D2E/DX2                !
 ! D25   D(1,4,7,23)           120.6632         estimate D2E/DX2                !
 ! D26   D(8,4,7,21)            59.3365         estimate D2E/DX2                !
 ! D27   D(8,4,7,22)           179.9999         estimate D2E/DX2                !
 ! D28   D(8,4,7,23)           -59.3368         estimate D2E/DX2                !
 ! D29   D(1,4,8,9)              0.0001         estimate D2E/DX2                !
 ! D30   D(1,4,8,12)          -179.9999         estimate D2E/DX2                !
 ! D31   D(7,4,8,9)           -179.9999         estimate D2E/DX2                !
 ! D32   D(7,4,8,12)             0.0002         estimate D2E/DX2                !
 ! D33   D(3,5,9,8)             -0.0005         estimate D2E/DX2                !
 ! D34   D(3,5,9,13)           179.9996         estimate D2E/DX2                !
 ! D35   D(10,5,9,8)           179.9995         estimate D2E/DX2                !
 ! D36   D(10,5,9,13)           -0.0004         estimate D2E/DX2                !
 ! D37   D(3,5,10,14)           -0.0001         estimate D2E/DX2                !
 ! D38   D(3,5,10,24)          179.9997         estimate D2E/DX2                !
 ! D39   D(9,5,10,14)          179.9999         estimate D2E/DX2                !
 ! D40   D(9,5,10,24)           -0.0003         estimate D2E/DX2                !
 ! D41   D(3,6,11,14)           -0.0001         estimate D2E/DX2                !
 ! D42   D(3,6,11,25)          180.0            estimate D2E/DX2                !
 ! D43   D(20,6,11,14)         179.9999         estimate D2E/DX2                !
 ! D44   D(20,6,11,25)          -0.0001         estimate D2E/DX2                !
 ! D45   D(4,8,9,5)              0.0003         estimate D2E/DX2                !
 ! D46   D(4,8,9,13)          -179.9998         estimate D2E/DX2                !
 ! D47   D(12,8,9,5)          -179.9998         estimate D2E/DX2                !
 ! D48   D(12,8,9,13)            0.0001         estimate D2E/DX2                !
 ! D49   D(4,8,12,15)          179.9998         estimate D2E/DX2                !
 ! D50   D(4,8,12,26)           -0.0001         estimate D2E/DX2                !
 ! D51   D(9,8,12,15)           -0.0001         estimate D2E/DX2                !
 ! D52   D(9,8,12,26)         -180.0            estimate D2E/DX2                !
 ! D53   D(5,9,13,16)          179.9998         estimate D2E/DX2                !
 ! D54   D(5,9,13,27)           -0.0004         estimate D2E/DX2                !
 ! D55   D(8,9,13,16)           -0.0001         estimate D2E/DX2                !
 ! D56   D(8,9,13,27)          179.9997         estimate D2E/DX2                !
 ! D57   D(5,10,14,11)           0.0            estimate D2E/DX2                !
 ! D58   D(5,10,14,28)         180.0            estimate D2E/DX2                !
 ! D59   D(24,10,14,11)       -179.9998         estimate D2E/DX2                !
 ! D60   D(24,10,14,28)          0.0002         estimate D2E/DX2                !
 ! D61   D(6,11,14,10)           0.0001         estimate D2E/DX2                !
 ! D62   D(6,11,14,28)        -179.9999         estimate D2E/DX2                !
 ! D63   D(25,11,14,10)       -179.9999         estimate D2E/DX2                !
 ! D64   D(25,11,14,28)          0.0            estimate D2E/DX2                !
 ! D65   D(8,12,15,16)           0.0            estimate D2E/DX2                !
 ! D66   D(8,12,15,29)         180.0            estimate D2E/DX2                !
 ! D67   D(26,12,15,16)        179.9999         estimate D2E/DX2                !
 ! D68   D(26,12,15,29)         -0.0001         estimate D2E/DX2                !
 ! D69   D(9,13,16,15)           0.0            estimate D2E/DX2                !
 ! D70   D(9,13,16,30)         179.9999         estimate D2E/DX2                !
 ! D71   D(27,13,16,15)       -179.9998         estimate D2E/DX2                !
 ! D72   D(27,13,16,30)          0.0001         estimate D2E/DX2                !
 ! D73   D(12,15,16,13)          0.0            estimate D2E/DX2                !
 ! D74   D(12,15,16,30)       -179.9999         estimate D2E/DX2                !
 ! D75   D(29,15,16,13)       -179.9999         estimate D2E/DX2                !
 ! D76   D(29,15,16,30)          0.0001         estimate D2E/DX2                !
 --------------------------------------------------------------------------------
 Trust Radius=3.00D-01 FncErr=1.00D-07 GrdErr=1.00D-06
 Number of steps in this run=    172 maximum allowed number of steps=    180.
 GradGradGradGradGradGradGradGradGradGradGradGradGradGradGradGradGradGrad

 Leave Link  103 at Fri Jul  9 19:19:36 2021, MaxMem=  4194304000 cpu:         0.1
 (Enter /home/minenky/programs//g09/l202.exe)
                          Input orientation:                          
 ---------------------------------------------------------------------
 Center     Atomic      Atomic             Coordinates (Angstroms)
 Number     Number       Type             X           Y           Z
 ---------------------------------------------------------------------
      1          6           0       -0.684411    1.610776    0.000003
      2          6           0       -1.508238    2.872882    0.000007
      3          6           0       -1.412826    0.358524    0.000003
      4          6           0        0.684409    1.610777   -0.000002
      5          6           0       -0.724026   -0.880742   -0.000001
      6          6           0       -2.824835    0.339343    0.000004
      7          6           0        1.508232    2.872885   -0.000008
      8          6           0        1.412826    0.358526   -0.000002
      9          6           0        0.724028   -0.880741    0.000002
     10          6           0       -1.474550   -2.072135   -0.000007
     11          6           0       -3.532899   -0.840351    0.000000
     12          6           0        2.824836    0.339346   -0.000004
     13          6           0        1.474553   -2.072133    0.000007
     14          6           0       -2.850295   -2.060442   -0.000007
     15          6           0        3.532900   -0.840348    0.000000
     16          6           0        2.850298   -2.060440    0.000006
     17          1           0       -2.157128    2.914466   -0.878138
     18          1           0       -2.157125    2.914462    0.878154
     19          1           0       -0.906677    3.773865    0.000008
     20          1           0       -3.371147    1.269832    0.000007
     21          1           0        2.157119    2.914467   -0.878154
     22          1           0        0.906670    3.773868   -0.000010
     23          1           0        2.157122    2.914473    0.878137
     24          1           0       -0.967705   -3.025351   -0.000015
     25          1           0       -4.615112   -0.821333    0.000001
     26          1           0        3.371148    1.269835   -0.000007
     27          1           0        0.967708   -3.025349    0.000015
     28          1           0       -3.399300   -2.993131   -0.000012
     29          1           0        4.615114   -0.821329   -0.000002
     30          1           0        3.399304   -2.993128    0.000011
 ---------------------------------------------------------------------
                    Distance matrix (angstroms):
                    1          2          3          4          5
     1  C    0.000000
     2  C    1.507184   0.000000
     3  C    1.448697   2.516168   0.000000
     4  C    1.368820   2.529943   2.442649   0.000000
     5  C    2.491833   3.834668   1.417824   2.862055   0.000000
     6  C    2.489570   2.855214   1.412139   3.732471   2.429404
     7  C    2.529941   3.016470   3.854165   1.507183   4.367229
     8  C    2.442649   3.854167   2.825652   1.448697   2.470207
     9  C    2.862055   4.367230   2.470207   2.491833   1.448054
    10  C    3.766716   4.945132   2.431443   4.269068   1.408085
    11  C    3.757913   4.229344   2.435572   4.877880   2.809163
    12  C    3.732472   5.019396   4.237705   2.489571   3.752737
    13  C    4.269068   5.774965   3.774262   3.766717   2.500632
    14  C    4.262499   5.112612   2.813843   5.096271   2.431607
    15  C    4.877881   6.261082   5.088959   3.757914   4.257118
    16  C    5.096273   6.582895   4.901593   4.262500   3.763971
    17  H    2.153981   1.092669   2.803205   3.247316   4.150724
    18  H    2.153981   1.092669   2.803203   3.247317   4.150723
    19  H    2.174478   1.083349   3.452643   2.685238   4.658189
    20  H    2.708282   2.457682   2.159978   4.069862   3.410604
    21  H    3.247316   3.769315   4.477556   2.153981   4.845179
    22  H    2.685238   2.577510   4.128515   2.174480   4.931994
    23  H    3.247315   3.769311   4.477558   2.153981   4.845183
    24  H    4.644774   5.922949   3.413025   4.921703   2.158408
    25  H    4.622290   4.826996   3.412726   5.830959   3.891540
    26  H    4.069865   5.135968   4.869999   2.708285   4.625520
    27  H    4.921702   6.396830   4.137335   4.644774   2.731539
    28  H    5.344771   6.163297   3.896110   6.154076   3.408706
    29  H    5.830960   7.151408   6.142322   4.622292   5.339471
    30  H    6.154077   7.648140   5.864313   5.344773   4.632928
                    6          7          8          9         10
     6  C    0.000000
     7  C    5.019393   0.000000
     8  C    4.237704   2.516168   0.000000
     9  C    3.752737   3.834669   1.417824   0.000000
    10  C    2.763783   5.774964   3.774262   2.500633   0.000000
    11  C    1.375875   6.261080   5.088959   4.257119   2.398769
    12  C    5.649671   2.855217   1.412140   2.429405   4.929499
    13  C    4.929498   4.945133   2.431443   1.408085   2.949103
    14  C    2.399920   6.582892   4.901592   3.763971   1.375795
    15  C    6.466256   4.229347   2.435572   2.809162   5.156729
    16  C    6.161663   5.112615   2.813845   2.431607   4.324864
    17  H    2.801468   3.769311   4.477558   4.845182   5.109131
    18  H    2.801468   3.769315   4.477557   4.845179   5.109132
    19  H    3.933862   2.577509   4.128515   4.931993   5.873516
    20  H    1.079012   5.135963   4.869998   4.625519   3.842632
    21  H    5.676468   1.092668   2.803205   4.150724   6.231080
    22  H    5.071498   1.083350   3.452645   4.658191   6.312366
    23  H    5.676470   1.092669   2.803207   4.150726   6.231086
    24  H    3.843188   6.396831   4.137336   2.731540   1.079589
    25  H    2.133603   7.151405   6.142321   5.339471   3.380479
    26  H    6.265463   2.457687   2.159979   3.410604   5.886387
    27  H    5.069964   5.922949   3.413025   2.158408   2.621687
    28  H    3.381626   7.648138   5.864313   4.632928   2.133752
    29  H    7.529940   4.827000   3.412727   3.891540   6.216794
    30  H    7.060118   6.163300   3.896111   3.408707   4.960109
                   11         12         13         14         15
    11  C    0.000000
    12  C    6.466257   0.000000
    13  C    5.156730   2.763783   0.000000
    14  C    1.398059   6.161663   4.324864   0.000000
    15  C    7.065799   1.375875   2.398768   6.498754   0.000000
    16  C    6.498755   2.399921   1.375795   5.700593   1.398059
    17  H    4.094206   5.676471   6.231085   5.099147   6.873585
    18  H    4.094207   5.676471   6.231080   5.099149   6.873583
    19  H    5.309240   5.071500   6.312365   6.149536   6.403187
    20  H    2.116373   6.265462   5.886386   3.370758   7.219330
    21  H    6.873581   2.801471   5.109133   7.113020   4.094211
    22  H    6.403186   3.933866   5.873518   6.939305   5.309244
    23  H    6.873585   2.801473   5.109134   7.113026   4.094212
    24  H    3.369636   5.069966   2.621688   2.115466   5.002967
    25  H    1.082380   7.529940   6.216793   2.156379   8.148034
    26  H    7.219332   1.079012   3.842632   7.056706   2.116373
    27  H    5.002967   3.843188   1.079589   3.938044   3.369635
    28  H    2.156922   7.060118   4.960109   1.082273   7.258779
    29  H    8.148035   2.133603   3.380478   7.567545   1.082381
    30  H    7.258780   3.381626   2.133752   6.318812   2.156921
                   16         17         18         19         20
    16  C    0.000000
    17  H    7.113026   0.000000
    18  H    7.113022   1.756292   0.000000
    19  H    6.939307   1.753093   1.753093   0.000000
    20  H    7.056705   2.224815   2.224814   3.513374   0.000000
    21  H    5.099153   4.314247   4.658038   3.300997   5.834185
    22  H    6.149540   3.300991   3.300998   1.813347   4.956805
    23  H    5.099153   4.658031   4.314247   3.300989   5.834185
    24  H    3.938045   6.121050   6.121052   6.799490   4.921903
    25  H    7.567545   4.557303   4.557304   5.904942   2.433191
    26  H    3.370759   5.834189   5.834189   4.956809   6.742295
    27  H    2.115466   6.768837   6.768830   7.052846   6.105264
    28  H    6.318812   6.100311   6.100314   7.211477   4.263056
    29  H    2.156379   7.783993   7.783991   7.183730   8.255502
    30  H    1.082273   8.157496   8.157491   8.020827   8.000740
                   21         22         23         24         25
    21  H    0.000000
    22  H    1.753091   0.000000
    23  H    1.756291   1.753092   0.000000
    24  H    6.768832   7.052848   6.768841   0.000000
    25  H    7.783988   7.183728   7.783991   4.261605   0.000000
    26  H    2.224820   3.513379   2.224821   6.105266   8.255503
    27  H    6.121053   6.799491   6.121053   1.935413   6.002130
    28  H    8.157490   8.020826   8.157497   2.431808   2.488957
    29  H    4.557309   5.904946   4.557309   6.002131   9.230226
    30  H    6.100318   7.211481   6.100317   4.367128   8.303467
                   26         27         28         29         30
    26  H    0.000000
    27  H    4.921903   0.000000
    28  H    8.000740   4.367127   0.000000
    29  H    2.433191   4.261605   8.303466   0.000000
    30  H    4.263056   2.431809   6.798604   2.488957   0.000000
 Stoichiometry    C16H14
 Framework group  C1[X(C16H14)]
 Deg. of freedom    84
 Full point group                 C1      NOp   1
 Largest Abelian subgroup         C1      NOp   1
 Largest concise Abelian subgroup C1      NOp   1
                         Standard orientation:                         
 ---------------------------------------------------------------------
 Center     Atomic      Atomic             Coordinates (Angstroms)
 Number     Number       Type             X           Y           Z
 ---------------------------------------------------------------------
      1          6           0        0.684411    1.610776   -0.000003
      2          6           0        1.508238    2.872882   -0.000007
      3          6           0        1.412826    0.358524   -0.000003
      4          6           0       -0.684409    1.610777    0.000002
      5          6           0        0.724026   -0.880742    0.000001
      6          6           0        2.824835    0.339343   -0.000004
      7          6           0       -1.508232    2.872885    0.000008
      8          6           0       -1.412826    0.358526    0.000002
      9          6           0       -0.724028   -0.880741   -0.000002
     10          6           0        1.474550   -2.072135    0.000007
     11          6           0        3.532899   -0.840351    0.000000
     12          6           0       -2.824836    0.339346    0.000004
     13          6           0       -1.474553   -2.072133   -0.000007
     14          6           0        2.850295   -2.060442    0.000007
     15          6           0       -3.532900   -0.840348    0.000000
     16          6           0       -2.850298   -2.060440   -0.000006
     17          1           0        2.157128    2.914466    0.878138
     18          1           0        2.157125    2.914462   -0.878154
     19          1           0        0.906677    3.773865   -0.000008
     20          1           0        3.371147    1.269832   -0.000007
     21          1           0       -2.157119    2.914467    0.878154
     22          1           0       -0.906670    3.773868    0.000010
     23          1           0       -2.157122    2.914473   -0.878137
     24          1           0        0.967705   -3.025351    0.000015
     25          1           0        4.615112   -0.821333   -0.000001
     26          1           0       -3.371148    1.269835    0.000007
     27          1           0       -0.967708   -3.025349   -0.000015
     28          1           0        3.399300   -2.993131    0.000012
     29          1           0       -4.615114   -0.821329    0.000002
     30          1           0       -3.399304   -2.993128   -0.000011
 ---------------------------------------------------------------------
 Rotational constants (GHZ):      0.8236681      0.5161695      0.3185599
 Leave Link  202 at Fri Jul  9 19:19:37 2021, MaxMem=  4194304000 cpu:         1.1
 (Enter /home/minenky/programs//g09/l301.exe)
 Standard basis: def2TZVP (5D, 7F)
 ======================================================================================================
                                       Pseudopotential Parameters
 ======================================================================================================
  Center     Atomic      Valence      Angular      Power
  Number     Number     Electrons     Momentum     of R      Exponent        Coefficient   SO-Coeffient
 ======================================================================================================
    1          6
                                   No pseudopotential on this center.
    2          6
                                   No pseudopotential on this center.
    3          6
                                   No pseudopotential on this center.
    4          6
                                   No pseudopotential on this center.
    5          6
                                   No pseudopotential on this center.
    6          6
                                   No pseudopotential on this center.
    7          6
                                   No pseudopotential on this center.
    8          6
                                   No pseudopotential on this center.
    9          6
                                   No pseudopotential on this center.
   10          6
                                   No pseudopotential on this center.
   11          6
                                   No pseudopotential on this center.
   12          6
                                   No pseudopotential on this center.
   13          6
                                   No pseudopotential on this center.
   14          6
                                   No pseudopotential on this center.
   15          6
                                   No pseudopotential on this center.
   16          6
                                   No pseudopotential on this center.
   17          1
                                   No pseudopotential on this center.
   18          1
                                   No pseudopotential on this center.
   19          1
                                   No pseudopotential on this center.
   20          1
                                   No pseudopotential on this center.
   21          1
                                   No pseudopotential on this center.
   22          1
                                   No pseudopotential on this center.
   23          1
                                   No pseudopotential on this center.
   24          1
                                   No pseudopotential on this center.
   25          1
                                   No pseudopotential on this center.
   26          1
                                   No pseudopotential on this center.
   27          1
                                   No pseudopotential on this center.
   28          1
                                   No pseudopotential on this center.
   29          1
                                   No pseudopotential on this center.
   30          1
                                   No pseudopotential on this center.
 ======================================================================================================
 Ernie: Thresh=  0.10000D-02 Tol=  0.10000D-05 Strict=F.
 AO basis set (Overlap normalization):
 Atom C1       Shell     1 S   6     bf    1 -     1          1.293349490885          3.043925309840         -0.000005651999
      0.1357534968D+05  0.6064550360D-03
      0.2035233368D+04  0.4697908888D-02
      0.4632256236D+03  0.2433247765D-01
      0.1312001960D+03  0.9739996831D-01
      0.4285301589D+02  0.3019558425D+00
      0.1558418577D+02  0.6623360914D+00
 Atom C1       Shell     2 S   2     bf    2 -     2          1.293349490885          3.043925309840         -0.000005651999
      0.6206713851D+01  0.6559530854D+00
      0.2576489653D+01  0.3758563329D+00
 Atom C1       Shell     3 S   1     bf    3 -     3          1.293349490885          3.043925309840         -0.000005651999
      0.5769633942D+00  0.1000000000D+01
 Atom C1       Shell     4 S   1     bf    4 -     4          1.293349490885          3.043925309840         -0.000005651999
      0.2297283136D+00  0.1000000000D+01
 Atom C1       Shell     5 S   1     bf    5 -     5          1.293349490885          3.043925309840         -0.000005651999
      0.9516444003D-01  0.1000000000D+01
 Atom C1       Shell     6 P   4     bf    6 -     8          1.293349490885          3.043925309840         -0.000005651999
      0.3469723224D+02  0.1132722000D-01
      0.7958262283D+01  0.7616965920D-01
      0.2378082688D+01  0.3019225220D+00
      0.8143320818D+00  0.7278502735D+00
 Atom C1       Shell     7 P   1     bf    9 -    11          1.293349490885          3.043925309840         -0.000005651999
      0.2888754725D+00  0.1000000000D+01
 Atom C1       Shell     8 P   1     bf   12 -    14          1.293349490885          3.043925309840         -0.000005651999
      0.1005682367D+00  0.1000000000D+01
 Atom C1       Shell     9 D   1     bf   15 -    19          1.293349490885          3.043925309840         -0.000005651999
      0.1097000000D+01  0.1000000000D+01
 Atom C1       Shell    10 D   1     bf   20 -    24          1.293349490885          3.043925309840         -0.000005651999
      0.3180000000D+00  0.1000000000D+01
 Atom C1       Shell    11 F   1     bf   25 -    31          1.293349490885          3.043925309840         -0.000005651999
      0.7610000000D+00  0.1000000000D+01
 Atom C2       Shell    12 S   6     bf   32 -    32          2.850156969939          5.428959956009         -0.000013210904
      0.1357534968D+05  0.6064550360D-03
      0.2035233368D+04  0.4697908888D-02
      0.4632256236D+03  0.2433247765D-01
      0.1312001960D+03  0.9739996831D-01
      0.4285301589D+02  0.3019558425D+00
      0.1558418577D+02  0.6623360914D+00
 Atom C2       Shell    13 S   2     bf   33 -    33          2.850156969939          5.428959956009         -0.000013210904
      0.6206713851D+01  0.6559530854D+00
      0.2576489653D+01  0.3758563329D+00
 Atom C2       Shell    14 S   1     bf   34 -    34          2.850156969939          5.428959956009         -0.000013210904
      0.5769633942D+00  0.1000000000D+01
 Atom C2       Shell    15 S   1     bf   35 -    35          2.850156969939          5.428959956009         -0.000013210904
      0.2297283136D+00  0.1000000000D+01
 Atom C2       Shell    16 S   1     bf   36 -    36          2.850156969939          5.428959956009         -0.000013210904
      0.9516444003D-01  0.1000000000D+01
 Atom C2       Shell    17 P   4     bf   37 -    39          2.850156969939          5.428959956009         -0.000013210904
      0.3469723224D+02  0.1132722000D-01
      0.7958262283D+01  0.7616965920D-01
      0.2378082688D+01  0.3019225220D+00
      0.8143320818D+00  0.7278502735D+00
 Atom C2       Shell    18 P   1     bf   40 -    42          2.850156969939          5.428959956009         -0.000013210904
      0.2888754725D+00  0.1000000000D+01
 Atom C2       Shell    19 P   1     bf   43 -    45          2.850156969939          5.428959956009         -0.000013210904
      0.1005682367D+00  0.1000000000D+01
 Atom C2       Shell    20 D   1     bf   46 -    50          2.850156969939          5.428959956009         -0.000013210904
      0.1097000000D+01  0.1000000000D+01
 Atom C2       Shell    21 D   1     bf   51 -    55          2.850156969939          5.428959956009         -0.000013210904
      0.3180000000D+00  0.1000000000D+01
 Atom C2       Shell    22 F   1     bf   56 -    62          2.850156969939          5.428959956009         -0.000013210904
      0.7610000000D+00  0.1000000000D+01
 Atom C3       Shell    23 S   6     bf   63 -    63          2.669854284325          0.677511941133         -0.000005651999
      0.1357534968D+05  0.6064550360D-03
      0.2035233368D+04  0.4697908888D-02
      0.4632256236D+03  0.2433247765D-01
      0.1312001960D+03  0.9739996831D-01
      0.4285301589D+02  0.3019558425D+00
      0.1558418577D+02  0.6623360914D+00
 Atom C3       Shell    24 S   2     bf   64 -    64          2.669854284325          0.677511941133         -0.000005651999
      0.6206713851D+01  0.6559530854D+00
      0.2576489653D+01  0.3758563329D+00
 Atom C3       Shell    25 S   1     bf   65 -    65          2.669854284325          0.677511941133         -0.000005651999
      0.5769633942D+00  0.1000000000D+01
 Atom C3       Shell    26 S   1     bf   66 -    66          2.669854284325          0.677511941133         -0.000005651999
      0.2297283136D+00  0.1000000000D+01
 Atom C3       Shell    27 S   1     bf   67 -    67          2.669854284325          0.677511941133         -0.000005651999
      0.9516444003D-01  0.1000000000D+01
 Atom C3       Shell    28 P   4     bf   68 -    70          2.669854284325          0.677511941133         -0.000005651999
      0.3469723224D+02  0.1132722000D-01
      0.7958262283D+01  0.7616965920D-01
      0.2378082688D+01  0.3019225220D+00
      0.8143320818D+00  0.7278502735D+00
 Atom C3       Shell    29 P   1     bf   71 -    73          2.669854284325          0.677511941133         -0.000005651999
      0.2888754725D+00  0.1000000000D+01
 Atom C3       Shell    30 P   1     bf   74 -    76          2.669854284325          0.677511941133         -0.000005651999
      0.1005682367D+00  0.1000000000D+01
 Atom C3       Shell    31 D   1     bf   77 -    81          2.669854284325          0.677511941133         -0.000005651999
      0.1097000000D+01  0.1000000000D+01
 Atom C3       Shell    32 D   1     bf   82 -    86          2.669854284325          0.677511941133         -0.000005651999
      0.3180000000D+00  0.1000000000D+01
 Atom C3       Shell    33 F   1     bf   87 -    93          2.669854284325          0.677511941133         -0.000005651999
      0.7610000000D+00  0.1000000000D+01
 Atom C4       Shell    34 S   6     bf   94 -    94         -1.293345434332          3.043927273508          0.000003796632
      0.1357534968D+05  0.6064550360D-03
      0.2035233368D+04  0.4697908888D-02
      0.4632256236D+03  0.2433247765D-01
      0.1312001960D+03  0.9739996831D-01
      0.4285301589D+02  0.3019558425D+00
      0.1558418577D+02  0.6623360914D+00
 Atom C4       Shell    35 S   2     bf   95 -    95         -1.293345434332          3.043927273508          0.000003796632
      0.6206713851D+01  0.6559530854D+00
      0.2576489653D+01  0.3758563329D+00
 Atom C4       Shell    36 S   1     bf   96 -    96         -1.293345434332          3.043927273508          0.000003796632
      0.5769633942D+00  0.1000000000D+01
 Atom C4       Shell    37 S   1     bf   97 -    97         -1.293345434332          3.043927273508          0.000003796632
      0.2297283136D+00  0.1000000000D+01
 Atom C4       Shell    38 S   1     bf   98 -    98         -1.293345434332          3.043927273508          0.000003796632
      0.9516444003D-01  0.1000000000D+01
 Atom C4       Shell    39 P   4     bf   99 -   101         -1.293345434332          3.043927273508          0.000003796632
      0.3469723224D+02  0.1132722000D-01
      0.7958262283D+01  0.7616965920D-01
      0.2378082688D+01  0.3019225220D+00
      0.8143320818D+00  0.7278502735D+00
 Atom C4       Shell    40 P   1     bf  102 -   104         -1.293345434332          3.043927273508          0.000003796632
      0.2888754725D+00  0.1000000000D+01
 Atom C4       Shell    41 P   1     bf  105 -   107         -1.293345434332          3.043927273508          0.000003796632
      0.1005682367D+00  0.1000000000D+01
 Atom C4       Shell    42 D   1     bf  108 -   112         -1.293345434332          3.043927273508          0.000003796632
      0.1097000000D+01  0.1000000000D+01
 Atom C4       Shell    43 D   1     bf  113 -   117         -1.293345434332          3.043927273508          0.000003796632
      0.3180000000D+00  0.1000000000D+01
 Atom C4       Shell    44 F   1     bf  118 -   124         -1.293345434332          3.043927273508          0.000003796632
      0.7610000000D+00  0.1000000000D+01
 Atom C5       Shell    45 S   6     bf  125 -   125          1.368210857050         -1.664361367455          0.000001906905
      0.1357534968D+05  0.6064550360D-03
      0.2035233368D+04  0.4697908888D-02
      0.4632256236D+03  0.2433247765D-01
      0.1312001960D+03  0.9739996831D-01
      0.4285301589D+02  0.3019558425D+00
      0.1558418577D+02  0.6623360914D+00
 Atom C5       Shell    46 S   2     bf  126 -   126          1.368210857050         -1.664361367455          0.000001906905
      0.6206713851D+01  0.6559530854D+00
      0.2576489653D+01  0.3758563329D+00
 Atom C5       Shell    47 S   1     bf  127 -   127          1.368210857050         -1.664361367455          0.000001906905
      0.5769633942D+00  0.1000000000D+01
 Atom C5       Shell    48 S   1     bf  128 -   128          1.368210857050         -1.664361367455          0.000001906905
      0.2297283136D+00  0.1000000000D+01
 Atom C5       Shell    49 S   1     bf  129 -   129          1.368210857050         -1.664361367455          0.000001906905
      0.9516444003D-01  0.1000000000D+01
 Atom C5       Shell    50 P   4     bf  130 -   132          1.368210857050         -1.664361367455          0.000001906905
      0.3469723224D+02  0.1132722000D-01
      0.7958262283D+01  0.7616965920D-01
      0.2378082688D+01  0.3019225220D+00
      0.8143320818D+00  0.7278502735D+00
 Atom C5       Shell    51 P   1     bf  133 -   135          1.368210857050         -1.664361367455          0.000001906905
      0.2888754725D+00  0.1000000000D+01
 Atom C5       Shell    52 P   1     bf  136 -   138          1.368210857050         -1.664361367455          0.000001906905
      0.1005682367D+00  0.1000000000D+01
 Atom C5       Shell    53 D   1     bf  139 -   143          1.368210857050         -1.664361367455          0.000001906905
      0.1097000000D+01  0.1000000000D+01
 Atom C5       Shell    54 D   1     bf  144 -   148          1.368210857050         -1.664361367455          0.000001906905
      0.3180000000D+00  0.1000000000D+01
 Atom C5       Shell    55 F   1     bf  149 -   155          1.368210857050         -1.664361367455          0.000001906905
      0.7610000000D+00  0.1000000000D+01
 Atom C6       Shell    56 S   6     bf  156 -   156          5.338164590459          0.641265027903         -0.000007541725
      0.1357534968D+05  0.6064550360D-03
      0.2035233368D+04  0.4697908888D-02
      0.4632256236D+03  0.2433247765D-01
      0.1312001960D+03  0.9739996831D-01
      0.4285301589D+02  0.3019558425D+00
      0.1558418577D+02  0.6623360914D+00
 Atom C6       Shell    57 S   2     bf  157 -   157          5.338164590459          0.641265027903         -0.000007541725
      0.6206713851D+01  0.6559530854D+00
      0.2576489653D+01  0.3758563329D+00
 Atom C6       Shell    58 S   1     bf  158 -   158          5.338164590459          0.641265027903         -0.000007541725
      0.5769633942D+00  0.1000000000D+01
 Atom C6       Shell    59 S   1     bf  159 -   159          5.338164590459          0.641265027903         -0.000007541725
      0.2297283136D+00  0.1000000000D+01
 Atom C6       Shell    60 S   1     bf  160 -   160          5.338164590459          0.641265027903         -0.000007541725
      0.9516444003D-01  0.1000000000D+01
 Atom C6       Shell    61 P   4     bf  161 -   163          5.338164590459          0.641265027903         -0.000007541725
      0.3469723224D+02  0.1132722000D-01
      0.7958262283D+01  0.7616965920D-01
      0.2378082688D+01  0.3019225220D+00
      0.8143320818D+00  0.7278502735D+00
 Atom C6       Shell    62 P   1     bf  164 -   166          5.338164590459          0.641265027903         -0.000007541725
      0.2888754725D+00  0.1000000000D+01
 Atom C6       Shell    63 P   1     bf  167 -   169          5.338164590459          0.641265027903         -0.000007541725
      0.1005682367D+00  0.1000000000D+01
 Atom C6       Shell    64 D   1     bf  170 -   174          5.338164590459          0.641265027903         -0.000007541725
      0.1097000000D+01  0.1000000000D+01
 Atom C6       Shell    65 D   1     bf  175 -   179          5.338164590459          0.641265027903         -0.000007541725
      0.3180000000D+00  0.1000000000D+01
 Atom C6       Shell    66 F   1     bf  180 -   186          5.338164590459          0.641265027903         -0.000007541725
      0.7610000000D+00  0.1000000000D+01
 Atom C7       Shell    67 S   6     bf  187 -   187         -2.850145218126          5.428965788134          0.000015134988
      0.1357534968D+05  0.6064550360D-03
      0.2035233368D+04  0.4697908888D-02
      0.4632256236D+03  0.2433247765D-01
      0.1312001960D+03  0.9739996831D-01
      0.4285301589D+02  0.3019558425D+00
      0.1558418577D+02  0.6623360914D+00
 Atom C7       Shell    68 S   2     bf  188 -   188         -2.850145218126          5.428965788134          0.000015134988
      0.6206713851D+01  0.6559530854D+00
      0.2576489653D+01  0.3758563329D+00
 Atom C7       Shell    69 S   1     bf  189 -   189         -2.850145218126          5.428965788134          0.000015134988
      0.5769633942D+00  0.1000000000D+01
 Atom C7       Shell    70 S   1     bf  190 -   190         -2.850145218126          5.428965788134          0.000015134988
      0.2297283136D+00  0.1000000000D+01
 Atom C7       Shell    71 S   1     bf  191 -   191         -2.850145218126          5.428965788134          0.000015134988
      0.9516444003D-01  0.1000000000D+01
 Atom C7       Shell    72 P   4     bf  192 -   194         -2.850145218126          5.428965788134          0.000015134988
      0.3469723224D+02  0.1132722000D-01
      0.7958262283D+01  0.7616965920D-01
      0.2378082688D+01  0.3019225220D+00
      0.8143320818D+00  0.7278502735D+00
 Atom C7       Shell    73 P   1     bf  195 -   197         -2.850145218126          5.428965788134          0.000015134988
      0.2888754725D+00  0.1000000000D+01
 Atom C7       Shell    74 P   1     bf  198 -   200         -2.850145218126          5.428965788134          0.000015134988
      0.1005682367D+00  0.1000000000D+01
 Atom C7       Shell    75 D   1     bf  201 -   205         -2.850145218126          5.428965788134          0.000015134988
      0.1097000000D+01  0.1000000000D+01
 Atom C7       Shell    76 D   1     bf  206 -   210         -2.850145218126          5.428965788134          0.000015134988
      0.3180000000D+00  0.1000000000D+01
 Atom C7       Shell    77 F   1     bf  211 -   217         -2.850145218126          5.428965788134          0.000015134988
      0.7610000000D+00  0.1000000000D+01
 Atom C8       Shell    78 S   6     bf  218 -   218         -2.669854142515          0.677515873224          0.000003796632
      0.1357534968D+05  0.6064550360D-03
      0.2035233368D+04  0.4697908888D-02
      0.4632256236D+03  0.2433247765D-01
      0.1312001960D+03  0.9739996831D-01
      0.4285301589D+02  0.3019558425D+00
      0.1558418577D+02  0.6623360914D+00
 Atom C8       Shell    79 S   2     bf  219 -   219         -2.669854142515          0.677515873224          0.000003796632
      0.6206713851D+01  0.6559530854D+00
      0.2576489653D+01  0.3758563329D+00
 Atom C8       Shell    80 S   1     bf  220 -   220         -2.669854142515          0.677515873224          0.000003796632
      0.5769633942D+00  0.1000000000D+01
 Atom C8       Shell    81 S   1     bf  221 -   221         -2.669854142515          0.677515873224          0.000003796632
      0.2297283136D+00  0.1000000000D+01
 Atom C8       Shell    82 S   1     bf  222 -   222         -2.669854142515          0.677515873224          0.000003796632
      0.9516444003D-01  0.1000000000D+01
 Atom C8       Shell    83 P   4     bf  223 -   225         -2.669854142515          0.677515873224          0.000003796632
      0.3469723224D+02  0.1132722000D-01
      0.7958262283D+01  0.7616965920D-01
      0.2378082688D+01  0.3019225220D+00
      0.8143320818D+00  0.7278502735D+00
 Atom C8       Shell    84 P   1     bf  226 -   228         -2.669854142515          0.677515873224          0.000003796632
      0.2888754725D+00  0.1000000000D+01
 Atom C8       Shell    85 P   1     bf  229 -   231         -2.669854142515          0.677515873224          0.000003796632
      0.1005682367D+00  0.1000000000D+01
 Atom C8       Shell    86 D   1     bf  232 -   236         -2.669854142515          0.677515873224          0.000003796632
      0.1097000000D+01  0.1000000000D+01
 Atom C8       Shell    87 D   1     bf  237 -   241         -2.669854142515          0.677515873224          0.000003796632
      0.3180000000D+00  0.1000000000D+01
 Atom C8       Shell    88 F   1     bf  242 -   248         -2.669854142515          0.677515873224          0.000003796632
      0.7610000000D+00  0.1000000000D+01
 Atom C9       Shell    89 S   6     bf  249 -   249         -1.368214628580         -1.664359399507         -0.000003762273
      0.1357534968D+05  0.6064550360D-03
      0.2035233368D+04  0.4697908888D-02
      0.4632256236D+03  0.2433247765D-01
      0.1312001960D+03  0.9739996831D-01
      0.4285301589D+02  0.3019558425D+00
      0.1558418577D+02  0.6623360914D+00
 Atom C9       Shell    90 S   2     bf  250 -   250         -1.368214628580         -1.664359399507         -0.000003762273
      0.6206713851D+01  0.6559530854D+00
      0.2576489653D+01  0.3758563329D+00
 Atom C9       Shell    91 S   1     bf  251 -   251         -1.368214628580         -1.664359399507         -0.000003762273
      0.5769633942D+00  0.1000000000D+01
 Atom C9       Shell    92 S   1     bf  252 -   252         -1.368214628580         -1.664359399507         -0.000003762273
      0.2297283136D+00  0.1000000000D+01
 Atom C9       Shell    93 S   1     bf  253 -   253         -1.368214628580         -1.664359399507         -0.000003762273
      0.9516444003D-01  0.1000000000D+01
 Atom C9       Shell    94 P   4     bf  254 -   256         -1.368214628580         -1.664359399507         -0.000003762273
      0.3469723224D+02  0.1132722000D-01
      0.7958262283D+01  0.7616965920D-01
      0.2378082688D+01  0.3019225220D+00
      0.8143320818D+00  0.7278502735D+00
 Atom C9       Shell    95 P   1     bf  257 -   259         -1.368214628580         -1.664359399507         -0.000003762273
      0.2888754725D+00  0.1000000000D+01
 Atom C9       Shell    96 P   1     bf  260 -   262         -1.368214628580         -1.664359399507         -0.000003762273
      0.1005682367D+00  0.1000000000D+01
 Atom C9       Shell    97 D   1     bf  263 -   267         -1.368214628580         -1.664359399507         -0.000003762273
      0.1097000000D+01  0.1000000000D+01
 Atom C9       Shell    98 D   1     bf  268 -   272         -1.368214628580         -1.664359399507         -0.000003762273
      0.3180000000D+00  0.1000000000D+01
 Atom C9       Shell    99 F   1     bf  273 -   279         -1.368214628580         -1.664359399507         -0.000003762273
      0.7610000000D+00  0.1000000000D+01
 Atom C10      Shell   100 S   6     bf  280 -   280          2.786495608850         -3.915767894634          0.000013245262
      0.1357534968D+05  0.6064550360D-03
      0.2035233368D+04  0.4697908888D-02
      0.4632256236D+03  0.2433247765D-01
      0.1312001960D+03  0.9739996831D-01
      0.4285301589D+02  0.3019558425D+00
      0.1558418577D+02  0.6623360914D+00
 Atom C10      Shell   101 S   2     bf  281 -   281          2.786495608850         -3.915767894634          0.000013245262
      0.6206713851D+01  0.6559530854D+00
      0.2576489653D+01  0.3758563329D+00
 Atom C10      Shell   102 S   1     bf  282 -   282          2.786495608850         -3.915767894634          0.000013245262
      0.5769633942D+00  0.1000000000D+01
 Atom C10      Shell   103 S   1     bf  283 -   283          2.786495608850         -3.915767894634          0.000013245262
      0.2297283136D+00  0.1000000000D+01
 Atom C10      Shell   104 S   1     bf  284 -   284          2.786495608850         -3.915767894634          0.000013245262
      0.9516444003D-01  0.1000000000D+01
 Atom C10      Shell   105 P   4     bf  285 -   287          2.786495608850         -3.915767894634          0.000013245262
      0.3469723224D+02  0.1132722000D-01
      0.7958262283D+01  0.7616965920D-01
      0.2378082688D+01  0.3019225220D+00
      0.8143320818D+00  0.7278502735D+00
 Atom C10      Shell   106 P   1     bf  288 -   290          2.786495608850         -3.915767894634          0.000013245262
      0.2888754725D+00  0.1000000000D+01
 Atom C10      Shell   107 P   1     bf  291 -   293          2.786495608850         -3.915767894634          0.000013245262
      0.1005682367D+00  0.1000000000D+01
 Atom C10      Shell   108 D   1     bf  294 -   298          2.786495608850         -3.915767894634          0.000013245262
      0.1097000000D+01  0.1000000000D+01
 Atom C10      Shell   109 D   1     bf  299 -   303          2.786495608850         -3.915767894634          0.000013245262
      0.3180000000D+00  0.1000000000D+01
 Atom C10      Shell   110 F   1     bf  304 -   310          2.786495608850         -3.915767894634          0.000013245262
      0.7610000000D+00  0.1000000000D+01
 Atom C11      Shell   111 S   6     bf  311 -   311          6.676211571289         -1.588033590954          0.000000000000
      0.1357534968D+05  0.6064550360D-03
      0.2035233368D+04  0.4697908888D-02
      0.4632256236D+03  0.2433247765D-01
      0.1312001960D+03  0.9739996831D-01
      0.4285301589D+02  0.3019558425D+00
      0.1558418577D+02  0.6623360914D+00
 Atom C11      Shell   112 S   2     bf  312 -   312          6.676211571289         -1.588033590954          0.000000000000
      0.6206713851D+01  0.6559530854D+00
      0.2576489653D+01  0.3758563329D+00
 Atom C11      Shell   113 S   1     bf  313 -   313          6.676211571289         -1.588033590954          0.000000000000
      0.5769633942D+00  0.1000000000D+01
 Atom C11      Shell   114 S   1     bf  314 -   314          6.676211571289         -1.588033590954          0.000000000000
      0.2297283136D+00  0.1000000000D+01
 Atom C11      Shell   115 S   1     bf  315 -   315          6.676211571289         -1.588033590954          0.000000000000
      0.9516444003D-01  0.1000000000D+01
 Atom C11      Shell   116 P   4     bf  316 -   318          6.676211571289         -1.588033590954          0.000000000000
      0.3469723224D+02  0.1132722000D-01
      0.7958262283D+01  0.7616965920D-01
      0.2378082688D+01  0.3019225220D+00
      0.8143320818D+00  0.7278502735D+00
 Atom C11      Shell   117 P   1     bf  319 -   321          6.676211571289         -1.588033590954          0.000000000000
      0.2888754725D+00  0.1000000000D+01
 Atom C11      Shell   118 P   1     bf  322 -   324          6.676211571289         -1.588033590954          0.000000000000
      0.1005682367D+00  0.1000000000D+01
 Atom C11      Shell   119 D   1     bf  325 -   329          6.676211571289         -1.588033590954          0.000000000000
      0.1097000000D+01  0.1000000000D+01
 Atom C11      Shell   120 D   1     bf  330 -   334          6.676211571289         -1.588033590954          0.000000000000
      0.3180000000D+00  0.1000000000D+01
 Atom C11      Shell   121 F   1     bf  335 -   341          6.676211571289         -1.588033590954          0.000000000000
      0.7610000000D+00  0.1000000000D+01
 Atom C12      Shell   122 S   6     bf  342 -   342         -5.338166340447          0.641271002271          0.000007576084
      0.1357534968D+05  0.6064550360D-03
      0.2035233368D+04  0.4697908888D-02
      0.4632256236D+03  0.2433247765D-01
      0.1312001960D+03  0.9739996831D-01
      0.4285301589D+02  0.3019558425D+00
      0.1558418577D+02  0.6623360914D+00
 Atom C12      Shell   123 S   2     bf  343 -   343         -5.338166340447          0.641271002271          0.000007576084
      0.6206713851D+01  0.6559530854D+00
      0.2576489653D+01  0.3758563329D+00
 Atom C12      Shell   124 S   1     bf  344 -   344         -5.338166340447          0.641271002271          0.000007576084
      0.5769633942D+00  0.1000000000D+01
 Atom C12      Shell   125 S   1     bf  345 -   345         -5.338166340447          0.641271002271          0.000007576084
      0.2297283136D+00  0.1000000000D+01
 Atom C12      Shell   126 S   1     bf  346 -   346         -5.338166340447          0.641271002271          0.000007576084
      0.9516444003D-01  0.1000000000D+01
 Atom C12      Shell   127 P   4     bf  347 -   349         -5.338166340447          0.641271002271          0.000007576084
      0.3469723224D+02  0.1132722000D-01
      0.7958262283D+01  0.7616965920D-01
      0.2378082688D+01  0.3019225220D+00
      0.8143320818D+00  0.7278502735D+00
 Atom C12      Shell   128 P   1     bf  350 -   352         -5.338166340447          0.641271002271          0.000007576084
      0.2888754725D+00  0.1000000000D+01
 Atom C12      Shell   129 P   1     bf  353 -   355         -5.338166340447          0.641271002271          0.000007576084
      0.1005682367D+00  0.1000000000D+01
 Atom C12      Shell   130 D   1     bf  356 -   360         -5.338166340447          0.641271002271          0.000007576084
      0.1097000000D+01  0.1000000000D+01
 Atom C12      Shell   131 D   1     bf  361 -   365         -5.338166340447          0.641271002271          0.000007576084
      0.3180000000D+00  0.1000000000D+01
 Atom C12      Shell   132 F   1     bf  366 -   372         -5.338166340447          0.641271002271          0.000007576084
      0.7610000000D+00  0.1000000000D+01
 Atom C13      Shell   133 S   6     bf  373 -   373         -2.786501398821         -3.915763955875         -0.000013210904
      0.1357534968D+05  0.6064550360D-03
      0.2035233368D+04  0.4697908888D-02
      0.4632256236D+03  0.2433247765D-01
      0.1312001960D+03  0.9739996831D-01
      0.4285301589D+02  0.3019558425D+00
      0.1558418577D+02  0.6623360914D+00
 Atom C13      Shell   134 S   2     bf  374 -   374         -2.786501398821         -3.915763955875         -0.000013210904
      0.6206713851D+01  0.6559530854D+00
      0.2576489653D+01  0.3758563329D+00
 Atom C13      Shell   135 S   1     bf  375 -   375         -2.786501398821         -3.915763955875         -0.000013210904
      0.5769633942D+00  0.1000000000D+01
 Atom C13      Shell   136 S   1     bf  376 -   376         -2.786501398821         -3.915763955875         -0.000013210904
      0.2297283136D+00  0.1000000000D+01
 Atom C13      Shell   137 S   1     bf  377 -   377         -2.786501398821         -3.915763955875         -0.000013210904
      0.9516444003D-01  0.1000000000D+01
 Atom C13      Shell   138 P   4     bf  378 -   380         -2.786501398821         -3.915763955875         -0.000013210904
      0.3469723224D+02  0.1132722000D-01
      0.7958262283D+01  0.7616965920D-01
      0.2378082688D+01  0.3019225220D+00
      0.8143320818D+00  0.7278502735D+00
 Atom C13      Shell   139 P   1     bf  381 -   383         -2.786501398821         -3.915763955875         -0.000013210904
      0.2888754725D+00  0.1000000000D+01
 Atom C13      Shell   140 P   1     bf  384 -   386         -2.786501398821         -3.915763955875         -0.000013210904
      0.1005682367D+00  0.1000000000D+01
 Atom C13      Shell   141 D   1     bf  387 -   391         -2.786501398821         -3.915763955875         -0.000013210904
      0.1097000000D+01  0.1000000000D+01
 Atom C13      Shell   142 D   1     bf  392 -   396         -2.786501398821         -3.915763955875         -0.000013210904
      0.3180000000D+00  0.1000000000D+01
 Atom C13      Shell   143 F   1     bf  397 -   403         -2.786501398821         -3.915763955875         -0.000013210904
      0.7610000000D+00  0.1000000000D+01
 Atom C14      Shell   144 S   6     bf  404 -   404          5.386276888168         -3.893671401279          0.000013245262
      0.1357534968D+05  0.6064550360D-03
      0.2035233368D+04  0.4697908888D-02
      0.4632256236D+03  0.2433247765D-01
      0.1312001960D+03  0.9739996831D-01
      0.4285301589D+02  0.3019558425D+00
      0.1558418577D+02  0.6623360914D+00
 Atom C14      Shell   145 S   2     bf  405 -   405          5.386276888168         -3.893671401279          0.000013245262
      0.6206713851D+01  0.6559530854D+00
      0.2576489653D+01  0.3758563329D+00
 Atom C14      Shell   146 S   1     bf  406 -   406          5.386276888168         -3.893671401279          0.000013245262
      0.5769633942D+00  0.1000000000D+01
 Atom C14      Shell   147 S   1     bf  407 -   407          5.386276888168         -3.893671401279          0.000013245262
      0.2297283136D+00  0.1000000000D+01
 Atom C14      Shell   148 S   1     bf  408 -   408          5.386276888168         -3.893671401279          0.000013245262
      0.9516444003D-01  0.1000000000D+01
 Atom C14      Shell   149 P   4     bf  409 -   411          5.386276888168         -3.893671401279          0.000013245262
      0.3469723224D+02  0.1132722000D-01
      0.7958262283D+01  0.7616965920D-01
      0.2378082688D+01  0.3019225220D+00
      0.8143320818D+00  0.7278502735D+00
 Atom C14      Shell   150 P   1     bf  412 -   414          5.386276888168         -3.893671401279          0.000013245262
      0.2888754725D+00  0.1000000000D+01
 Atom C14      Shell   151 P   1     bf  415 -   417          5.386276888168         -3.893671401279          0.000013245262
      0.1005682367D+00  0.1000000000D+01
 Atom C14      Shell   152 D   1     bf  418 -   422          5.386276888168         -3.893671401279          0.000013245262
      0.1097000000D+01  0.1000000000D+01
 Atom C14      Shell   153 D   1     bf  423 -   427          5.386276888168         -3.893671401279          0.000013245262
      0.3180000000D+00  0.1000000000D+01
 Atom C14      Shell   154 F   1     bf  428 -   434          5.386276888168         -3.893671401279          0.000013245262
      0.7610000000D+00  0.1000000000D+01
 Atom C15      Shell   155 S   6     bf  435 -   435         -6.676213448728         -1.588027540089          0.000000000000
      0.1357534968D+05  0.6064550360D-03
      0.2035233368D+04  0.4697908888D-02
      0.4632256236D+03  0.2433247765D-01
      0.1312001960D+03  0.9739996831D-01
      0.4285301589D+02  0.3019558425D+00
      0.1558418577D+02  0.6623360914D+00
 Atom C15      Shell   156 S   2     bf  436 -   436         -6.676213448728         -1.588027540089          0.000000000000
      0.6206713851D+01  0.6559530854D+00
      0.2576489653D+01  0.3758563329D+00
 Atom C15      Shell   157 S   1     bf  437 -   437         -6.676213448728         -1.588027540089          0.000000000000
      0.5769633942D+00  0.1000000000D+01
 Atom C15      Shell   158 S   1     bf  438 -   438         -6.676213448728         -1.588027540089          0.000000000000
      0.2297283136D+00  0.1000000000D+01
 Atom C15      Shell   159 S   1     bf  439 -   439         -6.676213448728         -1.588027540089          0.000000000000
      0.9516444003D-01  0.1000000000D+01
 Atom C15      Shell   160 P   4     bf  440 -   442         -6.676213448728         -1.588027540089          0.000000000000
      0.3469723224D+02  0.1132722000D-01
      0.7958262283D+01  0.7616965920D-01
      0.2378082688D+01  0.3019225220D+00
      0.8143320818D+00  0.7278502735D+00
 Atom C15      Shell   161 P   1     bf  443 -   445         -6.676213448728         -1.588027540089          0.000000000000
      0.2888754725D+00  0.1000000000D+01
 Atom C15      Shell   162 P   1     bf  446 -   448         -6.676213448728         -1.588027540089          0.000000000000
      0.1005682367D+00  0.1000000000D+01
 Atom C15      Shell   163 D   1     bf  449 -   453         -6.676213448728         -1.588027540089          0.000000000000
      0.1097000000D+01  0.1000000000D+01
 Atom C15      Shell   164 D   1     bf  454 -   458         -6.676213448728         -1.588027540089          0.000000000000
      0.3180000000D+00  0.1000000000D+01
 Atom C15      Shell   165 F   1     bf  459 -   465         -6.676213448728         -1.588027540089          0.000000000000
      0.7610000000D+00  0.1000000000D+01
 Atom C16      Shell   166 S   6     bf  466 -   466         -5.386282676876         -3.893667313887         -0.000011321177
      0.1357534968D+05  0.6064550360D-03
      0.2035233368D+04  0.4697908888D-02
      0.4632256236D+03  0.2433247765D-01
      0.1312001960D+03  0.9739996831D-01
      0.4285301589D+02  0.3019558425D+00
      0.1558418577D+02  0.6623360914D+00
 Atom C16      Shell   167 S   2     bf  467 -   467         -5.386282676876         -3.893667313887         -0.000011321177
      0.6206713851D+01  0.6559530854D+00
      0.2576489653D+01  0.3758563329D+00
 Atom C16      Shell   168 S   1     bf  468 -   468         -5.386282676876         -3.893667313887         -0.000011321177
      0.5769633942D+00  0.1000000000D+01
 Atom C16      Shell   169 S   1     bf  469 -   469         -5.386282676876         -3.893667313887         -0.000011321177
      0.2297283136D+00  0.1000000000D+01
 Atom C16      Shell   170 S   1     bf  470 -   470         -5.386282676876         -3.893667313887         -0.000011321177
      0.9516444003D-01  0.1000000000D+01
 Atom C16      Shell   171 P   4     bf  471 -   473         -5.386282676876         -3.893667313887         -0.000011321177
      0.3469723224D+02  0.1132722000D-01
      0.7958262283D+01  0.7616965920D-01
      0.2378082688D+01  0.3019225220D+00
      0.8143320818D+00  0.7278502735D+00
 Atom C16      Shell   172 P   1     bf  474 -   476         -5.386282676876         -3.893667313887         -0.000011321177
      0.2888754725D+00  0.1000000000D+01
 Atom C16      Shell   173 P   1     bf  477 -   479         -5.386282676876         -3.893667313887         -0.000011321177
      0.1005682367D+00  0.1000000000D+01
 Atom C16      Shell   174 D   1     bf  480 -   484         -5.386282676876         -3.893667313887         -0.000011321177
      0.1097000000D+01  0.1000000000D+01
 Atom C16      Shell   175 D   1     bf  485 -   489         -5.386282676876         -3.893667313887         -0.000011321177
      0.3180000000D+00  0.1000000000D+01
 Atom C16      Shell   176 F   1     bf  490 -   496         -5.386282676876         -3.893667313887         -0.000011321177
      0.7610000000D+00  0.1000000000D+01
 Atom H17      Shell   177 S   3     bf  497 -   497          4.076381362554          5.507542292467          1.659440344059
      0.3406134100D+02  0.2543930721D-01
      0.5123574600D+01  0.1900859489D+00
      0.1164662600D+01  0.8524411301D+00
 Atom H17      Shell   178 S   1     bf  498 -   498          4.076381362554          5.507542292467          1.659440344059
      0.3272304100D+00  0.1000000000D+01
 Atom H17      Shell   179 S   1     bf  499 -   499          4.076381362554          5.507542292467          1.659440344059
      0.1030724100D+00  0.1000000000D+01
 Atom H17      Shell   180 P   1     bf  500 -   502          4.076381362554          5.507542292467          1.659440344059
      0.8000000000D+00  0.1000000000D+01
 Atom H18      Shell   181 S   3     bf  503 -   503          4.076375693375          5.507534733563         -1.659470545319
      0.3406134100D+02  0.2543930721D-01
      0.5123574600D+01  0.1900859489D+00
      0.1164662600D+01  0.8524411301D+00
 Atom H18      Shell   182 S   1     bf  504 -   504          4.076375693375          5.507534733563         -1.659470545319
      0.3272304100D+00  0.1000000000D+01
 Atom H18      Shell   183 S   1     bf  505 -   505          4.076375693375          5.507534733563         -1.659470545319
      0.1030724100D+00  0.1000000000D+01
 Atom H18      Shell   184 P   1     bf  506 -   508          4.076375693375          5.507534733563         -1.659470545319
      0.8000000000D+00  0.1000000000D+01
 Atom H19      Shell   185 S   3     bf  509 -   509          1.713371476384          7.131571108891         -0.000015100630
      0.3406134100D+02  0.2543930721D-01
      0.5123574600D+01  0.1900859489D+00
      0.1164662600D+01  0.8524411301D+00
 Atom H19      Shell   186 S   1     bf  510 -   510          1.713371476384          7.131571108891         -0.000015100630
      0.3272304100D+00  0.1000000000D+01
 Atom H19      Shell   187 S   1     bf  511 -   511          1.713371476384          7.131571108891         -0.000015100630
      0.1030724100D+00  0.1000000000D+01
 Atom H19      Shell   188 P   1     bf  512 -   514          1.713371476384          7.131571108891         -0.000015100630
      0.8000000000D+00  0.1000000000D+01
 Atom H20      Shell   189 S   3     bf  515 -   515          6.370544703832          2.399634378055         -0.000013210904
      0.3406134100D+02  0.2543930721D-01
      0.5123574600D+01  0.1900859489D+00
      0.1164662600D+01  0.8524411301D+00
 Atom H20      Shell   190 S   1     bf  516 -   516          6.370544703832          2.399634378055         -0.000013210904
      0.3272304100D+00  0.1000000000D+01
 Atom H20      Shell   191 S   1     bf  517 -   517          6.370544703832          2.399634378055         -0.000013210904
      0.1030724100D+00  0.1000000000D+01
 Atom H20      Shell   192 P   1     bf  518 -   520          6.370544703832          2.399634378055         -0.000013210904
      0.8000000000D+00  0.1000000000D+01
 Atom H21      Shell   193 S   3     bf  521 -   521         -4.076363937070          5.507544415244          1.659470579677
      0.3406134100D+02  0.2543930721D-01
      0.5123574600D+01  0.1900859489D+00
      0.1164662600D+01  0.8524411301D+00
 Atom H21      Shell   194 S   1     bf  522 -   522         -4.076363937070          5.507544415244          1.659470579677
      0.3272304100D+00  0.1000000000D+01
 Atom H21      Shell   195 S   1     bf  523 -   523         -4.076363937070          5.507544415244          1.659470579677
      0.1030724100D+00  0.1000000000D+01
 Atom H21      Shell   196 P   1     bf  524 -   526         -4.076363937070          5.507544415244          1.659470579677
      0.8000000000D+00  0.1000000000D+01
 Atom H22      Shell   197 S   3     bf  527 -   527         -1.713357737505          7.131576876024          0.000018914441
      0.3406134100D+02  0.2543930721D-01
      0.5123574600D+01  0.1900859489D+00
      0.1164662600D+01  0.8524411301D+00
 Atom H22      Shell   198 S   1     bf  528 -   528         -1.713357737505          7.131576876024          0.000018914441
      0.3272304100D+00  0.1000000000D+01
 Atom H22      Shell   199 S   1     bf  529 -   529         -1.713357737505          7.131576876024          0.000018914441
      0.1030724100D+00  0.1000000000D+01
 Atom H22      Shell   200 P   1     bf  530 -   532         -1.713357737505          7.131576876024          0.000018914441
      0.8000000000D+00  0.1000000000D+01
 Atom H23      Shell   201 S   3     bf  533 -   533         -4.076369606248          5.507555753601         -1.659438419974
      0.3406134100D+02  0.2543930721D-01
      0.5123574600D+01  0.1900859489D+00
      0.1164662600D+01  0.8524411301D+00
 Atom H23      Shell   202 S   1     bf  534 -   534         -4.076369606248          5.507555753601         -1.659438419974
      0.3272304100D+00  0.1000000000D+01
 Atom H23      Shell   203 S   1     bf  535 -   535         -4.076369606248          5.507555753601         -1.659438419974
      0.1030724100D+00  0.1000000000D+01
[...]
 ,0.01430167,-0.00161998,0.15554599,0.00196216,-0.00035739,0.,0.0011743
 2,-0.00003220,-0.00000002,-0.00014922,0.00010522,0.,0.01649325,-0.0201
 3288,0.00000005,0.00003423,-0.00003417,0.,0.00028699,0.00008337,0.,0.1
 2919330,-0.24124894,0.00000068,-0.00388053,-0.00312365,0.00000001,0.00
 135991,-0.00071072,0.,0.00001470,0.00018077,0.,-0.00007415,-0.00012809
 ,0.,-0.00090998,0.00023893,0.,-0.00039632,-0.00033255,0.,-0.00015855,0
 .00003261,0.,0.00012838,0.00002040,0.,-0.00000522,0.00004141,0.,0.0002
 9682,0.00045320,0.00004220,0.00029683,0.00045321,-0.00004220,0.0003180
 8,0.00248940,0.,-0.00012697,0.00005702,0.,-0.00110803,0.00136604,-0.00
 050920,-0.14369885,0.25919565,0.,0.,-0.00001978,0.00000002,0.00000002,
 -0.00015134,0.,0.,-0.00001688,-0.00000004,0.,-0.00224921,0.,0.,-0.0000
 0753,0.,0.,-0.00002623,-0.00000046,0.00000070,-0.04696730,0.,0.,0.0011
 6891,0.,0.,0.00042784,0.,0.,0.00001302,0.,0.,0.00001773,0.,0.,0.000305
 49,0.,0.,-0.00011032,0.,0.,-0.00000331,0.,0.,0.00022311,0.,0.,-0.00005
 356,-0.00009398,-0.00004173,-0.00002029,0.00009397,0.00004172,-0.00002
 029,0.00000010,0.,0.00140873,0.,0.,-0.00000970,0.01502278,-0.02264713,
 0.00113283,0.00000040,-0.00000072,0.04429365,0.00011193,-0.00226059,-0
 .00027603,-0.00023415,-0.00012611,-0.00052048,-0.00038494,0.00024268,0
 .00113086,-0.01412701,-0.00262151,-0.01368258,0.00020644,0.00011155,-0
 .00006976,-0.00015861,-0.00028358,0.00005014,-0.13517160,-0.00242045,-
 0.12782490,-0.00035632,0.00147841,0.00032514,-0.00060885,-0.00047355,0
 .00022143,-0.00012929,-0.00009249,-0.00003354,0.00000022,0.00008220,-0
 .00014444,0.00037486,0.00048045,0.00036622,0.00008621,0.00001324,-0.00
 002448,0.00007562,-0.00013001,0.00001281,0.00016156,0.00017221,0.00006
 510,-0.00007058,-0.00002276,-0.00000225,-0.00029511,-0.00007092,0.0000
 4772,-0.00007840,0.00002943,0.00003723,0.00016200,-0.00029682,-0.00009
 398,0.00002839,0.00000099,0.00006199,0.01183593,0.00071215,0.01613452,
 -0.01049334,-0.00110812,-0.01502279,0.14943136,0.00038697,-0.00317950,
 0.00003512,0.00029927,-0.00042368,-0.00080102,-0.00063726,0.00019664,0
 .00183266,-0.01774788,-0.00050660,-0.02311741,-0.00047335,-0.00021644,
 -0.00014288,0.00015869,-0.00015911,0.00006322,-0.00349977,-0.04687355,
 -0.00552792,-0.00017040,0.00018030,0.00048791,-0.00008658,0.00003149,0
 .00060044,0.00020392,0.00019883,-0.00011650,0.00002897,-0.00021819,-0.
 00013607,-0.00001483,-0.00040489,-0.00040808,-0.00019894,0.00034410,-0
 .00004359,-0.00026337,-0.00004538,0.00003060,0.00022479,-0.00039015,0.
 00008807,0.00035165,0.00021394,-0.00007913,0.00007092,0.00031479,-0.00
 001294,-0.00002943,0.00008815,0.00002203,-0.00011964,0.00045320,0.0000
 4173,-0.00001440,0.00002789,0.00003032,0.00071206,-0.00092645,0.000013
 28,0.01430165,0.00136618,0.02264715,0.00521097,0.05164451,0.00082088,-
 0.00004804,-0.00014126,0.00008716,0.00005206,0.00002956,0.00016865,0.0
 0010952,-0.00025964,0.00125929,-0.00072717,0.00316288,0.00006780,0.000
 06047,-0.00002743,-0.00003470,-0.00003958,0.00001496,-0.12612848,-0.00
 552124,-0.21845441,-0.00071844,0.00041594,0.00052739,-0.00010709,-0.00
 023039,-0.00009351,-0.00003472,-0.00002648,0.00003520,0.00005381,0.000
 03614,0.00003014,-0.00093233,-0.00047081,0.00030595,0.00010577,0.00003
 846,0.00000039,0.00002820,-0.00007532,-0.00000079,0.00046131,0.0005291
 0,0.00004839,-0.00015297,0.00001592,-0.00001421,0.00004772,0.00001294,
 -0.00002480,-0.00003723,0.00002203,0.00000138,-0.00004487,-0.00004220,
 -0.00002029,0.00001820,0.00000406,-0.00001402,-0.01613448,-0.00001340,
 -0.02148635,0.00161989,0.00050919,0.00113267,0.13871914,0.00541378,0.2
 3560996,0.00059809,-0.00065906,0.,-0.00021684,-0.00018946,0.,-0.001492
 76,-0.00311163,0.,0.00020373,-0.00006455,0.,0.01309052,-0.01313699,-0.
 00000002,-0.00079713,-0.00092862,0.,-0.00004260,0.00004665,0.,0.000113
 13,0.00012146,0.,-0.00045662,0.00139510,0.,-0.11993216,0.11636386,0.00
 000019,-0.00581907,-0.00097211,0.,0.00013250,0.00013419,0.,-0.00288410
 ,-0.00164539,0.,-0.01109713,0.03054151,0.00000004,-0.00001010,0.000096
 30,0.,-0.00005464,0.00011601,0.,-0.00001046,0.00002291,0.00001026,-0.0
 0001046,0.00002291,-0.00001026,0.00005314,-0.00007829,0.,0.00006678,0.
 00006525,0.,-0.00000866,-0.00001541,0.00001174,0.00000271,0.00002364,0
 .,-0.00000866,-0.00001541,-0.00001174,0.13431629,0.00123572,-0.0006179
 4,0.,-0.00039844,-0.00031025,0.,-0.00404304,-0.00244581,-0.00000001,0.
 00009234,-0.00002285,0.,0.01474540,-0.01895983,-0.00000003,-0.00091311
 ,0.00020931,0.,-0.00009348,0.00007369,0.,-0.00010926,-0.00018326,0.,0.
 00173666,-0.00003079,0.,0.11718070,-0.28311907,-0.00000039,-0.00016474
 ,0.00175967,-0.00000001,0.00013688,0.00007841,0.,0.00090137,-0.0007106
 8,0.,-0.00209498,0.00280677,0.,0.00014474,0.00007141,0.,-0.00006445,0.
 00087806,0.,-0.00000230,0.00003077,-0.00000093,-0.00000230,0.00003077,
 0.00000093,0.00008020,-0.00014170,0.,0.00011746,-0.00004086,0.,-0.0000
 3300,-0.00004999,0.00002403,0.00000791,0.00001572,0.,-0.00003300,-0.00
 004999,-0.00002403,-0.12888015,0.29770399,0.,0.,0.00016269,0.,0.,0.000
 05133,0.,0.,0.00643059,0.,0.,-0.00016305,0.00000003,-0.00000001,0.0019
 9174,0.,0.,-0.00103341,0.,0.,0.00005606,0.,0.,-0.00019903,0.,0.,-0.002
 36739,0.00000019,-0.00000041,-0.03599029,0.,0.,0.00873651,0.,0.,0.0001
 3757,0.,-0.00000001,-0.00081774,0.,0.,0.00348208,0.,0.,-0.00003495,0.,
 0.,-0.00016530,-0.00001534,-0.00000733,-0.00000268,0.00001534,0.000007
 33,-0.00000268,0.,0.,-0.00003657,0.,0.,-0.00107646,0.00000051,-0.00000
 116,-0.00000230,0.,0.,-0.00000213,-0.00000051,0.00000116,-0.00000230,-
 0.00000019,0.00000042,0.02329822,-0.00067039,0.00051245,0.,-0.00006482
 ,0.00000212,0.,0.00082811,-0.00292919,0.,-0.00002637,-0.00031615,0.,0.
 00068201,-0.00007428,0.,-0.01201180,0.00329736,0.,-0.00006881,0.000046
 60,0.,0.00003225,-0.00005431,0.,0.00001083,0.00000898,0.,0.00061690,0.
 00317867,0.,-0.34153538,0.00535772,0.00000003,-0.00000653,-0.00001104,
 0.,-0.00002880,0.00004116,0.,-0.01065647,-0.00311030,0.,-0.00000368,0.
 00001376,0.,-0.00002135,-0.00000607,0.,0.00000436,0.00000022,-0.000001
 79,0.00000436,0.00000022,0.00000179,0.00000032,-0.00003854,0.,0.000892
 69,-0.00035366,0.,-0.00002774,-0.00002580,0.00000575,0.00001082,-0.000
 01103,0.,-0.00002774,-0.00002580,-0.00000575,-0.00065647,-0.00014295,0
 .,0.36202574,-0.00096623,0.00078834,0.,-0.00000844,0.00005729,0.,-0.00
 230414,-0.00456421,-0.00000001,-0.00034309,-0.00028526,0.,-0.00039647,
 -0.00138402,0.,-0.02864307,0.00490647,0.,-0.00010817,0.00004160,0.,0.0
 0019007,-0.00025771,0.,0.00028960,0.00014817,0.,0.00247554,-0.00471368
 ,-0.00000001,0.00604806,-0.06080241,-0.00000003,-0.00008105,0.00007454
 ,0.,-0.00006929,-0.00003280,0.,0.02851901,0.00512774,0.,0.00001489,-0.
 00009203,0.,0.00006768,0.00012164,0.,-0.00000444,-0.00001393,0.0000258
 5,-0.00000443,-0.00001393,-0.00002585,0.00002474,-0.00003801,0.,0.0002
 3643,0.00088523,0.,-0.00001864,-0.00002635,0.00000261,0.00000770,-0.00
 000423,0.,-0.00001864,-0.00002635,-0.00000261,0.00137185,-0.00001921,0
 .,-0.00566659,0.05917804,0.,0.,0.00028113,0.,0.,0.00017078,0.,0.,0.008
 75563,0.,0.,-0.00049160,0.,0.,-0.00101891,-0.00000003,0.,0.00265428,0.
 ,0.,-0.00004271,0.,0.,0.00011797,0.,0.,-0.00094254,0.,-0.00000001,0.00
 678163,0.00000003,-0.00000002,-0.03643322,0.,0.,0.00004787,0.,0.,0.000
 03633,0.00000003,0.,0.00216123,0.,0.,-0.00000205,0.,0.,-0.00007959,-0.
 00000059,-0.00001712,0.00000041,0.00000059,0.00001712,0.00000041,0.,0.
 ,0.00001377,0.,0.,-0.00474547,0.00000790,0.00001261,-0.00000074,0.,0.,
 0.00000624,-0.00000790,-0.00001261,-0.00000074,0.,0.,-0.00000113,-0.00
 000003,0.00000003,0.02574372,0.00028733,0.00027863,0.,0.00003269,-0.00
 005723,0.,-0.00006299,-0.00029058,0.,0.00028991,-0.00156272,0.,-0.0001
 9096,-0.00165986,0.,0.00011812,0.00011720,0.,-0.00149006,0.00155455,0.
 ,-0.00957883,-0.02806409,0.00000002,-0.00535267,0.00157472,0.,-0.00047
 517,0.00026387,0.,-0.00006727,-0.00005866,0.,-0.13515212,-0.12520179,0
 .00000012,-0.00097124,0.00093513,0.,-0.00005560,-0.00008181,0.,0.01183
 754,0.01619026,-0.00000001,-0.00077414,0.00332434,0.,0.00002839,0.0000
 1440,0.00001820,0.00002839,0.00001440,-0.00001820,-0.00002133,0.000126
 97,0.,-0.00005475,0.00000722,0.,-0.00033255,0.00134866,-0.00084324,0.0
 0047851,-0.00007046,0.,-0.00033252,0.00134862,0.00084323,0.00003350,-0
 .00000672,0.,-0.00000426,0.00000665,0.,0.14051104,-0.00037359,-0.00009
 684,0.,0.00001731,-0.00005115,0.,0.00006390,0.00020164,0.,-0.00002712,
 -0.00093185,0.,0.00035294,0.00004116,0.,-0.00007477,-0.00005023,0.,0.0
 0411475,-0.00430540,0.00000001,0.00019041,0.00359884,0.,0.00060571,0.0
 0141095,0.,-0.00005348,-0.00002935,0.,-0.00001745,0.00006821,0.,-0.126
 10050,-0.27113079,0.00000020,0.00091407,0.00029537,0.,0.00005196,-0.00
 003681,0.,-0.01627611,-0.01964019,0.00000002,0.00395736,-0.00321145,0.
 00000001,-0.00000099,0.00002789,-0.00000406,-0.00000099,0.00002789,0.0
 0000406,0.00000904,0.00005702,0.,-0.00000722,0.00000615,0.,0.00143281,
 -0.00169098,0.00003047,0.00072535,0.00018886,0.,0.00143276,-0.00169093
 ,-0.00003045,0.00000618,0.00000110,0.,-0.00000813,-0.00000027,0.,0.129
 52133,0.29710630,0.,0.,-0.00024845,0.,0.,0.00040837,0.,0.,-0.00011117,
 0.,0.,-0.00287495,0.,0.,-0.00000948,0.,0.,-0.00000073,0.,0.,0.00100628
 ,0.,0.,0.00219367,0.,0.00000001,0.00594285,0.,0.,0.00022097,0.,0.,0.00
 002750,0.00000012,0.00000020,-0.03587302,0.,0.,-0.00103107,0.,0.,-0.00
 001593,0.00000001,0.00000003,0.00348413,0.,0.00000001,0.00872870,0.000
 06199,-0.00003032,-0.00001402,-0.00006199,0.00003032,-0.00001402,0.,0.
 ,-0.00000970,0.,0.,0.00000558,-0.00054117,0.00094777,-0.00033544,0.,0.
 ,-0.00042063,0.00054116,-0.00094776,-0.00033544,0.,0.,0.00000987,0.,0.
 ,-0.00000213,-0.00000012,-0.00000025,0.02503820,0.00020373,0.00006455,
 0.,-0.00004260,-0.00004665,0.,0.00011313,-0.00012146,0.,0.00059809,0.0
 0065906,0.,-0.00045662,-0.00139510,0.,0.00013250,-0.00013419,0.,-0.000
 21684,0.00018946,0.,-0.00149277,0.00311163,0.,0.01309052,0.01313703,-0
 .00000002,-0.00288410,0.00164539,0.,-0.00001009,-0.00009630,0.,-0.0007
 9713,0.00092862,0.,-0.11993184,-0.11636364,0.00000020,-0.00005464,-0.0
 0011601,0.,-0.00581908,0.00097210,0.,-0.01109709,-0.03054153,0.0000000
 5,-0.00000866,0.00001541,-0.00001174,-0.00000866,0.00001541,0.00001174
 ,0.00000271,-0.00002364,0.,0.00003350,-0.00000618,0.,-0.00001046,-0.00
 002291,-0.00001026,0.00005314,0.00007829,0.,-0.00001046,-0.00002291,0.
 00001026,-0.00594686,0.00032862,-0.00000002,0.00002323,-0.00003214,0.,
 0.00006678,-0.00006525,0.,0.13431593,-0.00009234,-0.00002285,0.,0.0000
 9348,0.00007369,0.,0.00010926,-0.00018326,0.,-0.00123572,-0.00061794,0
 .,-0.00173666,-0.00003079,0.,-0.00013688,0.00007841,0.,0.00039844,-0.0
 0031025,0.,0.00404304,-0.00244580,0.00000001,-0.01474535,-0.01895983,0
 .00000003,-0.00090138,-0.00071068,0.,-0.00014474,0.00007141,0.,0.00091
 311,0.00020932,0.,-0.11718047,-0.28311939,0.00000041,0.00006445,0.0008
 7806,0.,0.00016473,0.00175968,0.00000001,0.00209496,0.00280673,0.,0.00
 003300,-0.00004999,0.00002403,0.00003300,-0.00004999,-0.00002403,-0.00
 000791,0.00001572,0.,0.00000672,0.00000110,0.,0.00000230,0.00003077,-0
 .00000093,-0.00008019,-0.00014170,0.,0.00000230,0.00003077,0.00000093,
 -0.00032863,0.00202056,0.,-0.00004812,0.00008720,0.,-0.00011746,-0.000
 04086,0.,0.12887992,0.29770434,0.,0.,-0.00016305,0.,0.,0.00005606,0.,0
 .,-0.00019903,0.,0.,0.00016269,0.,0.,-0.00236739,0.,0.,0.00013757,0.,0
 .,0.00005133,0.,0.,0.00643059,0.00000003,0.00000002,0.00199174,0.,0.00
 000001,-0.00081774,0.,0.,-0.00003495,0.,0.,-0.00103341,0.00000020,0.00
 000043,-0.03599029,0.,0.,-0.00016530,0.,0.,0.00873651,0.,0.,0.00348208
 ,-0.00000051,-0.00000116,-0.00000230,0.00000051,0.00000116,-0.00000230
 ,0.,0.,-0.00000213,0.,0.,0.00000987,0.00001534,-0.00000733,-0.00000268
 ,0.,0.,-0.00003657,-0.00001534,0.00000733,-0.00000268,-0.00000002,0.,0
 .00208499,0.,0.,0.00009186,0.,0.,-0.00107646,-0.00000020,-0.00000045,0
 .02329822,0.00027409,0.00011509,0.,0.00000679,0.00000967,0.,-0.0010023
 0,0.00063572,0.,-0.00018290,0.00020309,0.,-0.00543653,0.00147520,0.,-0
 .00078949,0.00330062,0.,0.00001445,-0.00001338,0.,-0.00041170,0.000014
 23,0.,0.00022117,-0.00157605,0.,-0.01108884,-0.02916444,-0.00000004,0.
 01212739,0.01455578,0.00000002,-0.00009511,-0.00012037,0.,-0.00006288,
 0.00000867,0.,-0.13258378,-0.12238098,-0.00000015,-0.00002636,-0.00008
 684,0.,0.00007759,0.00008309,0.,0.00000905,-0.00002232,0.00003029,0.00
 000905,-0.00002232,-0.00003029,0.00002956,-0.00001633,0.,0.00037254,0.
 00074157,0.,-0.00000039,-0.00000062,-0.00000300,-0.00000009,-0.0000183
 3,0.,-0.00000039,-0.00000062,0.00000300,0.00082058,0.00023848,0.,0.000
 70088,-0.00058855,0.,-0.00006097,-0.00000237,0.,-0.00000949,0.00001268
 ,0.,0.13712469,-0.00010945,-0.00007318,0.,-0.00004266,-0.00007289,0.,0
 .00094841,0.00033010,0.,0.00009365,-0.00006781,0.,0.00091306,0.0016248
 9,0.,0.00405984,-0.00334350,-0.00000001,-0.00000566,0.00000110,0.,-0.0
 0008437,0.00012229,0.,0.00000004,0.00005955,0.,0.00275058,0.00393659,0
 .,-0.01710696,-0.01767555,-0.00000002,0.00005602,-0.00001168,0.,0.0000
 0064,-0.00005049,0.,-0.12316377,-0.27030678,-0.00000029,-0.00003919,0.
 00005910,0.,-0.00005594,-0.00004593,0.,0.00000232,0.00003409,-0.000060
 20,0.00000232,0.00003409,0.00006020,-0.00005123,-0.00001069,0.,-0.0007
 8515,-0.00100600,0.,-0.00001288,0.00000027,0.00000317,0.00000904,0.000
 00723,0.,-0.00001288,0.00000027,-0.00000317,-0.00032209,0.00095515,0.,
 0.00035752,0.00085135,0.,-0.00000429,-0.00000351,0.,0.00001216,-0.0000
 2035,0.,0.13260845,0.28466535,0.,0.,-0.00094459,0.,0.,0.00003378,0.,0.
 ,-0.00107334,0.,0.,0.00009725,0.,0.,0.00886486,0.,-0.00000001,0.006790
 00,0.,0.,0.00016067,0.,0.,-0.00046258,0.,0.,0.00019970,0.,0.,0.0023605
 8,-0.00000002,-0.00000002,0.00206975,0.,0.,-0.00002636,0.,0.,0.0002310
 8,-0.00000014,-0.00000029,-0.03618165,0.,0.,0.00005107,0.,0.,-0.000068
 65,-0.00000779,-0.00000074,-0.00001330,0.00000779,0.00000074,-0.000013
 30,0.,0.,-0.00002581,0.,0.,0.00010217,-0.00001390,-0.00001326,-0.00000
 811,0.,0.,-0.00000312,0.00001390,0.00001326,-0.00000811,0.,0.,-0.00459
 561,0.,0.,-0.00312695,0.,0.,-0.00005020,0.,0.,-0.00004050,0.00000016,0
 .00000032,0.02566870,-0.00002637,0.00031615,0.,-0.00006881,-0.00004660
 ,0.,0.00003225,0.00005431,0.,-0.00067039,-0.00051245,0.,0.00001083,-0.
 00000898,0.,-0.00000653,0.00001104,0.,-0.00006482,-0.00000212,0.,0.000
 82810,0.00292920,0.,0.00068201,0.00007428,0.,-0.00002880,-0.00004116,0
 .,-0.00000368,-0.00001376,0.,-0.01201184,-0.00329738,0.,0.00061691,-0.
 00317866,0.,-0.00002135,0.00000607,0.,-0.34153537,-0.00535811,0.000000
 02,-0.01065643,0.00311028,0.,-0.00002774,0.00002580,-0.00000575,-0.000
 02774,0.00002580,0.00000575,0.00001082,0.00001103,0.,-0.00000426,0.000
 00813,0.,0.00000436,-0.00000022,0.00000179,0.00000032,0.00003854,0.,0.
 00000436,-0.00000022,-0.00000179,0.00002323,0.00004812,0.,-0.00001348,
 0.00000252,0.,0.00089269,0.00035366,0.,-0.00065646,0.00014294,0.,-0.00
 000842,-0.00000770,0.,0.36202572,0.00034309,-0.00028526,0.,0.00010817,
 0.00004160,0.,-0.00019007,-0.00025771,0.,0.00096622,0.00078834,0.,-0.0
 0028960,0.00014817,0.,0.00008105,0.00007454,0.,0.00000844,0.00005729,0
 .,0.00230415,-0.00456420,0.00000001,0.00039648,-0.00138402,0.,0.000069
 29,-0.00003280,0.,-0.00001489,-0.00009203,0.,0.02864305,0.00490651,0.,
 -0.00247553,-0.00471368,0.00000002,-0.00006768,0.00012164,0.,-0.006048
 44,-0.06080243,0.00000003,-0.02851903,0.00512770,0.,0.00001864,-0.0000
 2635,0.00000261,0.00001864,-0.00002635,-0.00000261,-0.00000770,-0.0000
 0423,0.,-0.00000665,-0.00000027,0.,0.00000443,-0.00001393,0.00002585,-
 0.00002474,-0.00003801,0.,0.00000444,-0.00001393,-0.00002585,0.0000321
 4,0.00008720,0.,-0.00000252,0.00000698,0.,-0.00023643,0.00088523,0.,-0
 .00137185,-0.00001921,0.,0.00000135,-0.00000020,0.,0.00566701,0.059178
 06,0.,0.,-0.00049160,0.,0.,-0.00004271,0.,0.,0.00011797,0.,0.,0.000281
 13,0.,0.,-0.00094254,0.,0.,0.00004787,0.,0.,0.00017078,0.,0.00000001,0
 .00875563,0.,0.,-0.00101891,0.,0.,0.00003633,0.,0.,-0.00000205,-0.0000
 0003,0.,0.00265428,0.,0.00000001,0.00678163,0.,0.,-0.00007959,0.000000
 02,0.00000003,-0.03643321,0.00000003,0.,0.00216123,-0.00000790,0.00001
 261,-0.00000074,0.00000790,-0.00001261,-0.00000074,0.,0.,0.00000624,0.
 ,0.,-0.00000213,0.00000059,-0.00001712,0.00000041,0.,0.,0.00001377,-0.
 00000059,0.00001712,0.00000041,0.,0.,0.00009186,0.,0.,0.00002158,0.,0.
 ,-0.00474547,0.,0.,-0.00000113,0.,0.,0.00000293,-0.00000003,-0.0000000
 4,0.02574372,-0.00018290,-0.00020309,0.,0.00001445,0.00001338,0.,-0.00
 041170,-0.00001423,0.,0.00027409,-0.00011509,0.,0.00022117,0.00157605,
 0.,-0.00009511,0.00012037,0.,0.00000679,-0.00000967,0.,-0.00100229,-0.
 00063572,0.,-0.00543653,-0.00147521,0.,-0.00006288,-0.00000867,0.,-0.0
 0002636,0.00008684,0.,-0.00078948,-0.00330061,0.,-0.01108888,0.0291644
 2,-0.00000004,0.00007759,-0.00008309,0.,0.01212739,-0.01455574,0.00000
 002,-0.13258412,0.12238117,-0.00000016,-0.00000039,0.00000062,0.000003
 00,-0.00000039,0.00000062,-0.00000300,-0.00000009,0.00001833,0.,-0.000
 06097,0.00000237,0.,0.00000905,0.00002232,-0.00003029,0.00002956,0.000
 01633,0.,0.00000905,0.00002232,0.00003029,-0.00000949,-0.00001268,0.,-
 0.00000842,-0.00000135,0.,0.00037254,-0.00074157,0.,0.00082058,-0.0002
 3848,0.,-0.00002819,-0.00000984,0.,0.00070088,0.00058855,0.,0.13712506
 ,-0.00009365,-0.00006781,0.,0.00000566,0.00000110,0.,0.00008437,0.0001
 2229,0.,0.00010945,-0.00007318,0.,-0.00000004,0.00005955,0.,-0.0000560
 2,-0.00001168,0.,0.00004266,-0.00007289,0.,-0.00094842,0.00033009,0.,-
 0.00091307,0.00162489,0.,-0.00000064,-0.00005049,0.,0.00003919,0.00005
 910,0.,-0.00405984,-0.00334351,0.00000001,-0.00275060,0.00393663,0.,0.
 00005594,-0.00004593,0.,0.01710700,-0.01767555,0.00000003,0.12316396,-
 0.27030644,0.00000031,0.00001288,0.00000027,0.00000317,0.00001288,0.00
 000027,-0.00000317,-0.00000904,0.00000723,0.,0.00000429,-0.00000351,0.
 ,-0.00000232,0.00003409,-0.00006020,0.00005123,-0.00001069,0.,-0.00000
 232,0.00003409,0.00006020,-0.00001216,-0.00002035,0.,0.00000770,-0.000
 00020,0.,0.00078516,-0.00100600,0.,0.00032209,0.00095515,0.,0.00000984
 ,0.00000717,0.,-0.00035752,0.00085135,0.,-0.13260865,0.28466498,0.,0.,
 0.00009725,0.,0.,0.00016067,0.,0.,-0.00046258,0.,0.,-0.00094459,0.,0.,
 0.00019970,0.,0.,-0.00002636,0.,0.,0.00003378,0.,0.,-0.00107334,0.,0.,
 0.00886486,0.,0.,0.00023108,0.,0.,0.00005107,0.,0.00000001,0.00679000,
 0.,0.,0.00236058,0.,0.,-0.00006865,-0.00000002,0.00000002,0.00206975,-
 0.00000015,0.00000032,-0.03618165,0.00001390,-0.00001326,-0.00000811,-
 0.00001390,0.00001326,-0.00000811,0.,0.,-0.00000312,0.,0.,-0.00005020,
 0.00000779,-0.00000074,-0.00001330,0.,0.,-0.00002581,-0.00000779,0.000
 00074,-0.00001330,0.,0.,-0.00004050,0.,0.,0.00000293,0.,0.,0.00010217,
 0.,0.,-0.00459561,0.,0.,0.00000961,0.,0.,-0.00312695,0.00000017,-0.000
 00034,0.02566870\\-0.00000577,-0.00000151,0.,-0.00000023,0.00000139,0.
 ,0.00000609,0.00000003,0.,0.00000578,-0.00000151,0.,0.00000340,0.00000
 428,0.,-0.00000706,-0.00000362,0.,0.00000024,0.00000138,0.,-0.00000609
 ,0.00000003,0.,-0.00000340,0.00000428,0.,-0.00000691,-0.00000409,0.,0.
 00000075,0.00000504,0.,0.00000705,-0.00000361,0.,0.00000691,-0.0000040
 9,0.,0.00000435,-0.00000191,0.,-0.00000075,0.00000504,0.,-0.00000435,-
 0.00000191,0.,0.00000011,0.00000024,0.00000021,0.00000011,0.00000024,-
 0.00000021,-0.00000078,-0.00000048,0.,0.00000076,-0.00000086,0.,-0.000
 00011,0.00000024,0.00000021,0.00000078,-0.00000048,0.,-0.00000010,0.00
 000024,-0.00000021,-0.00000064,0.00000132,0.,0.00000015,-0.00000083,0.
 ,-0.00000077,-0.00000085,0.,0.00000064,0.00000132,0.,-0.00000069,0.000
 00075,0.,-0.00000015,-0.00000083,0.,0.00000069,0.00000075,0.\\\@


 Discoveries are often made by not following instructions,
 by going off the main road, by trying the untried.
 -- Frank Tyger
 Job cpu time:       0 days 22 hours 53 minutes 27.4 seconds.
 File lengths (MBytes):  RWF=    853 Int=      0 D2E=      0 Chk=     25 Scr=      1
 Normal termination of Gaussian 09 at Fri Jul  9 21:55:41 2021.
